 Gaussian 16, Revision A.03,
 Gaussian 16:  ES64L-G16RevA.03 25-Dec-2016

 ----------------------------------------------------------------
 #P UB3LYP/6-311++G(d,p) SCRF=(PCM,Solvent=n,n-DiMethylFormamide)
 ----------------------------------------------------------------

 ------------------
 Quinone PCM in DMF
 ------------------
 Symbolic Z-matrix:
 Charge =  0 Multiplicity = 1

                         Standard orientation:
 ---------------------------------------------------------------------
 Center     Atomic      Atomic             Coordinates (Angstroms)
 Number     Number       Type             X           Y           Z
 ---------------------------------------------------------------------
      1          8           0       -2.664055   -0.932095   -0.000084
      2          6           0       -1.451930   -0.934587    0.000117
      3          6           0       -0.668362   -2.188568    0.000065
      4          6           0        0.670187   -2.188049   -0.000021
      5          6           0        1.452756   -0.933452    0.000002
      6          8           0        2.664886   -0.930037   -0.000057
      7          6           0        0.679397    0.362045    0.000001
      8          6           0       -0.679620    0.361520    0.000038
      9          6           0       -1.445416    1.562526    0.000004
     10          7           0       -2.071504    2.532518   -0.000042
     11          6           0        1.444222    1.563658   -0.000013
     12          7           0        2.069133    2.534410    0.000044
     13          1           0       -1.252886   -3.101490    0.000041
     14          1           0        1.255435   -3.100515   -0.000090
 ---------------------------------------------------------------------

 SCF Done:  E(UB3LYP) =  -566.088715401     A.U. after   14 cycles

 The electronic state is 1-A.
 Alpha  occ. eigenvalues --  -19.17392 -19.17392 -14.36322 -14.36321 -10.32413
 Alpha  occ. eigenvalues --  -10.32412 -10.29359 -10.29288 -10.25850 -10.25847
 Alpha  occ. eigenvalues --  -10.23749 -10.23667  -1.10868  -1.10672  -0.96536
 Alpha  occ. eigenvalues --   -0.95583  -0.91131  -0.84645  -0.77514  -0.70826
 Alpha  occ. eigenvalues --   -0.67800  -0.60141  -0.57654  -0.56278  -0.51641
 Alpha  occ. eigenvalues --   -0.49397  -0.49366  -0.47057  -0.45530  -0.44946
 Alpha  occ. eigenvalues --   -0.42399  -0.41681  -0.41572  -0.39897  -0.38942
 Alpha  occ. eigenvalues --   -0.38214  -0.33774  -0.32555  -0.32452  -0.31535
 Alpha virt. eigenvalues --   -0.17689  -0.10216  -0.04634  -0.03270  -0.00583
 Alpha virt. eigenvalues --   -0.00386   0.00957   0.01595   0.02754   0.03456
 Alpha virt. eigenvalues --    0.03718   0.03754   0.04261   0.05341   0.06511

  Beta  occ. eigenvalues --  -19.17392 -19.17392 -14.36322 -14.36321 -10.32413
  Beta  occ. eigenvalues --  -10.32412 -10.29359 -10.29288 -10.25850 -10.25847
  Beta  occ. eigenvalues --  -10.23749 -10.23667  -1.10868  -1.10672  -0.96536
  Beta  occ. eigenvalues --   -0.95583  -0.91131  -0.84645  -0.77514  -0.70826
  Beta  occ. eigenvalues --   -0.67800  -0.60141  -0.57654  -0.56278  -0.51641
  Beta  occ. eigenvalues --   -0.49397  -0.49366  -0.47057  -0.45530  -0.44946
  Beta  occ. eigenvalues --   -0.42399  -0.41681  -0.41572  -0.39897  -0.38942
  Beta  occ. eigenvalues --   -0.38214  -0.33774  -0.32555  -0.32452  -0.31535
  Beta virt. eigenvalues --   -0.17689  -0.10216  -0.04634  -0.03270  -0.00583
  Beta virt. eigenvalues --   -0.00386   0.00957   0.01595   0.02754   0.03456
  Beta virt. eigenvalues --    0.03718   0.03754   0.04261   0.05341   0.06511

 Mulliken charges and spin densities:
               1          2
     1  O   -0.213128  -0.000000
     2  C   -0.846255   0.000000
     3  C    0.209116  -0.000000
     4  C    0.209443   0.000000
     5  C   -0.847137  -0.000000
     6  O   -0.213137   0.000000
     7  C    1.765999   0.000000
     8  C    1.767416   0.000000
     9  C   -0.988691  -0.000000
    10  N   -0.193985   0.000000
    11  C   -0.988205   0.000000
    12  N   -0.194004   0.000000
    13  H    0.266283   0.000000
    14  H    0.266285   0.000000
 Sum of Mulliken charges =  -0.00000   0.00000

 Dipole moment (field-independent basis, Debye):
    X=              0.0035    Y=             -7.5565    Z=              0.0004  Tot=              7.5565
 Quadrupole moment (field-independent basis, Debye-Ang):
   XX=            -93.5683   YY=            -73.1616   ZZ=            -64.3544
   XY=             -0.0073   XZ=             -0.0010   YZ=             -0.0003

 Normal termination of Gaussian 16 at Sun Jan 21 06:41:23 2024.
