 Q-Chem 5.4, Q-Chem, Inc., Pleasanton, CA (2021)
 Q-Chem 5.4.0 for Intel X86 EM64T Linux

User input:
--------------------------------------------------------------
$molecule
-1 2
C                 -0.6156720000     -1.1101680000      2.5266720000
C                 -0.5011600000     -1.8887880000      1.3051020000
C                  0.0966980000     -1.4093140000      0.1826650000
C                  0.6837340000     -0.0857150000      0.1155330000
C                  0.5830340000      0.7267090000      1.3234380000
C                 -0.0950290000      0.2502380000      2.4325240000
O                 -1.0993990000     -1.5939520000      3.5755020000
O                  1.2519930000      0.3424640000     -0.9251330000
S                 -0.4030510000      1.3319240000      3.8383590000
C                  0.6572950000      0.7126300000      5.1689700000
C                  0.1541210000     -0.2284190000      6.0633880000
C                  1.9591140000      1.1992330000      5.2686730000
C                  2.7731340000      0.7337030000      6.2996140000
C                  0.9779190000     -0.6820170000      7.0920110000
C                  2.2824670000     -0.2016660000      7.2115130000
O                  0.1104940000      2.6691120000      3.4788940000
O                 -1.7973770000      1.2238080000      4.2846260000
H                 -0.9129970000     -2.8925040000      1.3469500000
H                  0.1760700000     -2.0111020000     -0.7179040000
H                 -0.8520060000     -0.6013250000      5.9269840000
H                  2.3194120000      1.9213090000      4.5458880000
H                  3.7893810000      1.1019800000      6.3888920000
H                  0.6016510000     -1.4163510000      7.7961140000
H                  2.9202140000     -0.5617420000      8.0123780000
C                  1.3489060000      2.0388900000      1.2421700000
C                  0.7028410000      3.1599990000      0.4668700000
O                  2.4719980000      2.1114660000      1.6950910000
H                 -0.2716460000      3.3949550000      0.8997900000
H                  0.5606960000      2.8204150000     -0.5630920000
H                  1.3457590000      4.0411490000      0.4883420000
$end
$rem
MAX_SCF_CYCLES=200
BASIS  =  6-311++G(d,p)
GUI  =  2
JOB_TYPE  =  SP
METHOD  =  B3LYP
SOLVENT_METHOD = COSMO
$end
$solvent
dielectric 37.219
opticaldielectric 1.43
$end

--------------------------------------------------------------

             Standard Nuclear Orientation (Angstroms)
    I     Atom           X                Y                Z
 ----------------------------------------------------------------
    1      C      -0.5896845471    -2.0262543580     0.0781389033
    2      C      -1.7348596226    -2.6722052123    -0.5406638988
    3      C      -2.8353344704    -1.9846554901    -0.9449222477
    4      C      -2.9519427595    -0.5465507364    -0.8060355757
    5      C      -1.8217192176     0.1352637177    -0.1839973692
    6      C      -0.7415574964    -0.5899680426     0.2894531044
    7      O       0.4476935410    -2.6623565054     0.3736112344
    8      O      -3.9698250638     0.0836838106    -1.2009549360
    9      S       0.5473666232     0.2264406263     1.2451966379
   10      C       2.0062581871     0.2490149656     0.1730445333
   11      C       2.9230645887    -0.7966295653     0.2425743134
   12      C       2.1793398678     1.3218764089    -0.6990030181
   13      C       3.3079531139     1.3480023954    -1.5161539591
   14      C       4.0493064938    -0.7553430450    -0.5773855400
   15      C       4.2427625433     0.3139183414    -1.4526672889
   16      O       0.1330445805     1.6329315601     1.4216500271
   17      O       0.8802957244    -0.5518937249     2.4445056683
   18      H      -1.6525991714    -3.7463527545    -0.6757455558
   19      H      -3.6779179230    -2.4874492462    -1.4104593560
   20      H       2.7300945374    -1.6244282233     0.9115051149
   21      H       1.4374187495     2.1105102704    -0.7341632432
   22      H       3.4553126965     2.1757435119    -2.2013446424
   23      H       4.7722330162    -1.5629918620    -0.5365725827
   24      H       5.1198431022     0.3382545568    -2.0913363360
   25      C      -1.9362989264     1.6522817382    -0.2066071161
   26      C      -2.8460954770     2.2839229928     0.8174412353
   27      O      -1.3962600628     2.2854242240    -1.0893465834
   28      H      -2.5165949981     2.0118515093     1.8222573895
   29      H      -3.8558540949     1.8949614124     0.6579400191
   30      H      -2.8365453058     3.3684912274     0.6997532460
 ----------------------------------------------------------------

    9   -1314.0883619471      8.86e-06  Convergence criterion met
 Total energy in the final basis set =    -1314.0883619471
    4   -1314.1761792630      9.55e-06  Convergence criterion met
 Total energy in the final basis set =    -1314.1761792630

                    Orbital Energies (a.u.)
 --------------------------------------------------------------

 Alpha MOs
 -- Occupied --
-89.0591 -19.1273 -19.1263 -19.1240 -19.0998 -19.0982 -10.2809 -10.2502
-10.2454 -10.2161 -10.2136 -10.2079 -10.1940 -10.1918 -10.1884 -10.1867
-10.1862 -10.1824 -10.1813 -10.1651  -8.1229  -6.0858  -6.0845  -6.0837
 -1.1194  -1.0626  -1.0269  -1.0231  -1.0142  -0.8777  -0.8539  -0.7919
 -0.7784  -0.7636  -0.7499  -0.7155  -0.6806  -0.6375  -0.6227  -0.6155
 -0.5802  -0.5477  -0.5431  -0.5090  -0.5044  -0.4877  -0.4837  -0.4797
 -0.4623  -0.4591  -0.4555  -0.4533  -0.4388  -0.4359  -0.4296  -0.4261
 -0.4046  -0.4034  -0.3970  -0.3866  -0.3848  -0.3801  -0.3710  -0.3598
 -0.3495  -0.3369  -0.3184  -0.3113  -0.3064  -0.2877  -0.2798  -0.2716
 -0.2702  -0.2648  -0.2506  -0.1860

 Beta MOs
 -- Occupied --
-89.0591 -19.1271 -19.1262 -19.1241 -19.0922 -19.0920 -10.2810 -10.2494
-10.2443 -10.2150 -10.2136 -10.2053 -10.1939 -10.1918 -10.1884 -10.1867
-10.1862 -10.1819 -10.1804 -10.1651  -8.1229  -6.0859  -6.0846  -6.0838
 -1.1192  -1.0620  -1.0175  -1.0128  -1.0099  -0.8776  -0.8475  -0.7902
 -0.7768  -0.7635  -0.7482  -0.7094  -0.6766  -0.6347  -0.6227  -0.6134
 -0.5784  -0.5454  -0.5422  -0.5073  -0.5020  -0.4869  -0.4822  -0.4795
 -0.4605  -0.4586  -0.4542  -0.4511  -0.4377  -0.4340  -0.4246  -0.4114
 -0.4011  -0.3977  -0.3895  -0.3844  -0.3803  -0.3735  -0.3643  -0.3596
 -0.3482  -0.3365  -0.3178  -0.3089  -0.2880  -0.2781  -0.2715  -0.2681
 -0.2661  -0.2588  -0.2461

          Ground-State Mulliken Net Atomic Charges

     Atom                 Charge (a.u.)    Spin (a.u.)
  --------------------------------------------------------
      1 C                    -0.263835       0.034821
      2 C                    -0.040495       0.064949
      3 C                    -0.162440       0.032926
      4 C                    -0.492719       0.086021
      5 C                     0.891953       0.193986
      6 C                    -0.067177       0.120078
      7 O                    -0.403470       0.227453
      8 O                    -0.451639       0.271710
      9 S                     0.446283      -0.034427
     10 C                     0.468757       0.001913
     11 C                    -0.055991       0.015329
     12 C                    -0.224590       0.006962
     13 C                    -0.530992      -0.001699
     14 C                    -0.466863      -0.003929
     15 C                    -0.349247       0.003853
     16 O                    -0.210516      -0.003047
     17 O                    -0.212407       0.007754
     18 H                     0.234690      -0.005893
     19 H                     0.230326      -0.004262
     20 H                     0.279788      -0.000393
     21 H                     0.256024       0.000813
     22 H                     0.236166       0.000070
     23 H                     0.233823       0.000138
     24 H                     0.211220      -0.000231
     25 C                    -0.200049      -0.024800
     26 C                    -0.656014       0.006979
     27 O                    -0.289498       0.003008
     28 H                     0.192678       0.000615
     29 H                     0.219226      -0.001631
     30 H                     0.177009       0.000938
  --------------------------------------------------------
  Sum of atomic charges =    -1.000000

                    Cartesian Multipole Moments
 -----------------------------------------------------------------
    Charge (ESU x 10^10)
                -4.8032
    Dipole Moment (Debye)
         X       6.5107      Y       0.2187      Z      -2.3766
       Tot       6.9344
    Quadrupole Moments (Debye-Ang)
        XX    -138.4876     XY       7.7702     YY    -141.3722
        XZ     -23.5298     YZ       6.5296     ZZ    -143.0968

 Total job time:  103.21s(wall), 777.29s(cpu)
        *  Thank you very much for using Q-Chem.  Have a nice day.  *
