 Q-Chem 5.4, Q-Chem, Inc., Pleasanton, CA (2021)
 Q-Chem 5.4.0 for Intel X86 EM64T Linux

User input:
--------------------------------------------------------------
$molecule
-2 1
O                  1.9834710000     -3.0899080000      0.8405100000
C                  1.4720040000     -1.9623500000      0.5597770000
C                  0.0866890000     -1.6896450000      0.4772630000
C                 -0.4686000000     -0.4376020000      0.1822870000
O                  0.4068590000      0.6217230000     -0.1129150000
C                  1.7536400000      0.4602910000     -0.0006250000
C                  2.5447510000      1.5943820000     -0.2139020000
C                  3.9413770000      1.4920340000     -0.1518690000
C                  4.5362340000      0.2706540000      0.1577080000
C                  3.7359970000     -0.8500780000      0.4060430000
C                  2.3362840000     -0.7823930000      0.3147830000
C                 -1.8389570000     -0.0885060000      0.0695580000
C                 -2.8933400000     -1.0480080000      0.2575790000
C                 -4.2261650000     -0.6853340000      0.1943140000
C                 -4.6207240000      0.6368900000     -0.0862520000
C                 -3.6057230000      1.5767600000     -0.3443030000
C                 -2.2652170000      1.2374800000     -0.2837240000
H                 -0.5857530000     -2.5140480000      0.6809770000
H                  2.0573630000      2.5343000000     -0.4503570000
H                  4.5554810000      2.3687130000     -0.3487780000
H                  5.6199680000      0.1940810000      0.2080350000
H                  4.1625560000     -1.8127230000      0.6648460000
H                 -2.6419740000     -2.0815880000      0.4673150000
H                 -4.9876770000     -1.4457460000      0.3655070000
H                 -5.6697480000      0.9127180000     -0.1299990000
H                 -3.8769880000      2.6013230000     -0.5962770000
H                 -1.5118050000      1.9865810000     -0.4935550000
$end

$rem
BASIS  =  6-311++G(d,p)
GUI  =  2
JOB_TYPE  =  SP
METHOD  =  B3LYP
SCF_CONVERGENCE  = 8
SOLVENT_METHOD = sm12
$end

$smx
solvent dimethylformamide
charges CM5
$end

--------------------------------------------------------------

             Standard Nuclear Orientation (Angstroms)
    I     Atom           X                Y                Z
 ----------------------------------------------------------------
    1      O       1.9834710000    -3.0899080000     0.8405100000
    2      C       1.4720040000    -1.9623500000     0.5597770000
    3      C       0.0866890000    -1.6896450000     0.4772630000
    4      C      -0.4686000000    -0.4376020000     0.1822870000
    5      O       0.4068590000     0.6217230000    -0.1129150000
    6      C       1.7536400000     0.4602910000    -0.0006250000
    7      C       2.5447510000     1.5943820000    -0.2139020000
    8      C       3.9413770000     1.4920340000    -0.1518690000
    9      C       4.5362340000     0.2706540000     0.1577080000
   10      C       3.7359970000    -0.8500780000     0.4060430000
   11      C       2.3362840000    -0.7823930000     0.3147830000
   12      C      -1.8389570000    -0.0885060000     0.0695580000
   13      C      -2.8933400000    -1.0480080000     0.2575790000
   14      C      -4.2261650000    -0.6853340000     0.1943140000
   15      C      -4.6207240000     0.6368900000    -0.0862520000
   16      C      -3.6057230000     1.5767600000    -0.3443030000
   17      C      -2.2652170000     1.2374800000    -0.2837240000
   18      H      -0.5857530000    -2.5140480000     0.6809770000
   19      H       2.0573630000     2.5343000000    -0.4503570000
   20      H       4.5554810000     2.3687130000    -0.3487780000
   21      H       5.6199680000     0.1940810000     0.2080350000
   22      H       4.1625560000    -1.8127230000     0.6648460000
   23      H      -2.6419740000    -2.0815880000     0.4673150000
   24      H      -4.9876770000    -1.4457460000     0.3655070000
   25      H      -5.6697480000     0.9127180000    -0.1299990000
   26      H      -3.8769880000     2.6013230000    -0.5962770000
   27      H      -1.5118050000     1.9865810000    -0.4935550000
 ----------------------------------------------------------------

   19    -727.8389821766      4.91e-09  Convergence criterion met
 Total energy in the final basis set =     -728.5367970908

                    Orbital Energies (a.u.)
 --------------------------------------------------------------

 Alpha MOs
 -- Occupied --
-19.2862 -19.1689 -10.3922 -10.3824 -10.3821 -10.3780 -10.3746 -10.3624
-10.3588 -10.3310 -10.3241 -10.2974 -10.2571 -10.2412 -10.2405 -10.2378
-10.2334  -1.1996  -1.0798  -1.0520  -0.9679  -0.9468  -0.9267  -0.9001
 -0.8521  -0.8189  -0.8089  -0.7941  -0.7449  -0.7287  -0.7167  -0.6747
 -0.6604  -0.6501  -0.6221  -0.6211  -0.6124  -0.6000  -0.5793  -0.5684
 -0.5522  -0.5438  -0.5341  -0.5242  -0.5018  -0.4949  -0.4847  -0.4709
 -0.4633  -0.4620  -0.4538  -0.4398  -0.4232  -0.4167  -0.4072  -0.3572
 -0.3247  -0.3193  -0.3053

          Ground-State Mulliken Net Atomic Charges

     Atom                 Charge (a.u.)
  ----------------------------------------
      1 O                    -0.141980
      2 C                     0.182022
      3 C                     5.402702
      4 C                     1.889310
      5 O                    -0.087777
      6 C                    -2.571001
      7 C                     0.224732
      8 C                     1.545284
      9 C                     2.154150
     10 C                     1.984487
     11 C                     3.944203
     12 C                     6.130349
     13 C                     9.367485
     14 C                    -8.614331
     15 C                   -10.073694
     16 C                    -3.305592
     17 C                    -0.462546
     18 H                     0.442418
     19 H                     0.210150
     20 H                     0.481485
     21 H                     0.482564
     22 H                     0.241794
     23 H                     0.671411
     24 H                     1.962096
     25 H                   -16.738995
     26 H                     2.215533
     27 H                     0.463742
  ----------------------------------------
  Sum of atomic charges =    -2.000000

                    Cartesian Multipole Moments
 -----------------------------------------------------------------
    Charge (ESU x 10^10)
                -9.6064
    Dipole Moment (Debye)
         X      84.0136      Y     -11.7298      Z       1.5114
       Tot      84.8419
    Quadrupole Moments (Debye-Ang)
        XX    -713.8240     XY     129.7276     YY    -158.2109
        XZ     -18.3757     YZ       0.2696     ZZ    -150.7379

 Total job time:  738.61s(wall), 5022.54s(cpu)
        *  Thank you very much for using Q-Chem.  Have a nice day.  *
