 Q-Chem 5.4, Q-Chem, Inc., Pleasanton, CA (2021)
 Q-Chem 5.4.0 for Intel X86 EM64T Linux

User input:
--------------------------------------------------------------
$molecule
-1 2
C                  1.2941720000      1.1670330000     -2.8722920000
C                 -0.0156360000      1.5133240000     -3.3841610000
C                 -1.1061240000      0.7234350000     -3.1723790000
C                 -1.0397570000     -0.5138600000     -2.4229100000
C                  0.2698380000     -0.8933840000     -1.8991590000
O                  2.2880830000      1.9281920000     -3.0201520000
O                 -2.0663750000     -1.2287550000     -2.2387100000
H                 -0.0858740000      2.4476830000     -3.9338900000
C                  1.3813810000     -0.0956090000     -2.1403750000
C                  2.7232830000     -0.4691770000     -1.6042550000
C                  3.8952420000     -0.5585060000     -2.5518440000
C                  5.1903640000     -0.5721550000     -2.0215880000
C                  3.7267770000     -0.7142790000     -3.9314300000
C                  6.2959630000     -0.7220220000     -2.8529790000
C                  6.1189030000     -0.8812050000     -4.2284900000
C                  4.8309120000     -0.8813010000     -4.7637080000
O                  2.8986570000     -0.7621720000     -0.4270620000
C                  0.3221620000     -2.1870120000     -1.1281500000
H                  5.3066280000     -0.4624490000     -0.9500000000
H                  2.7271280000     -0.7019050000     -4.3478230000
H                  7.2961820000     -0.7171850000     -2.4312950000
H                  6.9795020000     -1.0022620000     -4.8788510000
H                  4.6865690000     -1.0040460000     -5.8321160000
H                 -2.0852250000      0.9974360000     -3.5557770000
H                  0.0528490000     -2.0208320000     -0.0786540000
H                  1.3141140000     -2.6393140000     -1.1359340000
H                 -0.4153090000     -2.8804740000     -1.5368950000
$end
$rem
MAX_SCF_CYCLES=200
BASIS  =  6-311++G(d,p)
GUI  =  2
JOB_TYPE  =  SP
METHOD  =  B3LYP
SOLVENT_METHOD = COSMO
$end
$solvent
dielectric 37.219
opticaldielectric 1.43
$end

--------------------------------------------------------------

             Standard Nuclear Orientation (Angstroms)
    I     Atom           X                Y                Z
 ----------------------------------------------------------------
    1      C       0.8882719901     1.2934177000    -0.7660978486
    2      C       2.1219345582     1.9936183984    -0.4740020139
    3      C       3.1879878936     1.3694619777     0.1021050723
    4      C       3.1698336297    -0.0329171034     0.4626749174
    5      C       1.9364017882    -0.7647648689     0.1862018063
    6      O      -0.0743063309     1.8588893703    -1.3515630011
    7      O       4.1726861802    -0.5896488181     0.9949207054
    8      H       2.1579658291     3.0425103707    -0.7545184462
    9      C       0.8455255694    -0.1156390862    -0.3784066806
   10      C      -0.4175966630    -0.8544559078    -0.6722614283
   11      C      -1.7228230291    -0.3255302906    -0.1281894610
   12      C      -2.9213653484    -0.8056021722    -0.6683061269
   13      C      -1.7741843097     0.5607949107     0.9524089249
   14      C      -4.1467154673    -0.3969741506    -0.1510436330
   15      C      -4.1891584073     0.4846827402     0.9304366978
   16      C      -2.9991439120     0.9581858524     1.4827404517
   17      O      -0.4278197867    -1.9102980850    -1.2947389409
   18      C       1.9323545297    -2.2208058553     0.5742666811
   19      H      -2.8676756164    -1.5008874601    -1.4974920813
   20      H      -0.8500611550     0.9376922041     1.3728601047
   21      H      -5.0696757103    -0.7656692361    -0.5874919851
   22      H      -5.1436940031     0.8019717779     1.3384125906
   23      H      -3.0253372264     1.6441146099     2.3231049804
   24      H       4.1108644885     1.9039896481     0.3101634843
   25      H       2.3662746701    -2.8333268272    -0.2245565215
   26      H       0.9278927431    -2.6019773612     0.7596615640
   27      H       2.5610285485    -2.3607903298     1.4557420474
 ----------------------------------------------------------------

   10    -765.4451062205      9.00e-06  Convergence criterion met
 Total energy in the final basis set =     -765.4451062205
    5    -765.5323439425      4.22e-06  Convergence criterion met
 Total energy in the final basis set =     -765.5323439425

                    Orbital Energies (a.u.)
 --------------------------------------------------------------

 Alpha MOs
 -- Occupied --
-19.1175 -19.0858 -19.0849 -10.2678 -10.2313 -10.2252 -10.1872 -10.1861
-10.1816 -10.1816 -10.1796 -10.1785 -10.1782 -10.1758 -10.1694 -10.1679
-10.1554  -1.0500  -1.0096  -1.0067  -0.8650  -0.8344  -0.7770  -0.7641
 -0.7531  -0.7173  -0.6688  -0.6456  -0.6148  -0.6008  -0.5658  -0.5509
 -0.5138  -0.4917  -0.4802  -0.4635  -0.4599  -0.4447  -0.4408  -0.4288
 -0.4232  -0.4202  -0.4123  -0.4048  -0.3949  -0.3930  -0.3775  -0.3692
 -0.3670  -0.3629  -0.3572  -0.3468  -0.2888  -0.2759  -0.2643  -0.2621
 -0.2576  -0.2505  -0.2395  -0.1702

 Beta MOs
 -- Occupied --
-19.1172 -19.0786 -19.0785 -10.2678 -10.2302 -10.2237 -10.1861 -10.1852
-10.1816 -10.1816 -10.1796 -10.1785 -10.1782 -10.1752 -10.1687 -10.1667
-10.1556  -1.0494  -0.9985  -0.9941  -0.8649  -0.8284  -0.7750  -0.7629
 -0.7530  -0.7132  -0.6613  -0.6441  -0.6143  -0.5991  -0.5619  -0.5498
 -0.5124  -0.4895  -0.4782  -0.4621  -0.4582  -0.4428  -0.4388  -0.4271
 -0.4179  -0.4157  -0.4085  -0.4014  -0.3923  -0.3802  -0.3685  -0.3665
 -0.3623  -0.3558  -0.3495  -0.3459  -0.2753  -0.2655  -0.2609  -0.2561
 -0.2487  -0.2446  -0.2343

          Ground-State Mulliken Net Atomic Charges

     Atom                 Charge (a.u.)    Spin (a.u.)
  --------------------------------------------------------
      1 C                    -0.720365       0.111362
      2 C                    -0.169323       0.080298
      3 C                    -0.048190       0.059380
      4 C                    -0.369328       0.105802
      5 C                     0.724846       0.108205
      6 O                    -0.473659       0.226907
      7 O                    -0.519324       0.254863
      8 H                     0.217102      -0.008274
      9 C                     0.928407       0.023983
     10 C                    -1.150089       0.027220
     11 C                     1.196822       0.000623
     12 C                     0.720327      -0.009451
     13 C                    -0.967001       0.005209
     14 C                    -0.573225       0.002800
     15 C                    -0.251530       0.001050
     16 C                    -0.532422      -0.001902
     17 O                    -0.282045       0.007742
     18 C                    -0.543332      -0.003749
     19 H                     0.227983      -0.000501
     20 H                     0.189581       0.001933
     21 H                     0.215158       0.000099
     22 H                     0.204247      -0.000054
     23 H                     0.222506      -0.000107
     24 H                     0.212437      -0.005303
     25 H                     0.202721       0.009063
     26 H                     0.170618       0.001400
     27 H                     0.167077       0.001401
  --------------------------------------------------------
  Sum of atomic charges =    -1.000000

                    Cartesian Multipole Moments
 -----------------------------------------------------------------
    Charge (ESU x 10^10)
                -4.8032
    Dipole Moment (Debye)
         X      -9.3370      Y       0.6071      Z       3.4003
       Tot       9.9554
    Quadrupole Moments (Debye-Ang)
        XX    -132.7186     XY       7.6948     YY    -114.5796
        XZ     -13.1900     YZ       6.6979     ZZ    -110.7102

 Total job time:  81.51s(wall), 620.69s(cpu)
        *  Thank you very much for using Q-Chem.  Have a nice day.  *
