 Gaussian 16, Revision A.03,
 Gaussian 16:  ES64L-G16RevA.03 25-Dec-2016

 ----------------------------------------------------------------
 #P UB3LYP/6-311++G(d,p) SCRF=(PCM,Solvent=n,n-DiMethylFormamide)
 ----------------------------------------------------------------

 ------------------
 Quinone PCM in DMF
 ------------------
 Symbolic Z-matrix:
 Charge =  0 Multiplicity = 1

                         Standard orientation:
 ---------------------------------------------------------------------
 Center     Atomic      Atomic             Coordinates (Angstroms)
 Number     Number       Type             X           Y           Z
 ---------------------------------------------------------------------
      1          6           0       -0.758119    1.204831   -0.073206
      2          6           0        0.450346    2.052847    0.049858
      3          6           0        1.672330    1.516854    0.088099
      4          6           0        1.870158    0.042249    0.040957
      5          6           0        0.680363   -0.833752   -0.034122
      6          6           0       -0.563707   -0.282749   -0.058704
      7          8           0       -1.859490    1.713148   -0.207372
      8          8           0        3.005397   -0.412665    0.081357
      9          6           0        0.894787   -2.317305   -0.090132
     10          8           0       -1.616437   -1.114915   -0.184960
     11          6           0       -2.935189   -0.787990    0.299985
     12          1           0        0.267341    3.121024    0.078007
     13          1           0        2.576160    2.111418    0.158135
     14          1           0        0.809181   -2.682895   -1.119502
     15          1           0        0.140042   -2.841037    0.498479
     16          1           0        1.892146   -2.566351    0.270027
     17          1           0       -3.438494   -1.749588    0.393003
     18          1           0       -3.462304   -0.145885   -0.402020
     19          1           0       -2.885638   -0.301138    1.275265
 ---------------------------------------------------------------------

 SCF Done:  E(UB3LYP) =  -535.456315697     A.U. after   16 cycles

 The electronic state is 1-A.
 Alpha  occ. eigenvalues --  -19.17621 -19.14817 -19.13692 -10.29537 -10.28344
 Alpha  occ. eigenvalues --  -10.26794 -10.22702 -10.21303 -10.21172 -10.20634
 Alpha  occ. eigenvalues --  -10.17257  -1.09735  -1.07123  -1.06774  -0.86464
 Alpha  occ. eigenvalues --   -0.80857  -0.74381  -0.70347  -0.69431  -0.61849
 Alpha  occ. eigenvalues --   -0.60052  -0.54206  -0.52998  -0.50332  -0.48915
 Alpha  occ. eigenvalues --   -0.47484  -0.45625  -0.44769  -0.43840  -0.43748
 Alpha  occ. eigenvalues --   -0.42730  -0.40768  -0.40249  -0.39023  -0.37312
 Alpha  occ. eigenvalues --   -0.35101  -0.31268  -0.29018  -0.28241  -0.25609
 Alpha virt. eigenvalues --   -0.13432  -0.02383  -0.00762  -0.00127   0.00657
 Alpha virt. eigenvalues --    0.00870   0.02603   0.02949   0.03262   0.03690
 Alpha virt. eigenvalues --    0.04754   0.05890   0.06240   0.06568   0.07538

  Beta  occ. eigenvalues --  -19.17621 -19.14817 -19.13692 -10.29537 -10.28344
  Beta  occ. eigenvalues --  -10.26794 -10.22702 -10.21303 -10.21172 -10.20634
  Beta  occ. eigenvalues --  -10.17257  -1.09735  -1.07123  -1.06774  -0.86464
  Beta  occ. eigenvalues --   -0.80857  -0.74381  -0.70347  -0.69431  -0.61849
  Beta  occ. eigenvalues --   -0.60052  -0.54206  -0.52998  -0.50332  -0.48915
  Beta  occ. eigenvalues --   -0.47484  -0.45625  -0.44769  -0.43840  -0.43748
  Beta  occ. eigenvalues --   -0.42730  -0.40768  -0.40249  -0.39023  -0.37312
  Beta  occ. eigenvalues --   -0.35101  -0.31268  -0.29018  -0.28241  -0.25609
  Beta virt. eigenvalues --   -0.13432  -0.02383  -0.00762  -0.00127   0.00657
  Beta virt. eigenvalues --    0.00870   0.02603   0.02949   0.03262   0.03690
  Beta virt. eigenvalues --    0.04754   0.05890   0.06240   0.06568   0.07538

 Mulliken charges and spin densities:
               1          2
     1  C   -0.038215   0.000000
     2  C    0.007678  -0.000000
     3  C    0.293403  -0.000000
     4  C   -1.377657  -0.000000
     5  C    1.860723   0.000000
     6  C   -1.048820  -0.000000
     7  O   -0.264843  -0.000000
     8  O   -0.294933   0.000000
     9  C   -0.214429   0.000000
    10  O   -0.181817  -0.000000
    11  C   -0.302883  -0.000000
    12  H    0.242670  -0.000000
    13  H    0.239578  -0.000000
    14  H    0.201402   0.000000
    15  H    0.177018   0.000000
    16  H    0.172012  -0.000000
    17  H    0.163643  -0.000000
    18  H    0.191797  -0.000000
    19  H    0.173674   0.000000
 Sum of Mulliken charges =  -0.00000  -0.00000

 Dipole moment (field-independent basis, Debye):
    X=             -2.2846    Y=              0.4585    Z=              0.9417  Tot=              2.5133
 Quadrupole moment (field-independent basis, Debye-Ang):
   XX=            -73.4970   YY=            -60.9678   ZZ=            -63.6656
   XY=             10.1551   XZ=             -2.9314   YZ=              0.3275

 Normal termination of Gaussian 16 at Wed Jan 24 22:48:46 2024.
