 Gaussian 16, Revision A.03,
 Gaussian 16:  ES64L-G16RevA.03 25-Dec-2016

 ----------------------------------------------------------------
 #P UB3LYP/6-311++G(d,p) SCRF=(PCM,Solvent=n,n-DiMethylFormamide)
 ----------------------------------------------------------------

 ------------------
 Radical PCM in DMF
 ------------------
 Symbolic Z-matrix:
 Charge = -1 Multiplicity = 2

                         Standard orientation:
 ---------------------------------------------------------------------
 Center     Atomic      Atomic             Coordinates (Angstroms)
 Number     Number       Type             X           Y           Z
 ---------------------------------------------------------------------
      1          6           0        4.170835    0.880526    0.007306
      2          6           0        5.194799   -0.044254   -0.008757
      3          6           0        4.897710   -1.424342   -0.025658
      4          6           0        2.819906    0.466294    0.008170
      5          6           0        2.519365   -0.920089   -0.008046
      6          6           0        3.583083   -1.847433   -0.026180
      7          6           0        1.759157    1.455163    0.017341
      8          6           0        0.391806    0.980926    0.020667
      9          6           0        0.073098   -0.421567    0.031442
     10          6           0        1.140463   -1.415448   -0.005915
     11          6           0       -0.659547    1.945032   -0.000570
     12          6           0       -1.981685    1.528004   -0.020578
     13          6           0       -1.302496   -0.840332    0.048566
     14          6           0       -2.273129    0.163666    0.006519
     15          8           0        2.035903    2.705883    0.016240
     16          8           0        0.929674   -2.663894   -0.044044
     17          8           0       -0.397535    3.270757   -0.010477
     18         35           0       -4.147505   -0.338931   -0.019700
     19          7           0       -1.635844   -2.174187    0.147831
     20          1           0        4.369062    1.945582    0.018712
     21          1           0        6.228610    0.287743   -0.008685
     22          1           0        5.703502   -2.151979   -0.037893
     23          1           0        3.327281   -2.900023   -0.039190
     24          1           0       -2.768968    2.269212   -0.050562
     25          1           0        0.611176    3.329472   -0.000712
     26          1           0       -0.847085   -2.800065   -0.016160
     27          1           0       -2.554532   -2.436863   -0.170422
 ---------------------------------------------------------------------

 SCF Done:  E(UB3LYP) =  -3393.27957660     A.U. after   20 cycles

 The electronic state is 2-A.
 Alpha  occ. eigenvalues -- -482.83359 -62.48642 -56.30661 -56.30299 -56.30286
 Alpha  occ. eigenvalues --  -19.12941 -19.09089 -19.08355 -14.30931 -10.23495
 Alpha  occ. eigenvalues --  -10.23397 -10.23388 -10.22655 -10.22577 -10.18427
 Alpha  occ. eigenvalues --  -10.18082 -10.17794 -10.17748 -10.17712 -10.17655
 Alpha  occ. eigenvalues --  -10.17599 -10.17403 -10.17320  -8.69607  -6.52690
 Alpha  occ. eigenvalues --   -6.51484  -6.51462  -2.63792  -2.63448  -2.63433
 Alpha  occ. eigenvalues --   -2.62474  -2.62472  -1.05460  -1.01177  -1.00619
 Alpha  occ. eigenvalues --   -0.92400  -0.86468  -0.84783  -0.81418  -0.77600
 Alpha  occ. eigenvalues --   -0.75596  -0.74121  -0.72650  -0.67330  -0.64049
 Alpha  occ. eigenvalues --   -0.63025  -0.59632  -0.57377  -0.55356  -0.53003
 Alpha  occ. eigenvalues --   -0.51909  -0.50614  -0.48196  -0.46847  -0.45954
 Alpha  occ. eigenvalues --   -0.45238  -0.43942  -0.42831  -0.42671  -0.42355
 Alpha  occ. eigenvalues --   -0.41367  -0.40784  -0.40212  -0.39674  -0.37953
 Alpha  occ. eigenvalues --   -0.36682  -0.36303  -0.35693  -0.35358  -0.34149
 Alpha  occ. eigenvalues --   -0.31545  -0.29968  -0.29373  -0.26744  -0.26085
 Alpha  occ. eigenvalues --   -0.26001  -0.25002  -0.24664  -0.20733  -0.14524
 Alpha virt. eigenvalues --   -0.05164  -0.02902  -0.01954  -0.00258   0.00486
 Alpha virt. eigenvalues --    0.00616   0.01138   0.02071   0.02417   0.03824
 Alpha virt. eigenvalues --    0.03877   0.04130   0.04699   0.04791   0.05383

  Beta  occ. eigenvalues -- -482.83358 -62.48641 -56.30663 -56.30295 -56.30286
  Beta  occ. eigenvalues --  -19.12883 -19.08621 -19.07886 -14.30885 -10.23343
  Beta  occ. eigenvalues --  -10.23335 -10.23162 -10.22627 -10.22422 -10.18400
  Beta  occ. eigenvalues --  -10.18084 -10.17742 -10.17676 -10.17626 -10.17612
  Beta  occ. eigenvalues --  -10.17545 -10.17379 -10.17329  -8.69606  -6.52694
  Beta  occ. eigenvalues --   -6.51477  -6.51460  -2.63794  -2.63446  -2.63434
  Beta  occ. eigenvalues --   -2.62470  -2.62468  -1.05261  -1.00376  -0.99841
  Beta  occ. eigenvalues --   -0.92247  -0.86248  -0.84609  -0.81222  -0.77343
  Beta  occ. eigenvalues --   -0.75374  -0.73933  -0.72405  -0.66699  -0.63825
  Beta  occ. eigenvalues --   -0.62813  -0.59530  -0.57206  -0.55174  -0.52850
  Beta  occ. eigenvalues --   -0.51802  -0.50465  -0.47910  -0.46724  -0.45852
  Beta  occ. eigenvalues --   -0.45098  -0.43107  -0.42784  -0.42517  -0.42005
  Beta  occ. eigenvalues --   -0.41087  -0.40608  -0.39369  -0.38595  -0.37780
  Beta  occ. eigenvalues --   -0.36255  -0.35559  -0.35261  -0.34497  -0.34037
  Beta  occ. eigenvalues --   -0.31184  -0.29952  -0.28572  -0.25611  -0.25459
  Beta  occ. eigenvalues --   -0.25298  -0.24530  -0.24259  -0.19630
  Beta virt. eigenvalues --   -0.09181  -0.04120  -0.01905  -0.01786  -0.00237
  Beta virt. eigenvalues --    0.00496   0.01124   0.01158   0.02086   0.02422
  Beta virt. eigenvalues --    0.03850   0.04076   0.04137   0.04717   0.05098

 Mulliken charges and spin densities:
               1          2
     1  C   -0.002795   0.043459
     2  C   -0.524776   0.017038
     3  C   -0.564478   0.046984
     4  C    0.191481   0.006841
     5  C   -0.005115   0.032185
     6  C    0.095423   0.013929
     7  C   -0.281588   0.134254
     8  C    0.573670  -0.001530
     9  C    0.521250   0.025479
    10  C   -0.271430   0.084702
    11  C   -0.387140   0.050569
    12  C    0.022319   0.072379
    13  C   -0.484634   0.016886
    14  C    0.121515   0.092739
    15  O   -0.490700   0.169340
    16  O   -0.443487   0.170807
    17  O   -0.405348   0.017829
    18  Br  -0.191852   0.003220
    19  N   -0.346759   0.023597
    20  H    0.173834  -0.001581
    21  H    0.183509  -0.001754
    22  H    0.183357  -0.003618
    23  H    0.172361  -0.000256
    24  H    0.233118  -0.006220
    25  H    0.361870  -0.003822
    26  H    0.320903  -0.002410
    27  H    0.245490  -0.001045
 Sum of Mulliken charges =  -1.00000   1.00000

 Dipole moment (field-independent basis, Debye):
    X=             -2.3554    Y=             -2.7785    Z=             -0.7630  Tot=              3.7215
 Quadrupole moment (field-independent basis, Debye-Ang):
   XX=           -135.6736   YY=           -156.9254   ZZ=           -130.0038
   XY=             -1.6219   XZ=              1.7766   YZ=              1.9013

 Normal termination of Gaussian 16 at Tue Jan 16 05:33:36 2024.
