 Q-Chem 5.4, Q-Chem, Inc., Pleasanton, CA (2021)
 Q-Chem 5.4.0 for Intel X86 EM64T Linux

User input:
--------------------------------------------------------------
$molecule
-2 1
C                 -2.5664980000     -0.6614920000     -0.2165140000
C                 -1.2106610000     -0.0270950000     -0.0366200000
C                 -1.0955330000      1.3357850000      0.2785570000
C                  0.1512760000      2.0158630000      0.4659640000
O                  0.2464610000      3.2840870000      0.7590060000
C                  1.2823020000      1.1531580000      0.2966410000
C                  1.1927480000     -0.2116590000     -0.0184580000
C                  2.4383670000     -1.0459060000     -0.1782800000
C                 -0.0654980000     -0.8727370000     -0.2014020000
O                 -0.1610410000     -2.1460750000     -0.4952450000
H                 -2.7235170000     -1.4906040000      0.4915540000
H                 -3.3691940000      0.0754670000     -0.0771370000
H                 -2.6720920000     -1.1131890000     -1.2154050000
H                 -2.0024180000      1.9351940000      0.3928050000
H                  2.2682430000      1.6071880000      0.4253470000
H                  3.3417560000     -0.4417730000     -0.0177480000
H                  2.4937410000     -1.5032680000     -1.1787550000
H                  2.4515590000     -1.8929410000      0.5256920000
$end

$rem
BASIS  =  6-311++G(d,p)
GUI  =  2
JOB_TYPE  =  SP
METHOD  =  B3LYP
SCF_CONVERGENCE  = 8
SOLVENT_METHOD = sm12
$end

$smx
solvent dimethylformamide
charges CM5
$end

--------------------------------------------------------------

             Standard Nuclear Orientation (Angstroms)
    I     Atom           X                Y                Z
 ----------------------------------------------------------------
    1      C      -2.5664980000    -0.6614920000    -0.2165140000
    2      C      -1.2106610000    -0.0270950000    -0.0366200000
    3      C      -1.0955330000     1.3357850000     0.2785570000
    4      C       0.1512760000     2.0158630000     0.4659640000
    5      O       0.2464610000     3.2840870000     0.7590060000
    6      C       1.2823020000     1.1531580000     0.2966410000
    7      C       1.1927480000    -0.2116590000    -0.0184580000
    8      C       2.4383670000    -1.0459060000    -0.1782800000
    9      C      -0.0654980000    -0.8727370000    -0.2014020000
   10      O      -0.1610410000    -2.1460750000    -0.4952450000
   11      H      -2.7235170000    -1.4906040000     0.4915540000
   12      H      -3.3691940000     0.0754670000    -0.0771370000
   13      H      -2.6720920000    -1.1131890000    -1.2154050000
   14      H      -2.0024180000     1.9351940000     0.3928050000
   15      H       2.2682430000     1.6071880000     0.4253470000
   16      H       3.3417560000    -0.4417730000    -0.0177480000
   17      H       2.4937410000    -1.5032680000    -1.1787550000
   18      H       2.4515590000    -1.8929410000     0.5256920000
 ----------------------------------------------------------------

   17    -460.1794389195      4.12e-09  Convergence criterion met
 Total energy in the final basis set =     -460.4897819487

                    Orbital Energies (a.u.)
 --------------------------------------------------------------

 Alpha MOs
 -- Occupied --
-19.0271 -19.0261 -10.1885 -10.1802 -10.1755 -10.1754 -10.1546 -10.1546
-10.1457 -10.1457  -0.9344  -0.9309  -0.8057  -0.7706  -0.7152  -0.6675
 -0.6473  -0.5589  -0.5403  -0.4675  -0.4445  -0.4255  -0.4182  -0.4138
 -0.4021  -0.3922  -0.3717  -0.3616  -0.3524  -0.3346  -0.3307  -0.3121
 -0.2322  -0.2308  -0.2021  -0.2010  -0.1314

          Ground-State Mulliken Net Atomic Charges

     Atom                 Charge (a.u.)
  ----------------------------------------
      1 C                     1.290126
      2 C                     0.586414
      3 C                    -1.575206
      4 C                    -1.129026
      5 O                    -0.407072
      6 C                    -1.575974
      7 C                     0.589089
      8 C                     1.292977
      9 C                    -1.786332
     10 O                    -0.326748
     11 H                     0.175038
     12 H                     0.304824
     13 H                     0.176699
     14 H                    -0.135647
     15 H                    -0.135664
     16 H                     0.305039
     17 H                     0.175945
     18 H                     0.175520
  ----------------------------------------
  Sum of atomic charges =    -2.000000

                    Cartesian Multipole Moments
 -----------------------------------------------------------------
    Charge (ESU x 10^10)
                -9.6064
    Dipole Moment (Debye)
         X      -0.4277      Y      -5.6963      Z      -1.3263
       Tot       5.8643
    Quadrupole Moments (Debye-Ang)
        XX     -81.7482     XY      -3.7953     YY    -132.2173
        XZ      -1.1089     YZ     -13.8754     ZZ     -75.2864

 Total job time:  198.63s(wall), 1413.10s(cpu)
        *  Thank you very much for using Q-Chem.  Have a nice day.  *
