 Gaussian 16, Revision A.03,
 Gaussian 16:  ES64L-G16RevA.03 25-Dec-2016

 ----------------------------------------------------------------
 #P UB3LYP/6-311++G(d,p) SCRF=(PCM,Solvent=n,n-DiMethylFormamide)
 ----------------------------------------------------------------

 -------
 Reduced
 -------
 Symbolic Z-matrix:
 Charge = -3 Multiplicity = 1

                         Standard orientation:
 ---------------------------------------------------------------------
 Center     Atomic      Atomic             Coordinates (Angstroms)
 Number     Number       Type             X           Y           Z
 ---------------------------------------------------------------------
      1          8           0        0.450124    3.109119   -0.032112
      2          6           0        0.535279    1.732865   -0.010654
      3          6           0        1.827087    1.212636   -0.014258
      4          8           0        2.853092    2.140528   -0.036552
      5          6           0        2.046313   -0.185221   -0.032199
      6          6           0        0.950877   -1.026203   -0.037587
      7          6           0       -0.372452   -0.532245   -0.020996
      8          6           0       -1.457562   -1.518272   -0.031522
      9          8           0       -1.232761   -2.768072   -0.048387
     10          6           0       -2.805908   -0.976730   -0.007133
     11          6           0       -3.916235   -1.856935    0.012050
     12          6           0       -5.218528   -1.395772    0.015450
     13          6           0       -5.463537    0.001873   -0.002087
     14          6           0       -4.397523    0.881272   -0.001995
     15          6           0       -3.051659    0.437996    0.013808
     16          6           0       -1.980172    1.433954    0.036219
     17          8           0       -2.246824    2.673525    0.069683
     18          6           0       -0.618386    0.895921    0.002193
     19         16           0        3.744023   -0.838757    0.030653
     20          8           0        4.098498   -1.058957    1.459211
     21          8           0        3.795292   -2.068987   -0.795083
     22          8           0        4.569365    0.291914   -0.571189
     23          1           0        1.373694    3.396422   -0.086727
     24          1           0        3.679472    1.627197   -0.258357
     25          1           0        1.079602   -2.100844   -0.061139
     26          1           0       -3.696598   -2.919618    0.020117
     27          1           0       -6.056160   -2.092694    0.026056
     28          1           0       -6.488778    0.371594   -0.012461
     29          1           0       -4.555448    1.954691   -0.010224
 ---------------------------------------------------------------------

 SCF Done:  E(UB3LYP) =  -1463.14952134     A.U. after   18 cycles

 The electronic state is 1-A.
 Alpha  occ. eigenvalues --  -89.04314 -19.12710 -19.12546 -19.09014 -19.08899
 Alpha  occ. eigenvalues --  -19.08648 -19.01922 -19.01063 -10.20721 -10.20599
 Alpha  occ. eigenvalues --  -10.17594 -10.17364 -10.17331 -10.15089 -10.14628
 Alpha  occ. eigenvalues --  -10.14578 -10.14399 -10.14258 -10.14179 -10.13783
 Alpha  occ. eigenvalues --  -10.13122 -10.13082  -8.10194  -6.06495  -6.06456
 Alpha  occ. eigenvalues --   -6.06335  -1.10393  -1.05286  -1.01937  -0.97010
 Alpha  occ. eigenvalues --   -0.96369  -0.94479  -0.93796  -0.82798  -0.82001
 Alpha  occ. eigenvalues --   -0.75336  -0.72229  -0.71837  -0.70729  -0.64783
 Alpha  occ. eigenvalues --   -0.62078  -0.60336  -0.57941  -0.56603  -0.54521
 Alpha  occ. eigenvalues --   -0.52791  -0.50601  -0.49153  -0.47233  -0.46037
 Alpha  occ. eigenvalues --   -0.45047  -0.44968  -0.44304  -0.42719  -0.41474
 Alpha  occ. eigenvalues --   -0.40249  -0.39681  -0.39188  -0.38411  -0.37160
 Alpha  occ. eigenvalues --   -0.36658  -0.35952  -0.35615  -0.34843  -0.33770
 Alpha  occ. eigenvalues --   -0.33331  -0.33028  -0.32582  -0.32215  -0.31679
 Alpha  occ. eigenvalues --   -0.30486  -0.30140  -0.29438  -0.28347  -0.27958
 Alpha  occ. eigenvalues --   -0.25414  -0.22733  -0.22178  -0.21442  -0.19910
 Alpha  occ. eigenvalues --   -0.19572  -0.18680  -0.09534
 Alpha virt. eigenvalues --   -0.02436   0.00190   0.00447   0.00836   0.01652
 Alpha virt. eigenvalues --    0.02543   0.02623   0.02789   0.04552   0.04744
 Alpha virt. eigenvalues --    0.04954   0.05122   0.05846   0.06534   0.06744

  Beta  occ. eigenvalues --  -89.04314 -19.12710 -19.12546 -19.09014 -19.08899
  Beta  occ. eigenvalues --  -19.08648 -19.01922 -19.01063 -10.20721 -10.20599
  Beta  occ. eigenvalues --  -10.17594 -10.17364 -10.17331 -10.15089 -10.14628
  Beta  occ. eigenvalues --  -10.14578 -10.14399 -10.14258 -10.14179 -10.13783
  Beta  occ. eigenvalues --  -10.13122 -10.13082  -8.10194  -6.06495  -6.06456
  Beta  occ. eigenvalues --   -6.06335  -1.10393  -1.05286  -1.01937  -0.97010
  Beta  occ. eigenvalues --   -0.96369  -0.94479  -0.93796  -0.82798  -0.82001
  Beta  occ. eigenvalues --   -0.75336  -0.72229  -0.71837  -0.70729  -0.64783
  Beta  occ. eigenvalues --   -0.62078  -0.60336  -0.57941  -0.56603  -0.54521
  Beta  occ. eigenvalues --   -0.52791  -0.50601  -0.49153  -0.47233  -0.46037
  Beta  occ. eigenvalues --   -0.45047  -0.44968  -0.44304  -0.42719  -0.41474
  Beta  occ. eigenvalues --   -0.40249  -0.39681  -0.39188  -0.38411  -0.37160
  Beta  occ. eigenvalues --   -0.36658  -0.35952  -0.35615  -0.34843  -0.33770
  Beta  occ. eigenvalues --   -0.33331  -0.33028  -0.32582  -0.32215  -0.31679
  Beta  occ. eigenvalues --   -0.30486  -0.30140  -0.29438  -0.28347  -0.27958
  Beta  occ. eigenvalues --   -0.25414  -0.22733  -0.22178  -0.21442  -0.19910
  Beta  occ. eigenvalues --   -0.19572  -0.18680  -0.09534
  Beta virt. eigenvalues --   -0.02436   0.00190   0.00447   0.00836   0.01652
  Beta virt. eigenvalues --    0.02543   0.02623   0.02789   0.04552   0.04744
  Beta virt. eigenvalues --    0.04954   0.05122   0.05846   0.06534   0.06744

 Mulliken charges and spin densities:
               1          2
     1  O   -0.296065  -0.000000
     2  C   -0.368420  -0.000000
     3  C   -0.770099   0.000000
     4  O   -0.445356  -0.000000
     5  C   -0.329651  -0.000000
     6  C   -0.177949   0.000000
     7  C    0.694510   0.000000
     8  C   -0.586858  -0.000000
     9  O   -0.618227   0.000000
    10  C    0.360402  -0.000000
    11  C   -0.063637  -0.000000
    12  C   -0.530214   0.000000
    13  C   -0.594398   0.000000
    14  C   -0.009437  -0.000000
    15  C    0.077830   0.000000
    16  C   -0.433571   0.000000
    17  O   -0.641083  -0.000000
    18  C    0.593423  -0.000000
    19  S    0.873958   0.000000
    20  O   -0.306857   0.000000
    21  O   -0.360029  -0.000000
    22  O   -0.494404  -0.000000
    23  H    0.302736  -0.000000
    24  H    0.375500   0.000000
    25  H    0.159885  -0.000000
    26  H    0.137498   0.000000
    27  H    0.155660   0.000000
    28  H    0.153757  -0.000000
    29  H    0.141095  -0.000000
 Sum of Mulliken charges =  -3.00000  -0.00000

 Dipole moment (field-independent basis, Debye):
    X=             -4.0281    Y=              2.9177    Z=             -0.6690  Tot=              5.0186
 Quadrupole moment (field-independent basis, Debye-Ang):
   XX=           -283.6638   YY=           -214.9444   ZZ=           -155.1812
   XY=             26.4984   XZ=             -1.8140   YZ=             -1.9232

 Normal termination of Gaussian 16 at Tue Jan 16 06:44:33 2024.
