 Gaussian 16, Revision A.03,
 Gaussian 16:  ES64L-G16RevA.03 25-Dec-2016

 --------------------------------------
 #P UB3LYP/6-311++G(d,p) nosym opt freq
 --------------------------------------

 --------
 Oxidized
 --------
 Symbolic Z-matrix:
 Charge =  0 Multiplicity = 1

 SCF Done:  E(UB3LYP) =  -763.166690015     A.U. after   16 cycles
 SCF Done:  E(UB3LYP) =  -763.190556143     A.U. after   15 cycles
 SCF Done:  E(UB3LYP) =  -763.196538931     A.U. after   14 cycles
 SCF Done:  E(UB3LYP) =  -763.197618955     A.U. after   13 cycles
 SCF Done:  E(UB3LYP) =  -763.197774914     A.U. after   14 cycles
 SCF Done:  E(UB3LYP) =  -763.197779395     A.U. after   13 cycles
 SCF Done:  E(UB3LYP) =  -763.197854004     A.U. after   11 cycles
 SCF Done:  E(UB3LYP) =  -763.197873894     A.U. after   12 cycles
 SCF Done:  E(UB3LYP) =  -763.197884081     A.U. after   12 cycles
 SCF Done:  E(UB3LYP) =  -763.197888244     A.U. after   11 cycles
 SCF Done:  E(UB3LYP) =  -763.197891585     A.U. after   11 cycles
 SCF Done:  E(UB3LYP) =  -763.197893706     A.U. after   11 cycles
 SCF Done:  E(UB3LYP) =  -763.197894647     A.U. after   11 cycles
 SCF Done:  E(UB3LYP) =  -763.197895503     A.U. after   11 cycles
 SCF Done:  E(UB3LYP) =  -763.197896219     A.U. after   10 cycles
 SCF Done:  E(UB3LYP) =  -763.197896805     A.U. after   10 cycles
 SCF Done:  E(UB3LYP) =  -763.197897239     A.U. after   10 cycles
 SCF Done:  E(UB3LYP) =  -763.197897425     A.U. after   10 cycles
 SCF Done:  E(UB3LYP) =  -763.197897470     A.U. after    9 cycles
 Optimization completed.
    -- Stationary point found.
 Normal termination of Gaussian 16 at Tue Dec 26 21:27:19 2023.

 ----------------------------------------------------------------------
 #P Geom=AllCheck Guess=TCheck SCRF=Check GenChk UB3LYP/6-311++G(d,p) F
 req
 ----------------------------------------------------------------------

 Structure from the checkpoint file:  "262.chk"
 --------
 Oxidized
 --------
 Charge =  0 Multiplicity = 1

                          Input orientation:
 ---------------------------------------------------------------------
 Center     Atomic      Atomic             Coordinates (Angstroms)
 Number     Number       Type             X           Y           Z
 ---------------------------------------------------------------------
      1          6           0        3.667778   -1.364909    0.289964
      2          6           0        2.545717   -0.592992   -0.335230
      3          8           0        2.228750   -0.578487   -1.489644
      4          8           0        1.888958    0.152590    0.629102
      5          6           0        0.702023    0.774897    0.292524
      6          6           0        0.726956    2.163101    0.201667
      7          6           0       -0.440384    2.869489   -0.065400
      8          6           0       -1.639139    2.187406   -0.242267
      9          6           0       -1.671169    0.797726   -0.144785
     10          6           0       -2.987876    0.109879   -0.327041
     11          8           0       -4.009405    0.728209   -0.576632
     12          6           0       -3.014234   -1.361492   -0.186490
     13          6           0       -1.905845   -2.058683    0.088833
     14          6           0       -0.573820   -1.425231    0.258821
     15          8           0        0.390888   -2.134239    0.499464
     16          6           0       -0.496648    0.059789    0.128002
     17          1           0        4.226269   -0.741952    0.990110
     18          1           0        4.322133   -1.751194   -0.488734
     19          1           0        3.232135   -2.195929    0.850323
     20          1           0        1.673349    2.670650    0.342482
     21          1           0       -0.411632    3.950360   -0.138100
     22          1           0       -2.562417    2.711710   -0.453483
     23          1           0       -3.981932   -1.832730   -0.319068
     24          1           0       -1.910454   -3.137966    0.195584
 ---------------------------------------------------------------------

 SCF Done:  E(UB3LYP) =  -763.197897470     A.U. after    2 cycles

 Alpha  occ. eigenvalues --  -19.18706 -19.14001 -19.13898 -19.12728 -10.32027
 Alpha  occ. eigenvalues --  -10.29238 -10.28832 -10.27348 -10.22359 -10.22062
 Alpha  occ. eigenvalues --  -10.22047 -10.21921 -10.21282 -10.21015 -10.20632
 Alpha  occ. eigenvalues --  -10.18691  -1.12988  -1.07268  -1.07048  -1.04717
 Alpha  occ. eigenvalues --   -0.90156  -0.85083  -0.80079  -0.79136  -0.75798
 Alpha  occ. eigenvalues --   -0.71041  -0.67187  -0.66054  -0.63489  -0.56831
 Alpha  occ. eigenvalues --   -0.55079  -0.54684  -0.51721  -0.50667  -0.50248
 Alpha  occ. eigenvalues --   -0.49398  -0.48432  -0.46989  -0.46019  -0.45636
 Alpha  occ. eigenvalues --   -0.44036  -0.43750  -0.42668  -0.42186  -0.41964
 Alpha  occ. eigenvalues --   -0.40359  -0.39613  -0.39080  -0.38128  -0.33928
 Alpha  occ. eigenvalues --   -0.31577  -0.29956  -0.29334  -0.29098  -0.28122
 Alpha  occ. eigenvalues --   -0.27638
 Alpha virt. eigenvalues --   -0.13323  -0.06467  -0.04674  -0.01161  -0.01015
 Alpha virt. eigenvalues --   -0.00147  -0.00066   0.01627   0.01741   0.02491
 Alpha virt. eigenvalues --    0.02740   0.03586   0.04210   0.04665   0.04987

  Beta  occ. eigenvalues --  -19.18706 -19.14001 -19.13898 -19.12728 -10.32027
  Beta  occ. eigenvalues --  -10.29238 -10.28832 -10.27348 -10.22359 -10.22062
  Beta  occ. eigenvalues --  -10.22047 -10.21921 -10.21282 -10.21015 -10.20632
  Beta  occ. eigenvalues --  -10.18691  -1.12988  -1.07268  -1.07048  -1.04717
  Beta  occ. eigenvalues --   -0.90156  -0.85083  -0.80079  -0.79136  -0.75798
  Beta  occ. eigenvalues --   -0.71041  -0.67187  -0.66054  -0.63489  -0.56831
  Beta  occ. eigenvalues --   -0.55079  -0.54684  -0.51721  -0.50667  -0.50248
  Beta  occ. eigenvalues --   -0.49398  -0.48432  -0.46989  -0.46019  -0.45636
  Beta  occ. eigenvalues --   -0.44036  -0.43750  -0.42668  -0.42186  -0.41964
  Beta  occ. eigenvalues --   -0.40359  -0.39613  -0.39080  -0.38128  -0.33928
  Beta  occ. eigenvalues --   -0.31577  -0.29956  -0.29334  -0.29098  -0.28122
  Beta  occ. eigenvalues --   -0.27638
  Beta virt. eigenvalues --   -0.13323  -0.06467  -0.04674  -0.01161  -0.01015
  Beta virt. eigenvalues --   -0.00147  -0.00066   0.01627   0.01741   0.02491
  Beta virt. eigenvalues --    0.02740   0.03586   0.04210   0.04665   0.04987

 Mulliken charges and spin densities:
               1          2
     1  C   -0.478580   0.000000
     2  C   -0.003938  -0.000000
     3  O   -0.198121  -0.000000
     4  O    0.007773   0.000000
     5  C   -0.126588  -0.000000
     6  C    0.227075   0.000000
     7  C   -0.496547   0.000000
     8  C    0.127590  -0.000000
     9  C    0.312869   0.000000
    10  C   -0.464528   0.000000
    11  O   -0.225169  -0.000000
    12  C   -0.009342  -0.000000
    13  C   -0.072951  -0.000000
    14  C   -0.285807   0.000000
    15  O   -0.233171  -0.000000
    16  C    0.377233   0.000000
    17  H    0.165935  -0.000000
    18  H    0.169161  -0.000000
    19  H    0.198706   0.000000
    20  H    0.192484   0.000000
    21  H    0.190323  -0.000000
    22  H    0.190242  -0.000000
    23  H    0.218421   0.000000
    24  H    0.216930  -0.000000
 Sum of Mulliken charges =  -0.00000  -0.00000

 Dipole moment (field-independent basis, Debye):
    X=              1.1265    Y=              0.8375    Z=              1.7509  Tot=              2.2441
 Quadrupole moment (field-independent basis, Debye-Ang):
   XX=            -92.3572   YY=            -80.8679   ZZ=            -97.9018
   XY=              7.6936   XZ=              2.0032   YZ=             -0.0741

  Exact polarizability: 191.678 -12.036 171.135  14.986  -6.113  90.017
 Approx polarizability: 312.789 -39.608 281.514  37.986 -16.326 152.320

                      1                      2                      3
                      A                      A                      A
 Frequencies --     41.5246                59.1633                80.4574
 Red. masses --      7.2611                 6.9958                 3.7551
 Frc consts  --      0.0074                 0.0144                 0.0143
 IR Inten    --      2.2076                 2.8381                 4.7647

                      4                      5                      6
                      A                      A                      A
 Frequencies --     88.8517               104.9465               125.9665
 Red. masses --      3.0199                 1.2966                 7.9510
 Frc consts  --      0.0140                 0.0084                 0.0743
 IR Inten    --      6.8201                 0.6982                 1.8957

                      7                      8                      9
                      A                      A                      A
 Frequencies --    178.5125               253.0423               263.3241
 Red. masses --      5.1904                 4.9197                 8.8344
 Frc consts  --      0.0975                 0.1856                 0.3609
 IR Inten    --      0.0409                 0.0977                 1.1047

                     10                     11                     12
                      A                      A                      A
 Frequencies --    273.1580               307.0013               367.3789
 Red. masses --      5.2445                 3.8019                 8.8435
 Frc consts  --      0.2306                 0.2111                 0.7032
 IR Inten    --      0.3317                 2.8068                 5.5481

                     13                     14                     15
                      A                      A                      A
 Frequencies --    411.1956               448.2457               465.3112
 Red. masses --      7.8438                11.0224                 5.9071
 Frc consts  --      0.7814                 1.3048                 0.7536
 IR Inten    --      9.6935                 8.4146                 2.0906

                     16                     17                     18
                      A                      A                      A
 Frequencies --    471.2128               514.3925               534.3883
 Red. masses --      4.0381                 4.6088                 5.8652
 Frc consts  --      0.5283                 0.7185                 0.9868
 IR Inten    --      0.1875                 2.1764                13.0120

                     19                     20                     21
                      A                      A                      A
 Frequencies --    573.8301               603.3949               621.0633
 Red. masses --      3.0137                 5.5304                 3.4728
 Frc consts  --      0.5847                 1.1864                 0.7892
 IR Inten    --      9.1831                 7.9263                 0.6857

                     22                     23                     24
                      A                      A                      A
 Frequencies --    626.7358               672.5867               723.1947
 Red. masses --      2.9725                 5.9006                 3.7549
 Frc consts  --      0.6879                 1.5727                 1.1571
 IR Inten    --      0.9473                 7.0619                22.8676

                     25                     26                     27
                      A                      A                      A
 Frequencies --    763.2679               778.6338               781.0584
 Red. masses --      6.6671                 2.5360                 6.2483
 Frc consts  --      2.2884                 0.9059                 2.2459
 IR Inten    --      2.2658                17.8316                 3.3041

                     28                     29                     30
                      A                      A                      A
 Frequencies --    818.4941               872.9269               876.4313
 Red. masses --      2.5036                 2.0276                 3.9713
 Frc consts  --      0.9882                 0.9103                 1.7973
 IR Inten    --     14.5698                27.3964                54.1222

                     31                     32                     33
                      A                      A                      A
 Frequencies --    946.3155               958.8054              1008.9774
 Red. masses --      2.5167                 2.2725                 1.3265
 Frc consts  --      1.3279                 1.2309                 0.7956
 IR Inten    --     16.0512                24.2768                 0.4497

                     34                     35                     36
                      A                      A                      A
 Frequencies --   1017.1476              1017.8365              1055.8078
 Red. masses --      2.0471                 1.2802                 3.7004
 Frc consts  --      1.2478                 0.7814                 2.4303
 IR Inten    --    105.1297                 5.5185                25.8041

                     37                     38                     39
                      A                      A                      A
 Frequencies --   1061.6657              1103.2581              1118.1705
 Red. masses --      1.7974                 1.6399                 2.3795
 Frc consts  --      1.1936                 1.1760                 1.7529
 IR Inten    --      3.3376                12.8453                70.0208

                     40                     41                     42
                      A                      A                      A
 Frequencies --   1175.1150              1190.9176              1196.9258
 Red. masses --      1.4573                 2.6375                 1.4828
 Frc consts  --      1.1856                 2.2040                 1.2516
 IR Inten    --     67.5593               481.4644                23.7148

                     43                     44                     45
                      A                      A                      A
 Frequencies --   1261.3547              1282.0737              1307.5884
 Red. masses --      2.7020                 3.5499                 3.1785
 Frc consts  --      2.5329                 3.4379                 3.2020
 IR Inten    --     17.0579                43.4635               181.2290

                     46                     47                     48
                      A                      A                      A
 Frequencies --   1353.3592              1391.3877              1395.9667
 Red. masses --      7.9634                 1.8035                 1.3201
 Frc consts  --      8.5936                 2.0572                 1.5156
 IR Inten    --     44.8499                 2.3210                68.2843

                     49                     50                     51
                      A                      A                      A
 Frequencies --   1465.9529              1472.8597              1475.1716
 Red. masses --      3.7364                 1.0500                 1.0638
 Frc consts  --      4.7310                 1.3421                 1.3640
 IR Inten    --     20.8833                14.5088                 8.5432

                     52                     53                     54
                      A                      A                      A
 Frequencies --   1488.1133              1605.1441              1627.1829
 Red. masses --      2.5380                 6.5561                 6.4063
 Frc consts  --      3.3115                 9.9523                 9.9938
 IR Inten    --      6.2108                 6.3889                91.3455

                     55                     56                     57
                      A                      A                      A
 Frequencies --   1670.3801              1719.0567              1727.4848
 Red. masses --      8.3864                10.5037                11.1148
 Frc consts  --     13.7866                18.2882                19.5426
 IR Inten    --     33.3483               178.7174               288.8057

                     58                     59                     60
                      A                      A                      A
 Frequencies --   1834.1682              3053.5643              3119.1010
 Red. masses --     11.8421                 1.0358                 1.0994
 Frc consts  --     23.4724                 5.6902                 6.3019
 IR Inten    --    230.7481                 1.5699                 3.4746

                     61                     62                     63
                      A                      A                      A
 Frequencies --   3157.1505              3175.2039              3180.3997
 Red. masses --      1.1041                 1.0872                 1.0882
 Frc consts  --      6.4843                 6.4583                 6.4851
 IR Inten    --      6.3555                 0.7495                 4.7892

                     64                     65                     66
                      A                      A                      A
 Frequencies --   3192.8695              3198.6287              3206.0970
 Red. masses --      1.0990                 1.0928                 1.0949
 Frc consts  --      6.6008                 6.5878                 6.6308
 IR Inten    --      4.0066                 1.4102                 3.8785

 - Thermochemistry -
 -------------------
 Temperature   298.150 Kelvin.  Pressure   1.00000 Atm.
 Atom     1 has atomic number  6 and mass  12.00000

 Molecular mass:   216.04226 amu.
 Principal axes and moments of inertia in atomic units:
                           1         2         3
     Eigenvalues --  1885.335724032.298585502.07959
           X            0.98118   0.18983  -0.03525
           Y           -0.18856   0.98139   0.03641
           Z            0.04151  -0.02908   0.99871
 This molecule is an asymmetric top.
 Rotational symmetry number  1.
 Warning -- assumption of classical behavior for rotation
           may cause significant error
 Rotational temperatures (Kelvin)      0.04594     0.02148     0.01574
 Rotational constants (GHZ):           0.95725     0.44757     0.32801
 Zero-point vibrational energy     454048.0 (Joules/Mol)
                                  108.52007 (Kcal/Mol)
 Warning -- explicit consideration of  20 degrees of freedom as
           vibrations may cause significant error
 Vibrational temperatures:     59.74    85.12   115.76   127.84   150.99
          (Kelvin)            181.24   256.84   364.07   378.86   393.01
                              441.71   528.58   591.62   644.93   669.48
                              677.97   740.10   768.87   825.61   868.15
                              893.57   901.73   967.70  1040.52  1098.17
                             1120.28  1123.77  1177.63  1255.95  1260.99
                             1361.54  1379.51  1451.69  1463.45  1464.44
                             1519.07  1527.50  1587.34  1608.80  1690.73
                             1713.46  1722.11  1814.81  1844.62  1881.33
                             1947.18  2001.90  2008.48  2109.18  2119.12
                             2122.44  2141.06  2309.44  2341.15  2403.30
                             2473.34  2485.47  2638.96  4393.40  4487.69
                             4542.44  4568.41  4575.89  4593.83  4602.11
                             4612.86

 Zero-point correction=                           0.172938 (Hartree/Particle)
 Thermal correction to Energy=                    0.186362
 Thermal correction to Enthalpy=                  0.187306
 Thermal correction to Gibbs Free Energy=         0.131926
 Sum of electronic and zero-point Energies=           -763.024960
 Sum of electronic and thermal Energies=              -763.011536
 Sum of electronic and thermal Enthalpies=            -763.010591
 Sum of electronic and thermal Free Energies=         -763.065971

                     E (Thermal)             CV                S
                      KCal/Mol        Cal/Mol-Kelvin    Cal/Mol-Kelvin
 Total                  116.944             50.489            116.557
 Electronic               0.000              0.000              0.000
 Translational            0.889              2.981             42.014
 Rotational               0.889              2.981             32.103
 Vibrational            115.166             44.528             42.440
 Vibration     1          0.594              1.981              5.185
 Vibration     2          0.597              1.974              4.485
 Vibration     3          0.600              1.962              3.880
 Vibration     4          0.602              1.957              3.685
 Vibration     5          0.605              1.945              3.360
 Vibration     6          0.611              1.927              3.007
 Vibration     7          0.629              1.869              2.344
 Vibration     8          0.664              1.758              1.709
 Vibration     9          0.670              1.740              1.640
 Vibration    10          0.676              1.723              1.576
 Vibration    11          0.697              1.660              1.378
 Vibration    12          0.740              1.539              1.091
 Vibration    13          0.775              1.446              0.922
 Vibration    14          0.807              1.365              0.801
 Vibration    15          0.823              1.327              0.751
 Vibration    16          0.828              1.314              0.734
 Vibration    17          0.869              1.218              0.623
 Vibration    18          0.889              1.174              0.577
 Vibration    19          0.930              1.088              0.497
 Vibration    20          0.962              1.025              0.444

 Optimization completed.
    -- Stationary point found.
 Normal termination of Gaussian 16 at Tue Dec 26 22:05:39 2023.
