 Q-Chem 5.4, Q-Chem, Inc., Pleasanton, CA (2021)
 Q-Chem 5.4.0 for Intel X86 EM64T Linux

User input:
--------------------------------------------------------------
$molecule
0 1
N                 -2.0456860000      2.8801660000     -0.0883530000
C                 -2.0377600000      1.5257130000      0.0522310000
C                 -3.2843700000      0.8427390000      0.1114520000
C                 -3.3532980000     -0.5145160000      0.2213450000
C                 -2.1823080000     -1.3200980000      0.2826760000
N                 -2.3277970000     -2.6719750000      0.3602780000
C                 -0.9243060000     -0.6755520000      0.2407580000
C                  0.2969380000     -1.4800520000      0.3319850000
O                  0.2764240000     -2.7162810000      0.4363400000
C                  1.6064160000     -0.7795680000      0.3015960000
C                  2.7859520000     -1.5301670000      0.3871600000
C                  4.0201980000     -0.8961770000      0.3597670000
C                  4.0910110000      0.4970130000      0.2462290000
C                  2.9271900000      1.2481910000      0.1607870000
C                  1.6773470000      0.6163450000      0.1878950000
C                  0.4453470000      1.4408390000      0.0945480000
O                  0.5503810000      2.6734640000     -0.0017770000
C                 -0.8513590000      0.7593660000      0.1244100000
H                 -1.1543440000      3.3621270000     -0.0616120000
H                 -2.9134610000      3.3831610000     -0.0191680000
H                 -4.1987740000      1.4254220000      0.0607620000
H                 -4.3221100000     -1.0027090000      0.2573050000
H                 -3.2408450000     -3.0667930000      0.5064250000
H                 -1.4893980000     -3.2302810000      0.4737270000
H                  2.7054860000     -2.6062810000      0.4737440000
H                  4.9306050000     -1.4813660000      0.4261940000
H                  5.0562460000      0.9905350000      0.2247070000
H                  2.9562730000      2.3267350000      0.0719150000
$end
$rem
MAX_SCF_CYCLES=200
BASIS  =  6-311++G(d,p)
GUI  =  2
JOB_TYPE  =  SP
METHOD  =  B3LYP
SOLVENT_METHOD = PCM
$end
$pcm
theory = CPCM
$end
$solvent
dielectric 37.219
opticaldielectric 1.43
$end

--------------------------------------------------------------

             Standard Nuclear Orientation (Angstroms)
    I     Atom           X                Y                Z
 ----------------------------------------------------------------
    1      N      -2.0456860000     2.8801660000    -0.0883530000
    2      C      -2.0377600000     1.5257130000     0.0522310000
    3      C      -3.2843700000     0.8427390000     0.1114520000
    4      C      -3.3532980000    -0.5145160000     0.2213450000
    5      C      -2.1823080000    -1.3200980000     0.2826760000
    6      N      -2.3277970000    -2.6719750000     0.3602780000
    7      C      -0.9243060000    -0.6755520000     0.2407580000
    8      C       0.2969380000    -1.4800520000     0.3319850000
    9      O       0.2764240000    -2.7162810000     0.4363400000
   10      C       1.6064160000    -0.7795680000     0.3015960000
   11      C       2.7859520000    -1.5301670000     0.3871600000
   12      C       4.0201980000    -0.8961770000     0.3597670000
   13      C       4.0910110000     0.4970130000     0.2462290000
   14      C       2.9271900000     1.2481910000     0.1607870000
   15      C       1.6773470000     0.6163450000     0.1878950000
   16      C       0.4453470000     1.4408390000     0.0945480000
   17      O       0.5503810000     2.6734640000    -0.0017770000
   18      C      -0.8513590000     0.7593660000     0.1244100000
   19      H      -1.1543440000     3.3621270000    -0.0616120000
   20      H      -2.9134610000     3.3831610000    -0.0191680000
   21      H      -4.1987740000     1.4254220000     0.0607620000
   22      H      -4.3221100000    -1.0027090000     0.2573050000
   23      H      -3.2408450000    -3.0667930000     0.5064250000
   24      H      -1.4893980000    -3.2302810000     0.4737270000
   25      H       2.7054860000    -2.6062810000     0.4737440000
   26      H       4.9306050000    -1.4813660000     0.4261940000
   27      H       5.0562460000     0.9905350000     0.2247070000
   28      H       2.9562730000     2.3267350000     0.0719150000
 ----------------------------------------------------------------

    9    -799.7384610247      2.81e-06  Convergence criterion met
 Total energy in the final basis set =     -799.7384610247

                    Orbital Energies (a.u.)
 --------------------------------------------------------------

 Alpha MOs
 -- Occupied --
-19.1126 -19.1125 -14.3296 -14.3296 -10.2656 -10.2656 -10.2404 -10.2403
-10.1973 -10.1967 -10.1955 -10.1948 -10.1933 -10.1929 -10.1897 -10.1892
-10.1877 -10.1877  -1.0475  -1.0455  -0.9431  -0.9327  -0.8806  -0.8472
 -0.8036  -0.7693  -0.7639  -0.7395  -0.6816  -0.6605  -0.6474  -0.6089
 -0.5864  -0.5700  -0.5626  -0.5362  -0.5207  -0.5000  -0.4996  -0.4814
 -0.4719  -0.4608  -0.4493  -0.4437  -0.4414  -0.4363  -0.4226  -0.4103
 -0.4090  -0.4034  -0.3887  -0.3697  -0.3654  -0.3624  -0.3591  -0.2908
 -0.2797  -0.2753  -0.2707  -0.2682  -0.2644  -0.1998

          Ground-State Mulliken Net Atomic Charges

     Atom                 Charge (a.u.)
  ----------------------------------------
      1 N                    -0.448229
      2 C                    -0.012940
      3 C                    -0.327829
      4 C                    -0.327755
      5 C                    -0.014733
      6 N                    -0.446779
      7 C                     0.490227
      8 C                    -0.331156
      9 O                    -0.370422
     10 C                     0.142322
     11 C                     0.134693
     12 C                    -0.575759
     13 C                    -0.577213
     14 C                     0.133007
     15 C                     0.145216
     16 C                    -0.331273
     17 O                    -0.370440
     18 C                     0.488053
     19 H                     0.344233
     20 H                     0.319436
     21 H                     0.225835
     22 H                     0.225709
     23 H                     0.318550
     24 H                     0.344067
     25 H                     0.197887
     26 H                     0.213586
     27 H                     0.213357
     28 H                     0.198348
  ----------------------------------------
  Sum of atomic charges =     0.000000

                    Cartesian Multipole Moments
 -----------------------------------------------------------------
    Charge (ESU x 10^10)
                 0.0000
    Dipole Moment (Debye)
         X      -5.1636      Y       0.3210      Z       0.6070
       Tot       5.2090
    Quadrupole Moments (Debye-Ang)
        XX     -62.8199     XY      -2.1250     YY    -102.5908
        XZ      -2.0723     YZ      -0.4895     ZZ    -109.3221

 Total job time:  185.16s(wall), 359.98s(cpu)
        *  Thank you very much for using Q-Chem.  Have a nice day.  *
