 Q-Chem 5.4, Q-Chem, Inc., Pleasanton, CA (2021)
 Q-Chem 5.4.0 for Intel X86 EM64T Linux

User input:
--------------------------------------------------------------
$molecule
-2 1
O                  0.1069160000      0.5411320000      2.6777500000
C                  0.0731640000      0.3467090000      1.3854450000
C                 -1.1829820000      0.1879050000      0.7009160000
C                 -2.4332270000      0.2080270000      1.3940780000
C                 -3.6235450000      0.0438950000      0.6956350000
C                 -3.6324410000     -0.1819180000     -0.6939120000
C                 -2.4149240000     -0.2345780000     -1.3812290000
C                 -1.2283970000     -0.0418740000     -0.6882300000
O                 -0.0708080000     -0.0260980000     -1.4524250000
C                  1.1664970000     -0.0537450000     -0.8104130000
C                  2.2755960000     -0.2509070000     -1.6072150000
C                  3.5717770000     -0.2125720000     -1.0380260000
C                  3.6921230000     -0.0276690000      0.3401330000
C                  2.5681460000      0.1337340000      1.1476450000
C                  1.2546730000      0.1679800000      0.5920670000
O                 -2.4262880000      0.4175820000      2.7422980000
H                 -4.5584830000      0.0991000000      1.2454860000
H                 -4.5610570000     -0.2983240000     -1.2415080000
O                 -2.3939940000     -0.4386290000     -2.7557500000
H                  2.1372370000     -0.3927040000     -2.6752810000
H                  4.4486390000     -0.3291100000     -1.6687240000
H                  4.6835690000     -0.0108370000      0.7909100000
H                  2.6549190000      0.2602930000      2.2203010000
H                 -1.4315200000      0.5048120000      2.9662340000
H                 -1.4627150000     -0.4193620000     -3.0143640000
$end

$rem
BASIS  =  6-311++G(d,p)
GUI  =  2
JOB_TYPE  =  SP
METHOD  =  B3LYP
SCF_CONVERGENCE  = 8
SOLVENT_METHOD = sm12
$end

$smx
solvent dimethylformamide
charges CM5
$end

--------------------------------------------------------------

             Standard Nuclear Orientation (Angstroms)
    I     Atom           X                Y                Z
 ----------------------------------------------------------------
    1      O       0.1069160000     0.5411320000     2.6777500000
    2      C       0.0731640000     0.3467090000     1.3854450000
    3      C      -1.1829820000     0.1879050000     0.7009160000
    4      C      -2.4332270000     0.2080270000     1.3940780000
    5      C      -3.6235450000     0.0438950000     0.6956350000
    6      C      -3.6324410000    -0.1819180000    -0.6939120000
    7      C      -2.4149240000    -0.2345780000    -1.3812290000
    8      C      -1.2283970000    -0.0418740000    -0.6882300000
    9      O      -0.0708080000    -0.0260980000    -1.4524250000
   10      C       1.1664970000    -0.0537450000    -0.8104130000
   11      C       2.2755960000    -0.2509070000    -1.6072150000
   12      C       3.5717770000    -0.2125720000    -1.0380260000
   13      C       3.6921230000    -0.0276690000     0.3401330000
   14      C       2.5681460000     0.1337340000     1.1476450000
   15      C       1.2546730000     0.1679800000     0.5920670000
   16      O      -2.4262880000     0.4175820000     2.7422980000
   17      H      -4.5584830000     0.0991000000     1.2454860000
   18      H      -4.5610570000    -0.2983240000    -1.2415080000
   19      O      -2.3939940000    -0.4386290000    -2.7557500000
   20      H       2.1372370000    -0.3927040000    -2.6752810000
   21      H       4.4486390000    -0.3291100000    -1.6687240000
   22      H       4.6835690000    -0.0108370000     0.7909100000
   23      H       2.6549190000     0.2602930000     2.2203010000
   24      H      -1.4315200000     0.5048120000     2.9662340000
   25      H      -1.4627150000    -0.4193620000    -3.0143640000
 ----------------------------------------------------------------

   21    -800.9330868435      3.27e-09  Convergence criterion met
 Total energy in the final basis set =     -801.5993863171

                    Orbital Energies (a.u.)
 --------------------------------------------------------------

 Alpha MOs
 -- Occupied --
-19.3306 -19.2296 -19.2231 -19.2208 -10.4216 -10.3899 -10.3872 -10.3853
-10.3769 -10.3641 -10.3639 -10.3516 -10.3379 -10.3271 -10.3010 -10.2769
-10.2587  -1.2406  -1.1448  -1.1356  -1.1120  -1.0484  -0.9671  -0.9541
 -0.9412  -0.8836  -0.8448  -0.8202  -0.8019  -0.7645  -0.7315  -0.7185
 -0.6950  -0.6705  -0.6620  -0.6350  -0.6274  -0.6126  -0.6064  -0.6048
 -0.5711  -0.5659  -0.5564  -0.5514  -0.5483  -0.5219  -0.5119  -0.4933
 -0.4917  -0.4849  -0.4656  -0.4537  -0.4489  -0.4397  -0.4259  -0.4231
 -0.3912  -0.3760  -0.3516  -0.2967

          Ground-State Mulliken Net Atomic Charges

     Atom                 Charge (a.u.)
  ----------------------------------------
      1 O                    -0.187433
      2 C                     1.915047
      3 C                     4.513499
      4 C                     1.345919
      5 C                     5.374752
      6 C                     3.904312
      7 C                     2.067836
      8 C                     1.680860
      9 O                     0.333138
     10 C                     0.440991
     11 C                    -0.098899
     12 C                     2.036059
     13 C                   -11.394808
     14 C                    -8.588570
     15 C                     5.198908
     16 O                    -0.359204
     17 H                     0.579528
     18 H                     0.638620
     19 O                    -0.176267
     20 H                     0.984006
     21 H                     2.257559
     22 H                   -17.311996
     23 H                     2.049019
     24 H                     0.480875
     25 H                     0.316249
  ----------------------------------------
  Sum of atomic charges =    -2.000000

                    Cartesian Multipole Moments
 -----------------------------------------------------------------
    Charge (ESU x 10^10)
                -9.6064
    Dipole Moment (Debye)
         X     -71.7045      Y      -0.9533      Z     -20.0962
       Tot      74.4734
    Quadrupole Moments (Debye-Ang)
        XX    -558.2599     XY      -2.0286     YY    -148.4370
        XZ    -108.2578     YZ       0.2121     ZZ    -164.2383

 Total job time:  697.28s(wall), 5413.78s(cpu)
        *  Thank you very much for using Q-Chem.  Have a nice day.  *
