 Q-Chem 5.4, Q-Chem, Inc., Pleasanton, CA (2021)
 Q-Chem 5.4.0 for Intel X86 EM64T Linux

User input:
--------------------------------------------------------------
$molecule
-1 2
C                  3.4627750000      2.7240000000      0.3548920000
C                  2.7733010000      1.3960090000      0.2019860000
C                  1.4049950000      1.2874100000      0.1469050000
C                  0.7214610000      0.0417300000      0.0243960000
C                  1.5517480000     -1.1157160000     -0.0455400000
C                  2.9239320000     -1.0645500000     -0.0054400000
C                  3.7718110000     -2.3028850000     -0.1049690000
C                  3.6154170000      0.2104370000      0.1249120000
O                  4.8714130000      0.2836360000      0.1685450000
C                 -0.7213780000     -0.0422740000     -0.0255720000
C                 -1.4165420000     -1.2738360000      0.1586270000
C                 -2.7855630000     -1.3812850000      0.1220940000
C                 -3.4892780000     -2.6919940000      0.3435990000
C                 -3.6154810000     -0.2102390000     -0.1243240000
O                 -4.8714920000     -0.2831030000     -0.1669720000
C                 -2.9116390000      1.0497660000     -0.3187180000
C                 -1.5400770000      1.1013300000     -0.2618230000
C                 -3.7453490000      2.2712480000     -0.5928030000
H                  4.0853520000      2.7411740000      1.2558580000
H                  2.7387180000      3.5418350000      0.4100630000
H                  4.1436040000      2.9104010000     -0.4826050000
H                  0.8218040000      2.1980890000      0.2333190000
H                  1.0855940000     -2.0875770000     -0.1684270000
H                  3.1531790000     -3.1990160000     -0.2069210000
H                  4.4530740000     -2.2439380000     -0.9605640000
H                  4.4100100000     -2.4124660000      0.7784190000
H                 -0.8446270000     -2.1710670000      0.3702830000
H                 -4.1764070000     -2.6293530000      1.1942380000
H                 -4.1074650000     -2.9555490000     -0.5213060000
H                 -2.7742770000     -3.4993230000      0.5256690000
H                 -1.0625830000      2.0594050000     -0.4378850000
H                 -3.1176140000      3.1563370000     -0.7296170000
H                 -4.3616230000      2.1327470000     -1.4876070000
H                 -4.4467920000      2.4586170000      0.2272880000
$end

$rem
BASIS  =  6-311++G(d,p)
GUI  =  2
JOB_TYPE  =  SP
METHOD  =  B3LYP
SCF_CONVERGENCE  = 8
SOLVENT_METHOD = sm12
$end

$smx
solvent dimethylformamide
charges CM5
$end

--------------------------------------------------------------

             Standard Nuclear Orientation (Angstroms)
    I     Atom           X                Y                Z
 ----------------------------------------------------------------
    1      C       3.4627750000     2.7240000000     0.3548920000
    2      C       2.7733010000     1.3960090000     0.2019860000
    3      C       1.4049950000     1.2874100000     0.1469050000
    4      C       0.7214610000     0.0417300000     0.0243960000
    5      C       1.5517480000    -1.1157160000    -0.0455400000
    6      C       2.9239320000    -1.0645500000    -0.0054400000
    7      C       3.7718110000    -2.3028850000    -0.1049690000
    8      C       3.6154170000     0.2104370000     0.1249120000
    9      O       4.8714130000     0.2836360000     0.1685450000
   10      C      -0.7213780000    -0.0422740000    -0.0255720000
   11      C      -1.4165420000    -1.2738360000     0.1586270000
   12      C      -2.7855630000    -1.3812850000     0.1220940000
   13      C      -3.4892780000    -2.6919940000     0.3435990000
   14      C      -3.6154810000    -0.2102390000    -0.1243240000
   15      O      -4.8714920000    -0.2831030000    -0.1669720000
   16      C      -2.9116390000     1.0497660000    -0.3187180000
   17      C      -1.5400770000     1.1013300000    -0.2618230000
   18      C      -3.7453490000     2.2712480000    -0.5928030000
   19      H       4.0853520000     2.7411740000     1.2558580000
   20      H       2.7387180000     3.5418350000     0.4100630000
   21      H       4.1436040000     2.9104010000    -0.4826050000
   22      H       0.8218040000     2.1980890000     0.2333190000
   23      H       1.0855940000    -2.0875770000    -0.1684270000
   24      H       3.1531790000    -3.1990160000    -0.2069210000
   25      H       4.4530740000    -2.2439380000    -0.9605640000
   26      H       4.4100100000    -2.4124660000     0.7784190000
   27      H      -0.8446270000    -2.1710670000     0.3702830000
   28      H      -4.1764070000    -2.6293530000     1.1942380000
   29      H      -4.1074650000    -2.9555490000    -0.5213060000
   30      H      -2.7742770000    -3.4993230000     0.5256690000
   31      H      -1.0625830000     2.0594050000    -0.4378850000
   32      H      -3.1176140000     3.1563370000    -0.7296170000
   33      H      -4.3616230000     2.1327470000    -1.4876070000
   34      H      -4.4467920000     2.4586170000     0.2272880000
 ----------------------------------------------------------------

   17    -770.0710412066      2.52e-09  Convergence criterion met
 Total energy in the final basis set =     -770.1499710110

                    Orbital Energies (a.u.)
 --------------------------------------------------------------

 Alpha MOs
 -- Occupied --
-19.0763 -19.0763 -10.2223 -10.2223 -10.1887 -10.1883 -10.1767 -10.1767
-10.1766 -10.1766 -10.1753 -10.1753 -10.1753 -10.1753 -10.1660 -10.1660
-10.1660 -10.1660  -1.0001  -1.0001  -0.8663  -0.8393  -0.7889  -0.7855
 -0.7742  -0.7265  -0.6941  -0.6855  -0.6768  -0.6615  -0.6047  -0.5865
 -0.5644  -0.5574  -0.5046  -0.5006  -0.4653  -0.4524  -0.4499  -0.4361
 -0.4331  -0.4195  -0.4174  -0.4120  -0.4119  -0.4084  -0.4021  -0.4019
 -0.4018  -0.3826  -0.3763  -0.3706  -0.3678  -0.3649  -0.3569  -0.3545
 -0.3493  -0.3368  -0.3103  -0.2565  -0.2506  -0.2398  -0.2365  -0.2230
 -0.1680

 Beta MOs
 -- Occupied --
-19.0713 -19.0713 -10.2219 -10.2219 -10.1868 -10.1865 -10.1757 -10.1757
-10.1757 -10.1756 -10.1750 -10.1750 -10.1750 -10.1750 -10.1661 -10.1661
-10.1661 -10.1661  -0.9916  -0.9916  -0.8624  -0.8357  -0.7873  -0.7839
 -0.7700  -0.7239  -0.6935  -0.6838  -0.6764  -0.6564  -0.6024  -0.5842
 -0.5619  -0.5550  -0.5029  -0.4993  -0.4637  -0.4495  -0.4480  -0.4303
 -0.4276  -0.4190  -0.4162  -0.4107  -0.4106  -0.4068  -0.4014  -0.4005
 -0.3993  -0.3822  -0.3715  -0.3681  -0.3654  -0.3557  -0.3541  -0.3480
 -0.3379  -0.3344  -0.2938  -0.2530  -0.2466  -0.2351  -0.2319  -0.1973

          Ground-State Mulliken Net Atomic Charges

     Atom                 Charge (a.u.)    Spin (a.u.)
  --------------------------------------------------------
      1 C                     0.623576      -0.000564
      2 C                     0.271079       0.086972
      3 C                    -0.505464      -0.018156
      4 C                     0.592285       0.172353
      5 C                    -0.505840      -0.018287
      6 C                     0.274892       0.087020
      7 C                     0.626685      -0.000560
      8 C                    -2.907093      -0.010733
      9 O                    -0.340563       0.187002
     10 C                     0.602497       0.172781
     11 C                    -0.503386      -0.018240
     12 C                     0.271034       0.087174
     13 C                     0.625345      -0.000586
     14 C                    -2.903458      -0.010869
     15 O                    -0.340358       0.187134
     16 C                     0.275182       0.087196
     17 C                    -0.503495      -0.018425
     18 C                     0.627703      -0.000568
     19 H                     0.176763       0.003983
     20 H                     0.240555      -0.000173
     21 H                     0.183093       0.004535
     22 H                     0.079094      -0.001006
     23 H                     0.078862      -0.001031
     24 H                     0.240647      -0.000174
     25 H                     0.176781       0.003977
     26 H                     0.183084       0.004551
     27 H                     0.079141      -0.000994
     28 H                     0.176865       0.003989
     29 H                     0.183119       0.004548
     30 H                     0.240485      -0.000172
     31 H                     0.080133      -0.001037
     32 H                     0.240776      -0.000173
     33 H                     0.176896       0.003988
     34 H                     0.183086       0.004547
  --------------------------------------------------------
  Sum of atomic charges =    -1.000000

                    Cartesian Multipole Moments
 -----------------------------------------------------------------
    Charge (ESU x 10^10)
                -4.8032
    Dipole Moment (Debye)
         X      -0.0066      Y       0.0002      Z      -0.0023
       Tot       0.0070
    Quadrupole Moments (Debye-Ang)
        XX    -214.3018     XY      -6.1794     YY    -108.3131
        XZ      -3.4152     YZ      -0.5154     ZZ    -114.6227

 Total job time:  1062.78s(wall), 8022.97s(cpu)
        *  Thank you very much for using Q-Chem.  Have a nice day.  *
