 Gaussian 16, Revision A.03,
 Gaussian 16:  ES64L-G16RevA.03 25-Dec-2016

 ----------------------------------------------------------------------
 #P UB3LYP/6-311++G(d,p) nosym opt freq SCRF=(PCM,Solvent=n,n-DiMethylF
 ormamide)
 ----------------------------------------------------------------------

 -------
 Radical
 -------
 Symbolic Z-matrix:
 Charge = -1 Multiplicity = 2

 SCF Done:  E(UB3LYP) =  -574.739199027     A.U. after   19 cycles
 SCF Done:  E(UB3LYP) =  -574.739444045     A.U. after   16 cycles
 SCF Done:  E(UB3LYP) =  -574.739471245     A.U. after   14 cycles
 SCF Done:  E(UB3LYP) =  -574.739474506     A.U. after   12 cycles
 Optimization completed.
    -- Stationary point found.
 Normal termination of Gaussian 16 at Sun Feb 11 01:00:40 2024.

 ----------------------------------------------------------------------
 #P Geom=AllCheck Guess=TCheck SCRF=Check GenChk UB3LYP/6-311++G(d,p) F
 req
 ----------------------------------------------------------------------

 Structure from the checkpoint file:  "236-rad.chk"
 -------
 Radical
 -------
 Charge = -1 Multiplicity = 2

                          Input orientation:
 ---------------------------------------------------------------------
 Center     Atomic      Atomic             Coordinates (Angstroms)
 Number     Number       Type             X           Y           Z
 ---------------------------------------------------------------------
      1          6           0       -3.239598    0.060489    1.000109
      2          6           0       -1.889596   -0.005164    0.337141
      3          6           0       -1.772339   -0.225451   -1.022542
      4          6           0       -0.525844   -0.303186   -1.723490
      5          8           0       -0.463907   -0.508314   -2.974632
      6          6           0        0.686957   -0.129467   -0.909572
      7          6           0        1.960984   -0.188434   -1.508838
      8          6           0        3.112266   -0.026145   -0.757952
      9          6           0        3.017650    0.202910    0.627593
     10          6           0        1.775579    0.264370    1.235009
     11          6           0        0.589561    0.100168    0.489592
     12          6           0       -0.717060    0.167941    1.163360
     13          8           0       -0.804331    0.372345    2.411972
     14          1           0       -4.041307   -0.079587    0.272225
     15          1           0       -3.338049   -0.706419    1.775373
     16          1           0       -3.389566    1.023022    1.500027
     17          1           0       -2.669908   -0.352685   -1.622643
     18          1           0        2.015111   -0.364733   -2.576608
     19          1           0        4.085585   -0.074453   -1.234389
     20          1           0        3.918656    0.331337    1.217965
     21          1           0        1.689154    0.441453    2.300295
 ---------------------------------------------------------------------

 SCF Done:  E(UB3LYP) =  -574.739474506     A.U. after    2 cycles

 Alpha  occ. eigenvalues --  -19.07396 -19.07328 -10.21887 -10.21761 -10.17243
 Alpha  occ. eigenvalues --  -10.17234 -10.17183 -10.17163 -10.17122 -10.16958
 Alpha  occ. eigenvalues --  -10.16923 -10.15690 -10.15670  -0.99512  -0.99193
 Alpha  occ. eigenvalues --   -0.85669  -0.80968  -0.75333  -0.74878  -0.69912
 Alpha  occ. eigenvalues --   -0.65890  -0.61438  -0.59345  -0.55468  -0.50731
 Alpha  occ. eigenvalues --   -0.49536  -0.46402  -0.44741  -0.42617  -0.42517
 Alpha  occ. eigenvalues --   -0.41821  -0.41049  -0.39539  -0.38936  -0.38172
 Alpha  occ. eigenvalues --   -0.36963  -0.36917  -0.34728  -0.34589  -0.33562
 Alpha  occ. eigenvalues --   -0.27069  -0.25584  -0.24660  -0.24216  -0.23553
 Alpha  occ. eigenvalues --   -0.15171
 Alpha virt. eigenvalues --   -0.03321  -0.01431  -0.00278   0.00666   0.01470
 Alpha virt. eigenvalues --    0.02706   0.02828   0.03756   0.04848   0.04865
 Alpha virt. eigenvalues --    0.05229   0.05639   0.05767   0.06853   0.07521

  Beta  occ. eigenvalues --  -19.06763 -19.06709 -10.21732 -10.21582 -10.17205
  Beta  occ. eigenvalues --  -10.17197 -10.17149 -10.17109 -10.16956 -10.16953
  Beta  occ. eigenvalues --  -10.16913 -10.15702 -10.15550  -0.98407  -0.98078
  Beta  occ. eigenvalues --   -0.85466  -0.80471  -0.75135  -0.74706  -0.69529
  Beta  occ. eigenvalues --   -0.65179  -0.61247  -0.59073  -0.55203  -0.50518
  Beta  occ. eigenvalues --   -0.49256  -0.46124  -0.44618  -0.42454  -0.41670
  Beta  occ. eigenvalues --   -0.41617  -0.40510  -0.38801  -0.38670  -0.38013
  Beta  occ. eigenvalues --   -0.36771  -0.34580  -0.34423  -0.33540  -0.33408
  Beta  occ. eigenvalues --   -0.24937  -0.24463  -0.23873  -0.23632  -0.22980
  Beta virt. eigenvalues --   -0.08487  -0.02575  -0.00329  -0.00259   0.00670
  Beta virt. eigenvalues --    0.01486   0.02715   0.02838   0.03883   0.04876
  Beta virt. eigenvalues --    0.05240   0.05650   0.05678   0.06332   0.07428

 Mulliken charges and spin densities:
               1          2
     1  C   -0.346989   0.002039
     2  C    0.796777   0.101794
     3  C   -0.389141   0.080753
     4  C   -0.875072   0.094057
     5  O   -0.505083   0.222001
     6  C    0.474154   0.042811
     7  C   -0.025354   0.020631
     8  C   -0.374003   0.028951
     9  C   -0.454229   0.018710
    10  C    0.032505   0.036645
    11  C    0.279681  -0.002165
    12  C   -0.446409   0.125405
    13  O   -0.482740   0.234861
    14  H    0.150657  -0.000205
    15  H    0.165701   0.005746
    16  H    0.165333   0.005652
    17  H    0.148103  -0.008920
    18  H    0.160955  -0.002279
    19  H    0.183138  -0.002244
    20  H    0.184147  -0.001888
    21  H    0.157870  -0.002357
 Sum of Mulliken charges =  -1.00000   1.00000

 Dipole moment (field-independent basis, Debye):
    X=              2.4321    Y=              0.3901    Z=              1.8485  Tot=              3.0796
 Quadrupole moment (field-independent basis, Debye-Ang):
   XX=            -75.2037   YY=            -82.6339   ZZ=           -116.9225
   XY=              0.3722   XZ=              0.9581   YZ=             -5.7879

  Exact polarizability: 281.766   4.138 113.189  -8.955  29.204 286.228
 Approx polarizability: 294.088   4.106 128.516  -8.677  35.082 335.806

                      1                      2                      3
                      A                      A                      A
 Frequencies --     77.1392               114.2063               132.2465
 Red. masses --      4.3520                 1.2573                 2.8329
 Frc consts  --      0.0153                 0.0097                 0.0292
 IR Inten    --     18.2935                 0.5267                 0.7514

                      4                      5                      6
                      A                      A                      A
 Frequencies --    169.3128               229.6823               252.4942
 Red. masses --      5.2633                 4.0984                 4.0035
 Frc consts  --      0.0889                 0.1274                 0.1504
 IR Inten    --      3.1130                 0.0248                 9.8096

                      7                      8                      9
                      A                      A                      A
 Frequencies --    292.6807               365.8186               377.1615
 Red. masses --      3.9299                10.9519                 4.6375
 Frc consts  --      0.1983                 0.8635                 0.3887
 IR Inten    --      0.3094                26.5111                 1.0626

                     10                     11                     12
                      A                      A                      A
 Frequencies --    417.6673               436.2659               473.7573
 Red. masses --      6.3027                 3.3383                 8.7522
 Frc consts  --      0.6478                 0.3743                 1.1574
 IR Inten    --      1.8497                 1.8496                 1.7216

                     13                     14                     15
                      A                      A                      A
 Frequencies --    492.9608               528.1139               645.1087
 Red. masses --      3.6925                 7.8945                 4.9520
 Frc consts  --      0.5287                 1.2973                 1.2142
 IR Inten    --      0.0075                 5.0099                 8.7689

                     16                     17                     18
                      A                      A                      A
 Frequencies --    658.4889               660.8436               689.7473
 Red. masses --      5.3712                 3.0832                 3.4294
 Frc consts  --      1.3722                 0.7933                 0.9613
 IR Inten    --     14.5303                13.8556                37.3894

                     19                     20                     21
                      A                      A                      A
 Frequencies --    726.2421               781.2883               789.9355
 Red. masses --      6.1001                 1.4592                 4.3220
 Frc consts  --      1.8956                 0.5248                 1.5890
 IR Inten    --     28.1452                89.7241                 0.7289

                     22                     23                     24
                      A                      A                      A
 Frequencies --    815.0754               871.6467               887.7000
 Red. masses --      4.3962                 1.5182                 1.4520
 Frc consts  --      1.7208                 0.6796                 0.6741
 IR Inten    --      6.7176                30.4665                 0.1941

                     25                     26                     27
                      A                      A                      A
 Frequencies --    952.6333               984.3671              1001.6999
 Red. masses --      4.5777                 1.3729                 1.2898
 Frc consts  --      2.4477                 0.7838                 0.7625
 IR Inten    --     58.0461                 2.2247                 0.0403

                     28                     29                     30
                      A                      A                      A
 Frequencies --   1020.9798              1037.8202              1044.3466
 Red. masses --      1.6881                 2.0787                 1.5067
 Frc consts  --      1.0368                 1.3191                 0.9682
 IR Inten    --     22.2967                25.6956                 2.8540

                     31                     32                     33
                      A                      A                      A
 Frequencies --   1102.3289              1131.5472              1159.9383
 Red. masses --      2.4616                 2.1350                 1.3946
 Frc consts  --      1.7624                 1.6107                 1.1055
 IR Inten    --     17.2642                 4.1621                 2.6553

                     34                     35                     36
                      A                      A                      A
 Frequencies --   1182.8260              1232.2411              1243.4544
 Red. masses --      2.0276                 2.0223                 2.7907
 Frc consts  --      1.6714                 1.8092                 2.5423
 IR Inten    --     26.2451               126.8883                40.6618

                     37                     38                     39
                      A                      A                      A
 Frequencies --   1299.9736              1350.9132              1393.6962
 Red. masses --      1.9269                 9.9043                 1.4852
 Frc consts  --      1.9186                10.6494                 1.6996
 IR Inten    --      5.1658                 2.6474                43.7319

                     40                     41                     42
                      A                      A                      A
 Frequencies --   1408.4189              1453.2390              1458.9345
 Red. masses --      2.3387                 4.3160                 1.0572
 Frc consts  --      2.7334                 5.3704                 1.3258
 IR Inten    --     58.5195               891.1358                11.4958

                     43                     44                     45
                      A                      A                      A
 Frequencies --   1466.1284              1470.8274              1496.8499
 Red. masses --      1.8354                 1.8481                 3.5886
 Frc consts  --      2.3244                 2.3556                 4.7374
 IR Inten    --     46.0099                35.6945                 2.9726

                     46                     47                     48
                      A                      A                      A
 Frequencies --   1512.5079              1556.2092              1619.0552
 Red. masses --      3.8340                 4.6299                 7.1487
 Frc consts  --      5.1677                 6.6064                11.0408
 IR Inten    --    881.2487                55.0496                16.5658

                     49                     50                     51
                      A                      A                      A
 Frequencies --   1629.0482              3015.7543              3057.7711
 Red. masses --      5.9955                 1.0367                 1.0993
 Frc consts  --      9.3744                 5.5553                 6.0558
 IR Inten    --      7.6865                79.8743                37.0464

                     52                     53                     54
                      A                      A                      A
 Frequencies --   3097.6714              3137.8969              3157.5010
 Red. masses --      1.1010                 1.0892                 1.0859
 Frc consts  --      6.2243                 6.3187                 6.3785
 IR Inten    --     33.6229                54.1883                 9.2142

                     55                     56                     57
                      A                      A                      A
 Frequencies --   3171.2581              3185.5411              3189.3338
 Red. masses --      1.0900                 1.0919                 1.0950
 Frc consts  --      6.4585                 6.5285                 6.5626
 IR Inten    --     20.5318                18.5124                37.1597

 - Thermochemistry -
 -------------------
 Temperature   298.150 Kelvin.  Pressure   1.00000 Atm.
 Atom     1 has atomic number  6 and mass  12.00000

 Molecular mass:   172.05243 amu.
 Principal axes and moments of inertia in atomic units:
                           1         2         3
     Eigenvalues --  1433.505662320.117963742.57473
           X            0.97124   0.23596  -0.03196
           Y           -0.00799   0.16642   0.98602
           Z           -0.23798   0.95741  -0.16352
 This molecule is an asymmetric top.
 Rotational symmetry number  1.
 Warning -- assumption of classical behavior for rotation
           may cause significant error
 Rotational temperatures (Kelvin)      0.06042     0.03733     0.02314
 Rotational constants (GHZ):           1.25897     0.77787     0.48222
 Zero-point vibrational energy     413359.4 (Joules/Mol)
                                   98.79527 (Kcal/Mol)
 Warning -- explicit consideration of  14 degrees of freedom as
           vibrations may cause significant error
 Vibrational temperatures:    110.99   164.32   190.27   243.60   330.46
          (Kelvin)            363.28   421.10   526.33   542.65   600.93
                              627.69   681.63   709.26   759.84   928.17
                              947.42   950.81   992.39  1044.90  1124.10
                             1136.54  1172.71  1254.11  1277.20  1370.63
                             1416.28  1441.22  1468.96  1493.19  1502.58
                             1586.01  1628.04  1668.89  1701.82  1772.92
                             1789.05  1870.37  1943.66  2005.22  2026.40
                             2090.89  2099.08  2109.43  2116.19  2153.63
                             2176.16  2239.04  2329.46  2343.84  4339.00
                             4399.45  4456.86  4514.73  4542.94  4562.73
                             4583.28  4588.74

 Zero-point correction=                           0.157440 (Hartree/Particle)
 Thermal correction to Energy=                    0.167775
 Thermal correction to Enthalpy=                  0.168719
 Thermal correction to Gibbs Free Energy=         0.120872
 Sum of electronic and zero-point Energies=           -574.582034
 Sum of electronic and thermal Energies=              -574.571699
 Sum of electronic and thermal Enthalpies=            -574.570755
 Sum of electronic and thermal Free Energies=         -574.618602

                     E (Thermal)             CV                S
                      KCal/Mol        Cal/Mol-Kelvin    Cal/Mol-Kelvin
 Total                  105.280             40.670            100.703
 Electronic               0.000              0.000              1.377
 Translational            0.889              2.981             41.335
 Rotational               0.889              2.981             30.899
 Vibrational            103.503             34.709             27.091
 Vibration     1          0.599              1.964              3.962
 Vibration     2          0.607              1.938              3.196
 Vibration     3          0.612              1.921              2.913
 Vibration     4          0.625              1.880              2.443
 Vibration     5          0.652              1.796              1.881
 Vibration     6          0.664              1.759              1.713
 Vibration     7          0.688              1.687              1.458
 Vibration     8          0.739              1.543              1.097
 Vibration     9          0.748              1.519              1.051
 Vibration    10          0.781              1.432              0.900
 Vibration    11          0.797              1.391              0.838
 Vibration    12          0.831              1.308              0.727
 Vibration    13          0.849              1.266              0.676
 Vibration    14          0.883              1.188              0.591

                           ! Non-Optimized Parameters !
 Normal termination of Gaussian 16 at Sun Feb 11 01:26:51 2024.
