 Q-Chem 5.4, Q-Chem, Inc., Pleasanton, CA (2021)
 Q-Chem 5.4.0 for Intel X86 EM64T Linux

User input:
--------------------------------------------------------------
$molecule
-1 2
C                 -0.01769200    4.06561200    0.80126200
C                 -1.13825400    4.02362800   -0.00741500
C                 -1.11207400    3.29216900   -1.21210900
C                  1.16296400    3.38230700    0.43751100
C                  1.19122600    2.64223600   -0.77938000
C                  0.03850200    2.61548300   -1.58358000
C                  2.33575100    3.42673900    1.28490600
C                  3.49528100    2.69572600    0.82844600
C                  3.55923500    1.97634400   -0.34618500
C                  2.39959900    1.90641500   -1.20894000
O                  2.41944200    4.05556400    2.39088300
O                  2.41027500    1.25074600   -2.28358600
O                  4.55989500    2.77997100    1.67867300
C                  4.80753400    1.23627100   -0.75183800
C                  4.80054800   -0.24396400   -0.32404400
C                  6.05247600   -1.00648400   -0.77101400
C                  6.05622400   -2.48096000   -0.35153600
C                  7.30311000   -3.25117600   -0.80165200
C                  7.30176000   -4.72529700   -0.38080800
C                  8.54465700   -5.49899300   -0.83477200
C                  8.53749500   -6.97236300   -0.41045300
C                  9.78113000   -7.74276700   -0.86974500
C                  9.75244200   -9.19897900   -0.43480800
H                 -0.01345600    4.62132100    1.73222300
H                 -2.03986500    4.55422500    0.28499600
H                 -1.99266400    3.25981900   -1.84680400
H                  0.08659900    2.04451000   -2.50397100
H                  4.20304300    3.35439500    2.39209100
H                  5.68377500    1.73029000   -0.31953900
H                  4.89096400    1.27955000   -1.84260500
H                  3.90987700   -0.72156700   -0.74599900
H                  4.70752900   -0.30034400    0.76723300
H                  6.94490000   -0.51286200   -0.36209200
H                  6.14156300   -0.94197300   -1.86367800
H                  5.16237200   -2.97202400   -0.75778300
H                  5.96704500   -2.54542300    0.74101900
H                  8.19787900   -2.76048400   -0.39606100
H                  7.39177700   -3.18766500   -1.89423000
H                  6.40504400   -5.21419300   -0.78360400
H                  7.21584300   -4.78857700    0.71197000
H                  9.44235900   -5.01204600   -0.43249700
H                  8.63020700   -5.43859500   -1.92735600
H                  7.63786400   -7.45687700   -0.81150600
H                  8.45343300   -7.03062800    0.68251100
H                 10.68433700   -7.27281100   -0.46603500
H                  9.86540200   -7.70312500   -1.96102300
H                  8.87444700   -9.70994500   -0.85062000
H                  9.70495100   -9.27514500    0.65918500
O                 10.94525900   -9.83175200   -0.90880600
C                 11.14579700  -11.15324200   -0.63839600
C                 10.26376800  -11.96300900    0.08407900
C                 12.33009200  -11.71061100   -1.13291000
C                 10.57602200  -13.30608300    0.30163800
H                  9.33940000  -11.56398000    0.47952200
C                 12.61907700  -13.04993100   -0.90695000
H                 13.00854500  -11.07623300   -1.69113600
C                 11.75210300  -13.88141900   -0.18492000
H                  9.87299100  -13.90938900    0.86710100
H                 13.54317700  -13.46141100   -1.30195300
C                 12.08586600  -15.34473300    0.04335900
C                 12.30165500  -15.68236100    1.54644700
H                 11.61070400  -15.09207700    2.15548400
H                 13.30856400  -15.36214000    1.83422000
C                 12.11045000  -17.18445300    1.86061300
H                 11.06422800  -17.37910100    2.12498200
H                 12.70133700  -17.45996200    2.73950400
C                 12.48588200  -18.05851300    0.65860400
H                 12.44103900  -19.11955300    0.92233700
H                 13.52830800  -17.85702900    0.38487900
C                 11.55860800  -17.76995900   -0.54549600
H                 10.70087200  -18.45051200   -0.52384300
H                 12.09476000  -17.98351800   -1.47615800
C                 11.04638000  -16.31043500   -0.56286200
H                 10.80369100  -16.00723700   -1.58494800
H                 10.11352800  -16.23355500    0.00720100
H                 13.03169900  -15.53299700   -0.47904300
$end

$rem
SMX_GAS_PHASE = true
BASIS  =  6-311++G(d,p)
GUI  =  2
JOB_TYPE  =  SP
METHOD  =  B3LYP
THRESH = 14
SCF_CONVERGENCE  = 5
SOLVENT_METHOD = sm12
$end

$smx
solvent dimethylformamide
charges CM5
$end

--------------------------------------------------------------

             Standard Nuclear Orientation (Angstroms)
    I     Atom           X                Y                Z
 ----------------------------------------------------------------
    1      C      -0.0176920000     4.0656120000     0.8012620000
    2      C      -1.1382540000     4.0236280000    -0.0074150000
    3      C      -1.1120740000     3.2921690000    -1.2121090000
    4      C       1.1629640000     3.3823070000     0.4375110000
    5      C       1.1912260000     2.6422360000    -0.7793800000
    6      C       0.0385020000     2.6154830000    -1.5835800000
    7      C       2.3357510000     3.4267390000     1.2849060000
    8      C       3.4952810000     2.6957260000     0.8284460000
    9      C       3.5592350000     1.9763440000    -0.3461850000
   10      C       2.3995990000     1.9064150000    -1.2089400000
   11      O       2.4194420000     4.0555640000     2.3908830000
   12      O       2.4102750000     1.2507460000    -2.2835860000
   13      O       4.5598950000     2.7799710000     1.6786730000
   14      C       4.8075340000     1.2362710000    -0.7518380000
   15      C       4.8005480000    -0.2439640000    -0.3240440000
   16      C       6.0524760000    -1.0064840000    -0.7710140000
   17      C       6.0562240000    -2.4809600000    -0.3515360000
   18      C       7.3031100000    -3.2511760000    -0.8016520000
   19      C       7.3017600000    -4.7252970000    -0.3808080000
   20      C       8.5446570000    -5.4989930000    -0.8347720000
   21      C       8.5374950000    -6.9723630000    -0.4104530000
   22      C       9.7811300000    -7.7427670000    -0.8697450000
   23      C       9.7524420000    -9.1989790000    -0.4348080000
   24      H      -0.0134560000     4.6213210000     1.7322230000
   25      H      -2.0398650000     4.5542250000     0.2849960000
   26      H      -1.9926640000     3.2598190000    -1.8468040000
   27      H       0.0865990000     2.0445100000    -2.5039710000
   28      H       4.2030430000     3.3543950000     2.3920910000
   29      H       5.6837750000     1.7302900000    -0.3195390000
   30      H       4.8909640000     1.2795500000    -1.8426050000
   31      H       3.9098770000    -0.7215670000    -0.7459990000
   32      H       4.7075290000    -0.3003440000     0.7672330000
   33      H       6.9449000000    -0.5128620000    -0.3620920000
   34      H       6.1415630000    -0.9419730000    -1.8636780000
   35      H       5.1623720000    -2.9720240000    -0.7577830000
   36      H       5.9670450000    -2.5454230000     0.7410190000
   37      H       8.1978790000    -2.7604840000    -0.3960610000
   38      H       7.3917770000    -3.1876650000    -1.8942300000
   39      H       6.4050440000    -5.2141930000    -0.7836040000
   40      H       7.2158430000    -4.7885770000     0.7119700000
   41      H       9.4423590000    -5.0120460000    -0.4324970000
   42      H       8.6302070000    -5.4385950000    -1.9273560000
   43      H       7.6378640000    -7.4568770000    -0.8115060000
   44      H       8.4534330000    -7.0306280000     0.6825110000
   45      H      10.6843370000    -7.2728110000    -0.4660350000
   46      H       9.8654020000    -7.7031250000    -1.9610230000
   47      H       8.8744470000    -9.7099450000    -0.8506200000
   48      H       9.7049510000    -9.2751450000     0.6591850000
   49      O      10.9452590000    -9.8317520000    -0.9088060000
   50      C      11.1457970000   -11.1532420000    -0.6383960000
   51      C      10.2637680000   -11.9630090000     0.0840790000
   52      C      12.3300920000   -11.7106110000    -1.1329100000
   53      C      10.5760220000   -13.3060830000     0.3016380000
   54      H       9.3394000000   -11.5639800000     0.4795220000
   55      C      12.6190770000   -13.0499310000    -0.9069500000
   56      H      13.0085450000   -11.0762330000    -1.6911360000
   57      C      11.7521030000   -13.8814190000    -0.1849200000
   58      H       9.8729910000   -13.9093890000     0.8671010000
   59      H      13.5431770000   -13.4614110000    -1.3019530000
   60      C      12.0858660000   -15.3447330000     0.0433590000
   61      C      12.3016550000   -15.6823610000     1.5464470000
   62      H      11.6107040000   -15.0920770000     2.1554840000
   63      H      13.3085640000   -15.3621400000     1.8342200000
   64      C      12.1104500000   -17.1844530000     1.8606130000
   65      H      11.0642280000   -17.3791010000     2.1249820000
   66      H      12.7013370000   -17.4599620000     2.7395040000
   67      C      12.4858820000   -18.0585130000     0.6586040000
   68      H      12.4410390000   -19.1195530000     0.9223370000
   69      H      13.5283080000   -17.8570290000     0.3848790000
   70      C      11.5586080000   -17.7699590000    -0.5454960000
   71      H      10.7008720000   -18.4505120000    -0.5238430000
   72      H      12.0947600000   -17.9835180000    -1.4761580000
   73      C      11.0463800000   -16.3104350000    -0.5628620000
   74      H      10.8036910000   -16.0072370000    -1.5849480000
   75      H      10.1135280000   -16.2335550000     0.0072010000
   76      H      13.0316990000   -15.5329970000    -0.4790430000
 ----------------------------------------------------------------

   11   -1544.9130492596      5.84e-06  Convergence criterion met
 Total energy in the final basis set =    -1544.9130492596
    4   -1544.9089469513      3.16e-06  Convergence criterion met
 Total energy in the final basis set =    -1545.0106107521

                    Orbital Energies (a.u.)
 --------------------------------------------------------------

 Alpha MOs
 -- Occupied --
-19.1507 -19.1447 -19.0857 -19.0728 -10.2358 -10.2241 -10.2240 -10.2218
-10.2217 -10.1821 -10.1807 -10.1803 -10.1790 -10.1782 -10.1781 -10.1776
-10.1775 -10.1771 -10.1765 -10.1758 -10.1728 -10.1652 -10.1652 -10.1650
-10.1649 -10.1646 -10.1645 -10.1641 -10.1639 -10.1634 -10.1627 -10.1624
-10.1622 -10.1618 -10.1617 -10.1612  -1.0662  -1.0640  -0.9980  -0.9954
 -0.8640  -0.8639  -0.8316  -0.8196  -0.8129  -0.7996  -0.7820  -0.7689
 -0.7576  -0.7555  -0.7518  -0.7388  -0.7326  -0.7139  -0.6948  -0.6741
 -0.6549  -0.6306  -0.6298  -0.6201  -0.6132  -0.6065  -0.5924  -0.5824
 -0.5813  -0.5763  -0.5753  -0.5720  -0.5414  -0.5391  -0.5282  -0.5079
 -0.4978  -0.4947  -0.4885  -0.4860  -0.4812  -0.4717  -0.4683  -0.4602
 -0.4572  -0.4525  -0.4401  -0.4380  -0.4356  -0.4343  -0.4326  -0.4280
 -0.4248  -0.4224  -0.4146  -0.4109  -0.4073  -0.4009  -0.3970  -0.3967
 -0.3903  -0.3892  -0.3828  -0.3814  -0.3760  -0.3741  -0.3703  -0.3681
 -0.3616  -0.3601  -0.3596  -0.3549  -0.3514  -0.3486  -0.3473  -0.3451
 -0.3407  -0.3389  -0.3319  -0.3289  -0.3271  -0.3250  -0.3233  -0.3223
 -0.3191  -0.3077  -0.3047  -0.3008  -0.3001  -0.2707  -0.2638  -0.2608
 -0.2586  -0.2379  -0.2308  -0.2219  -0.1520

 Beta MOs
 -- Occupied --
-19.1507 -19.1443 -19.0790 -19.0673 -10.2358 -10.2230 -10.2230 -10.2218
-10.2191 -10.1820 -10.1800 -10.1798 -10.1786 -10.1782 -10.1781 -10.1776
-10.1771 -10.1766 -10.1765 -10.1758 -10.1728 -10.1652 -10.1650 -10.1649
-10.1647 -10.1646 -10.1643 -10.1641 -10.1639 -10.1634 -10.1627 -10.1623
-10.1622 -10.1618 -10.1617 -10.1612  -1.0662  -1.0620  -0.9884  -0.9841
 -0.8639  -0.8617  -0.8316  -0.8185  -0.8116  -0.7985  -0.7811  -0.7683
 -0.7556  -0.7550  -0.7514  -0.7388  -0.7320  -0.7134  -0.6933  -0.6685
 -0.6527  -0.6304  -0.6292  -0.6187  -0.6132  -0.6055  -0.5913  -0.5823
 -0.5810  -0.5762  -0.5748  -0.5701  -0.5398  -0.5391  -0.5282  -0.5057
 -0.4978  -0.4947  -0.4870  -0.4860  -0.4800  -0.4717  -0.4671  -0.4595
 -0.4566  -0.4525  -0.4380  -0.4365  -0.4339  -0.4326  -0.4317  -0.4264
 -0.4243  -0.4194  -0.4111  -0.4086  -0.4054  -0.3994  -0.3963  -0.3952
 -0.3896  -0.3818  -0.3808  -0.3790  -0.3752  -0.3740  -0.3700  -0.3632
 -0.3613  -0.3597  -0.3561  -0.3536  -0.3509  -0.3468  -0.3434  -0.3403
 -0.3378  -0.3314  -0.3303  -0.3271  -0.3265  -0.3250  -0.3227  -0.3223
 -0.3191  -0.3077  -0.3041  -0.3008  -0.3001  -0.2608  -0.2567  -0.2526
 -0.2504  -0.2326  -0.2219  -0.2208

          Ground-State Mulliken Net Atomic Charges

     Atom                 Charge (a.u.)    Spin (a.u.)
  --------------------------------------------------------
      1 C                     0.172609       0.072314
      2 C                     0.819622       0.002581
      3 C                     0.886762       0.074864
      4 C                    -0.797885       0.004745
      5 C                    -1.055699       0.073838
      6 C                    -0.183674       0.000312
      7 C                    -1.539371       0.137915
      8 C                    -0.719470       0.059212
      9 C                     1.475543       0.053381
     10 C                    -2.027905       0.049190
     11 O                    -0.373259       0.249197
     12 O                    -0.286654       0.209850
     13 O                    -0.138706       0.015969
     14 C                    -0.419797       0.012986
     15 C                    -1.121571      -0.003088
     16 C                     0.161005       0.001819
     17 C                     0.469482      -0.003270
     18 C                     0.463878      -0.000670
     19 C                    -0.063365       0.000002
     20 C                    -0.303726       0.000166
     21 C                     0.138576      -0.000036
     22 C                    -0.135574       0.000006
     23 C                    -0.098157       0.000033
     24 H                     0.171840      -0.003833
     25 H                     0.354837      -0.000859
     26 H                     0.342212      -0.005236
     27 H                     0.137532      -0.000375
     28 H                     0.296080      -0.004063
     29 H                     0.200001      -0.000954
     30 H                     0.138290       0.002760
     31 H                     0.056747      -0.001685
     32 H                     0.075174       0.002712
     33 H                     0.158865      -0.000478
     34 H                     0.151774       0.000794
     35 H                     0.113777      -0.000042
     36 H                     0.116951      -0.000034
     37 H                     0.103773      -0.000003
     38 H                     0.103456      -0.000003
     39 H                     0.108234       0.000003
     40 H                     0.115602      -0.000004
     41 H                     0.119970      -0.000011
     42 H                     0.117892       0.000005
     43 H                     0.123022      -0.000004
     44 H                     0.123032      -0.000000
     45 H                     0.131435       0.000004
     46 H                     0.132229      -0.000002
     47 H                     0.217300      -0.000001
     48 H                     0.218058       0.000000
     49 O                    -0.096585      -0.000007
     50 C                    -0.433217       0.000069
     51 C                     0.052324      -0.000071
     52 C                    -0.766721      -0.000137
     53 C                    -0.433502       0.000165
     54 H                     0.270345       0.000002
     55 C                    -0.617442       0.000185
     56 H                     0.194373       0.000015
     57 C                     0.670480      -0.000208
     58 H                     0.249383      -0.000017
     59 H                     0.223003      -0.000021
     60 C                     0.442496       0.000034
     61 C                    -0.458250      -0.000008
     62 H                     0.136717       0.000001
     63 H                     0.164313       0.000002
     64 C                    -0.356292       0.000002
     65 H                     0.111718      -0.000000
     66 H                     0.204279      -0.000001
     67 C                    -0.119319      -0.000000
     68 H                     0.222583      -0.000000
     69 H                     0.116399      -0.000000
     70 C                    -0.355471       0.000000
     71 H                     0.171809      -0.000001
     72 H                     0.156047      -0.000000
     73 C                    -0.437000      -0.000009
     74 H                     0.164795       0.000002
     75 H                     0.101704       0.000001
     76 H                     0.170282      -0.000007
  --------------------------------------------------------
  Sum of atomic charges =    -1.000000

                    Cartesian Multipole Moments
 -----------------------------------------------------------------
    Charge (ESU x 10^10)
                -4.8032
    Dipole Moment (Debye)
         X     -13.4843      Y     -11.7311      Z       0.8777
       Tot      17.8946
    Quadrupole Moments (Debye-Ang)
        XX    -291.6085     XY      -9.8141     YY    -271.2401
        XZ       5.8753     YZ     -18.9955     ZZ    -248.3390

 Total job time:  3253.65s(wall), 17914.54s(cpu)
        *  Thank you very much for using Q-Chem.  Have a nice day.  *
