 Q-Chem 5.4, Q-Chem, Inc., Pleasanton, CA (2021)
 Q-Chem 5.4.0 for Intel X86 EM64T Linux

User input:
--------------------------------------------------------------
$molecule
-2 1
C                  4.8107760000     -0.6218120000      0.1861410000
C                  3.4728310000     -0.3688970000     -0.5256430000
O                  3.4522430000     -0.2148720000     -1.7614720000
O                  2.6022560000     -1.5636770000     -0.0111670000
C                  1.2616400000     -1.3942430000     -0.1219160000
C                  0.4085300000     -2.4695740000     -0.3016350000
C                 -0.9974380000     -2.2904280000     -0.3442180000
C                 -1.5616150000     -1.0306840000     -0.2388340000
O                 -2.8998490000     -0.8417400000     -0.3475850000
C                 -3.4725880000      0.3691700000      0.4615410000
C                 -4.8108340000      0.6217250000     -0.2498470000
O                 -3.4516250000      0.2154860000      1.6973970000
C                 -0.7053040000      0.0906490000     -0.0603700000
C                 -1.2615930000      1.3942030000      0.0575010000
O                 -2.6023530000      1.5635950000     -0.0535640000
C                 -0.4085970000      2.4695390000      0.2373050000
C                  0.9974070000      2.2903840000      0.2800310000
C                  1.5615590000      1.0306460000      0.1746280000
O                  2.8997500000      0.8417480000      0.2836370000
C                  0.7052750000     -0.0907300000     -0.0040250000
H                  5.2537870000     -1.5291610000     -0.2333520000
H                  5.4709380000      0.2255930000     -0.0179260000
H                  4.6848340000     -0.7386670000      1.2648640000
H                  0.8369940000     -3.4628540000     -0.3994920000
H                 -1.6545960000     -3.1457340000     -0.4721000000
H                 -4.6854650000      0.7368430000     -1.3288210000
H                 -5.2530850000      1.5299980000      0.1684800000
H                 -5.4713530000     -0.2249700000     -0.0440390000
H                 -0.8370940000      3.4627970000      0.3351800000
H                  1.6545680000      3.1456660000      0.4080380000
$end
$rem
MAX_SCF_CYCLES=200
BASIS  =  6-311++G(d,p)
GUI  =  2
JOB_TYPE  =  SP
METHOD  =  B3LYP
SOLVENT_METHOD = PCM
$end
$pcm
theory = CPCM
$end
$solvent
dielectric 37.219
opticaldielectric 1.43
$end

--------------------------------------------------------------

             Standard Nuclear Orientation (Angstroms)
    I     Atom           X                Y                Z
 ----------------------------------------------------------------
    1      C       4.8107760000    -0.6218120000     0.1861410000
    2      C       3.4728310000    -0.3688970000    -0.5256430000
    3      O       3.4522430000    -0.2148720000    -1.7614720000
    4      O       2.6022560000    -1.5636770000    -0.0111670000
    5      C       1.2616400000    -1.3942430000    -0.1219160000
    6      C       0.4085300000    -2.4695740000    -0.3016350000
    7      C      -0.9974380000    -2.2904280000    -0.3442180000
    8      C      -1.5616150000    -1.0306840000    -0.2388340000
    9      O      -2.8998490000    -0.8417400000    -0.3475850000
   10      C      -3.4725880000     0.3691700000     0.4615410000
   11      C      -4.8108340000     0.6217250000    -0.2498470000
   12      O      -3.4516250000     0.2154860000     1.6973970000
   13      C      -0.7053040000     0.0906490000    -0.0603700000
   14      C      -1.2615930000     1.3942030000     0.0575010000
   15      O      -2.6023530000     1.5635950000    -0.0535640000
   16      C      -0.4085970000     2.4695390000     0.2373050000
   17      C       0.9974070000     2.2903840000     0.2800310000
   18      C       1.5615590000     1.0306460000     0.1746280000
   19      O       2.8997500000     0.8417480000     0.2836370000
   20      C       0.7052750000    -0.0907300000    -0.0040250000
   21      H       5.2537870000    -1.5291610000    -0.2333520000
   22      H       5.4709380000     0.2255930000    -0.0179260000
   23      H       4.6848340000    -0.7386670000     1.2648640000
   24      H       0.8369940000    -3.4628540000    -0.3994920000
   25      H      -1.6545960000    -3.1457340000    -0.4721000000
   26      H      -4.6854650000     0.7368430000    -1.3288210000
   27      H      -5.2530850000     1.5299980000     0.1684800000
   28      H      -5.4713530000    -0.2249700000    -0.0440390000
   29      H      -0.8370940000     3.4627970000     0.3351800000
   30      H       1.6545680000     3.1456660000     0.4080380000
 ----------------------------------------------------------------

    9    -991.4147756467      1.66e-06  Convergence criterion met
 Total energy in the final basis set =     -991.4147756467

                    Orbital Energies (a.u.)
 --------------------------------------------------------------

 Alpha MOs
 -- Occupied --
-19.1133 -19.1133 -19.1133 -19.1133 -19.0471 -19.0470 -10.2898 -10.2898
-10.2113 -10.2113 -10.2113 -10.2113 -10.1678 -10.1674 -10.1567 -10.1567
-10.1563 -10.1562 -10.1443 -10.1443  -1.0584  -1.0575  -0.9972  -0.9961
 -0.9687  -0.9672  -0.8500  -0.7982  -0.7533  -0.7334  -0.7190  -0.6963
 -0.6873  -0.6286  -0.6076  -0.5978  -0.5546  -0.5371  -0.5211  -0.5055
 -0.4873  -0.4850  -0.4453  -0.4441  -0.4393  -0.4347  -0.4248  -0.4083
 -0.4068  -0.4064  -0.3913  -0.3885  -0.3818  -0.3761  -0.3748  -0.3688
 -0.3685  -0.3616  -0.3582  -0.3467  -0.3342  -0.3106  -0.2942  -0.2921
 -0.2588  -0.2570  -0.2431  -0.2417  -0.2349  -0.2318  -0.2134  -0.1602

          Ground-State Mulliken Net Atomic Charges

     Atom                 Charge (a.u.)
  ----------------------------------------
      1 C                    -0.383977
      2 C                    -0.441036
      3 O                    -0.485353
      4 O                    -0.200642
      5 C                    -0.163097
      6 C                    -0.301337
      7 C                    -0.303053
      8 C                    -0.160350
      9 O                    -0.200501
     10 C                    -0.441459
     11 C                    -0.383945
     12 O                    -0.485425
     13 C                     0.729246
     14 C                    -0.163146
     15 O                    -0.200595
     16 C                    -0.300814
     17 C                    -0.303419
     18 C                    -0.160531
     19 O                    -0.200472
     20 C                     0.729642
     21 H                     0.172850
     22 H                     0.172930
     23 H                     0.173182
     24 H                     0.195561
     25 H                     0.195635
     26 H                     0.173154
     27 H                     0.172836
     28 H                     0.172907
     29 H                     0.195572
     30 H                     0.195637
  ----------------------------------------
  Sum of atomic charges =    -2.000000

                    Cartesian Multipole Moments
 -----------------------------------------------------------------
    Charge (ESU x 10^10)
                -9.6064
    Dipole Moment (Debye)
         X       0.0024      Y      -0.0011      Z       0.3084
       Tot       0.3084
    Quadrupole Moments (Debye-Ang)
        XX    -204.3040     XY       5.4653     YY    -128.9246
        XZ      31.9817     YZ      -1.6585     ZZ    -147.2555

 Total job time:  75.40s(wall), 444.24s(cpu)
        *  Thank you very much for using Q-Chem.  Have a nice day.  *
