 Gaussian 16, Revision A.03,
 Gaussian 16:  ES64L-G16RevA.03 25-Dec-2016

 --------------------------------------
 #P UB3LYP/6-311++G(d,p) nosym opt freq
 --------------------------------------

 -------
 Reduced
 -------
 Symbolic Z-matrix:
 Charge = -2 Multiplicity = 1

 SCF Done:  E(UB3LYP) =  -799.578352648     A.U. after   54 cycles
 SCF Done:  E(UB3LYP) =  -799.614168063     A.U. after   43 cycles
 SCF Done:  E(UB3LYP) =  -799.640160373     A.U. after   51 cycles
 SCF Done:  E(UB3LYP) =  -799.665876487     A.U. after   24 cycles
 SCF Done:  E(UB3LYP) =  -799.677227943     A.U. after   20 cycles
 SCF Done:  E(UB3LYP) =  -799.680523315     A.U. after   22 cycles
 SCF Done:  E(UB3LYP) =  -799.682318491     A.U. after   21 cycles
 SCF Done:  E(UB3LYP) =  -799.682878147     A.U. after   23 cycles
 SCF Done:  E(UB3LYP) =  -799.683441256     A.U. after   21 cycles
 SCF Done:  E(UB3LYP) =  -799.683747026     A.U. after   19 cycles
 SCF Done:  E(UB3LYP) =  -799.683802140     A.U. after   22 cycles
 SCF Done:  E(UB3LYP) =  -799.683939914     A.U. after   20 cycles
 SCF Done:  E(UB3LYP) =  -799.683950544     A.U. after   17 cycles
 SCF Done:  E(UB3LYP) =  -799.683955135     A.U. after   18 cycles
 SCF Done:  E(UB3LYP) =  -799.683957979     A.U. after   16 cycles
 SCF Done:  E(UB3LYP) =  -799.683958928     A.U. after   16 cycles
 SCF Done:  E(UB3LYP) =  -799.683959739     A.U. after   17 cycles
 SCF Done:  E(UB3LYP) =  -799.683959961     A.U. after   16 cycles
 SCF Done:  E(UB3LYP) =  -799.683960050     A.U. after   15 cycles
 Optimization completed.
    -- Stationary point found.
 Normal termination of Gaussian 16 at Thu Dec 21 09:11:56 2023.

 ----------------------------------------------------------------------
 #P Geom=AllCheck Guess=TCheck SCRF=Check GenChk UB3LYP/6-311++G(d,p) F
 req
 ----------------------------------------------------------------------

 Structure from the checkpoint file:  "166-an.chk"
 -------
 Reduced
 -------
 Charge = -2 Multiplicity = 1

                          Input orientation:
 ---------------------------------------------------------------------
 Center     Atomic      Atomic             Coordinates (Angstroms)
 Number     Number       Type             X           Y           Z
 ---------------------------------------------------------------------
      1          7           0       -2.047847    2.922405   -0.225638
      2          6           0       -2.076068    1.514982   -0.023501
      3          6           0       -3.290409    0.866678    0.070024
      4          6           0       -3.362060   -0.544390    0.184535
      5          6           0       -2.219875   -1.318126    0.206276
      6          7           0       -2.334910   -2.735238    0.233380
      7          6           0       -0.913102   -0.695884    0.162313
      8          6           0        0.279349   -1.504414    0.294317
      9          8           0        0.265695   -2.803943    0.440474
     10          6           0        1.530209   -0.798514    0.276997
     11          6           0        2.745971   -1.524988    0.392783
     12          6           0        3.976968   -0.904413    0.393361
     13          6           0        4.049045    0.515378    0.278777
     14          6           0        2.886800    1.248553    0.168856
     15          6           0        1.603178    0.638963    0.160887
     16          6           0        0.429879    1.460694    0.054645
     17          8           0        0.548172    2.761542   -0.009412
     18          6           0       -0.838905    0.765555    0.044010
     19          1           0       -1.065506    3.237279   -0.109233
     20          1           0       -2.690003    3.397019    0.397635
     21          1           0       -4.206013    1.451770   -0.008684
     22          1           0       -4.332495   -1.039394    0.193737
     23          1           0       -3.016844   -3.036664    0.919061
     24          1           0       -1.388319   -3.124624    0.406592
     25          1           0        2.655220   -2.602918    0.481009
     26          1           0        4.889404   -1.492813    0.479898
     27          1           0        5.016734    1.015204    0.277466
     28          1           0        2.905731    2.330302    0.082760
 ---------------------------------------------------------------------

 SCF Done:  E(UB3LYP) =  -799.683960050     A.U. after    1 cycles

 Alpha  occ. eigenvalues --  -18.77976 -18.77975 -14.04106 -14.04105  -9.94359
 Alpha  occ. eigenvalues --   -9.94357  -9.93738  -9.93736  -9.92506  -9.92463
 Alpha  occ. eigenvalues --   -9.91623  -9.91622  -9.90563  -9.90518  -9.90518
 Alpha  occ. eigenvalues --   -9.90485  -9.89839  -9.89801  -0.69908  -0.69488
 Alpha  occ. eigenvalues --   -0.64334  -0.63485  -0.59223  -0.55423  -0.51462
 Alpha  occ. eigenvalues --   -0.49102  -0.47160  -0.44914  -0.39971  -0.37272
 Alpha  occ. eigenvalues --   -0.36278  -0.31779  -0.29193  -0.28549  -0.26560
 Alpha  occ. eigenvalues --   -0.24708  -0.22099  -0.21386  -0.20671  -0.19871
 Alpha  occ. eigenvalues --   -0.18328  -0.17290  -0.16666  -0.14377  -0.14228
 Alpha  occ. eigenvalues --   -0.12418  -0.12334  -0.11824  -0.11707  -0.10205
 Alpha  occ. eigenvalues --   -0.09233  -0.08468  -0.07120  -0.06547  -0.06091
 Alpha  occ. eigenvalues --   -0.01187   0.00479   0.01726   0.02137   0.03986
 Alpha  occ. eigenvalues --    0.04200   0.06585   0.13535
 Alpha virt. eigenvalues --    0.16290   0.16693   0.17638   0.18009   0.19507
 Alpha virt. eigenvalues --    0.20729   0.20942   0.21293   0.21985   0.23185
 Alpha virt. eigenvalues --    0.23990   0.24947   0.25681   0.25950   0.26358

  Beta  occ. eigenvalues --  -18.77976 -18.77975 -14.04106 -14.04105  -9.94359
  Beta  occ. eigenvalues --   -9.94357  -9.93738  -9.93736  -9.92506  -9.92463
  Beta  occ. eigenvalues --   -9.91623  -9.91622  -9.90563  -9.90518  -9.90518
  Beta  occ. eigenvalues --   -9.90485  -9.89839  -9.89801  -0.69908  -0.69488
  Beta  occ. eigenvalues --   -0.64334  -0.63485  -0.59223  -0.55423  -0.51462
  Beta  occ. eigenvalues --   -0.49102  -0.47160  -0.44914  -0.39971  -0.37272
  Beta  occ. eigenvalues --   -0.36278  -0.31779  -0.29193  -0.28549  -0.26560
  Beta  occ. eigenvalues --   -0.24708  -0.22099  -0.21386  -0.20671  -0.19871
  Beta  occ. eigenvalues --   -0.18328  -0.17290  -0.16666  -0.14377  -0.14228
  Beta  occ. eigenvalues --   -0.12418  -0.12334  -0.11824  -0.11707  -0.10205
  Beta  occ. eigenvalues --   -0.09233  -0.08468  -0.07120  -0.06547  -0.06091
  Beta  occ. eigenvalues --   -0.01187   0.00479   0.01726   0.02137   0.03986
  Beta  occ. eigenvalues --    0.04200   0.06585   0.13535
  Beta virt. eigenvalues --    0.16290   0.16693   0.17638   0.18009   0.19507
  Beta virt. eigenvalues --    0.20729   0.20942   0.21293   0.21985   0.23185
  Beta virt. eigenvalues --    0.23990   0.24947   0.25681   0.25950   0.26358

 Mulliken charges and spin densities:
               1          2
     1  N   -0.429402   0.000000
     2  C   -0.223295  -0.000000
     3  C   -0.303200  -0.000000
     4  C   -0.302879   0.000000
     5  C   -0.222580  -0.000000
     6  N   -0.429492  -0.000000
     7  C    0.587755  -0.000000
     8  C   -0.544930  -0.000000
     9  O   -0.507226  -0.000000
    10  C    0.162320  -0.000000
    11  C    0.057827  -0.000000
    12  C   -0.508675   0.000000
    13  C   -0.508539  -0.000000
    14  C    0.057539   0.000000
    15  C    0.162783   0.000000
    16  C   -0.545129  -0.000000
    17  O   -0.507277   0.000000
    18  C    0.588402   0.000000
    19  H    0.293812   0.000000
    20  H    0.168779  -0.000000
    21  H    0.047724   0.000000
    22  H    0.047635   0.000000
    23  H    0.168791   0.000000
    24  H    0.293874  -0.000000
    25  H    0.127935   0.000000
    26  H    0.069750   0.000000
    27  H    0.069751  -0.000000
    28  H    0.127946  -0.000000
 Sum of Mulliken charges =  -2.00000  -0.00000

 Dipole moment (field-independent basis, Debye):
    X=             -1.1073    Y=              0.2338    Z=              0.0837  Tot=              1.1348
 Quadrupole moment (field-independent basis, Debye-Ang):
   XX=           -164.6014   YY=           -166.8223   ZZ=           -120.6581
   XY=             -0.6991   XZ=             -7.3302   YZ=              4.1353

  Exact polarizability: 460.245  -8.929 296.625  -8.579 -12.460 137.801
 Approx polarizability: 758.260 -12.830 507.261  -2.268 -24.506 204.263

                      1                      2                      3
                      A                      A                      A
 Frequencies --     53.6206                60.5244               103.4412
 Red. masses --      6.9122                 5.3553                 4.2317
 Frc consts  --      0.0117                 0.0116                 0.0267
 IR Inten    --      6.3099                 2.4669                 4.9073

                      4                      5                      6
                      A                      A                      A
 Frequencies --    129.8301               174.8971               221.4584
 Red. masses --      4.3138                 7.3308                 5.0482
 Frc consts  --      0.0428                 0.1321                 0.1459
 IR Inten    --      1.0930                 0.6494                 6.7686

                      7                      8                      9
                      A                      A                      A
 Frequencies --    257.8677               298.0433               330.6403
 Red. masses --      5.0216                 2.4472                 5.3617
 Frc consts  --      0.1967                 0.1281                 0.3454
 IR Inten    --      1.7325                76.4182                 9.0519

                     10                     11                     12
                      A                      A                      A
 Frequencies --    355.4834               380.4694               393.4972
 Red. masses --      5.8259                 5.3434                 9.1663
 Frc consts  --      0.4338                 0.4557                 0.8362
 IR Inten    --      5.6863                16.2287                 0.8334

                     13                     14                     15
                      A                      A                      A
 Frequencies --    396.5534               408.7845               413.2334
 Red. masses --      1.2970                 1.6844                 5.8281
 Frc consts  --      0.1202                 0.1658                 0.5864
 IR Inten    --     85.6811               104.5437                11.9420

                     16                     17                     18
                      A                      A                      A
 Frequencies --    436.2556               443.6689               476.6136
 Red. masses --      5.9271                 3.2314                 5.3691
 Frc consts  --      0.6646                 0.3748                 0.7186
 IR Inten    --     21.4260                 8.1235                 1.3784

                     19                     20                     21
                      A                      A                      A
 Frequencies --    486.3114               494.4363               520.4305
 Red. masses --      4.1687                 4.7206                 8.1768
 Frc consts  --      0.5809                 0.6799                 1.3048
 IR Inten    --      0.1099                 1.3461                 1.3947

                     22                     23                     24
                      A                      A                      A
 Frequencies --    586.0112               590.6168               619.9144
 Red. masses --      2.7024                 5.1219                 4.3835
 Frc consts  --      0.5468                 1.0527                 0.9925
 IR Inten    --     84.8667                27.4042                 0.7097

                     25                     26                     27
                      A                      A                      A
 Frequencies --    652.7242               695.5762               702.9302
 Red. masses --      6.3229                 1.5774                 6.0019
 Frc consts  --      1.5872                 0.4497                 1.7473
 IR Inten    --      0.3935                24.3370                 6.8514

                     28                     29                     30
                      A                      A                      A
 Frequencies --    714.6546               737.5956               752.6976
 Red. masses --      3.1835                 1.6451                 3.8904
 Frc consts  --      0.9580                 0.5273                 1.2986
 IR Inten    --      2.8506                85.1992                26.9979

                     31                     32                     33
                      A                      A                      A
 Frequencies --    759.7716               770.2742               778.7316
 Red. masses --      3.3420                 1.8148                 1.6824
 Frc consts  --      1.1366                 0.6344                 0.6011
 IR Inten    --      6.5052                 1.2944                29.3121

                     34                     35                     36
                      A                      A                      A
 Frequencies --    818.4303               855.2774               888.4412
 Red. masses --      4.6531                 6.9011                 5.7583
 Frc consts  --      1.8363                 2.9743                 2.6779
 IR Inten    --      2.8623                43.1566               155.2610

                     37                     38                     39
                      A                      A                      A
 Frequencies --    946.5379               947.3928               950.4668
 Red. masses --      1.5864                 3.1085                 1.2273
 Frc consts  --      0.8374                 1.6438                 0.6532
 IR Inten    --    106.3948               145.4902                 0.3358

                     40                     41                     42
                      A                      A                      A
 Frequencies --    956.8896               968.9032              1008.4164
 Red. masses --      1.3621                 1.6832                 2.2158
 Frc consts  --      0.7348                 0.9310                 1.3276
 IR Inten    --      2.4609                32.7399                90.4991

                     43                     44                     45
                      A                      A                      A
 Frequencies --   1045.8680              1091.3238              1119.6135
 Red. masses --      2.0585                 2.3034                 1.4544
 Frc consts  --      1.3267                 1.6163                 1.0741
 IR Inten    --     61.9630               113.4740               174.4630

                     46                     47                     48
                      A                      A                      A
 Frequencies --   1147.2542              1164.0348              1196.7999
 Red. masses --      2.0334                 1.7100                 2.0036
 Frc consts  --      1.5768                 1.3652                 1.6909
 IR Inten    --      1.2964               201.6927               226.2630

                     49                     50                     51
                      A                      A                      A
 Frequencies --   1210.4934              1218.6309              1238.8531
 Red. masses --      1.4500                 1.7993                 4.8637
 Frc consts  --      1.2518                 1.5743                 4.3980
 IR Inten    --      0.1758                89.0207                11.1845

                     52                     53                     54
                      A                      A                      A
 Frequencies --   1251.9469              1253.7343              1274.4201
 Red. masses --      2.4912                 2.8599                 7.1325
 Frc consts  --      2.3005                 2.6485                 6.8252
 IR Inten    --    144.5644                51.4922                 0.0516

                     55                     56                     57
                      A                      A                      A
 Frequencies --   1349.2864              1368.8743              1387.0169
 Red. masses --      7.8718                 2.9013                 1.8094
 Frc consts  --      8.4437                 3.2031                 2.0509
 IR Inten    --    234.0083               564.4210               143.8002

                     58                     59                     60
                      A                      A                      A
 Frequencies --   1435.2355              1450.6013              1460.2616
 Red. masses --      7.5968                 2.1963                 4.0689
 Frc consts  --      9.2200                 2.7229                 5.1120
 IR Inten    --     27.0416                12.1258               414.3119

                     61                     62                     63
                      A                      A                      A
 Frequencies --   1470.4045              1481.9679              1536.7450
 Red. masses --      2.4140                 5.5606                 5.7426
 Frc consts  --      3.0751                 7.1953                 7.9903
 IR Inten    --      3.3279                10.4779                95.0295

                     64                     65                     66
                      A                      A                      A
 Frequencies --   1581.3070              1590.5171              1598.3985
 Red. masses --      5.0979                 2.5113                 5.4011
 Frc consts  --      7.5106                 3.7431                 8.1302
 IR Inten    --     11.3904               123.7033                20.8733

                     67                     68                     69
                      A                      A                      A
 Frequencies --   1626.2704              1626.5431              3083.2147
 Red. masses --      1.3620                 1.3965                 1.0814
 Frc consts  --      2.1224                 2.1768                 6.0566
 IR Inten    --     64.9288                46.5680                35.6642

                     70                     71                     72
                      A                      A                      A
 Frequencies --   3086.0877              3094.2802              3100.0167
 Red. masses --      1.0824                 1.0743                 1.0726
 Frc consts  --      6.0737                 6.0604                 6.0731
 IR Inten    --     55.0354                19.7057               471.4393

                     73                     74                     75
                      A                      A                      A
 Frequencies --   3109.9640              3110.7655              3161.0690
 Red. masses --      1.0919                 1.0904                 1.0901
 Frc consts  --      6.2225                 6.2166                 6.4175
 IR Inten    --    192.4343                32.9644                24.3737

                     76                     77                     78
                      A                      A                      A
 Frequencies --   3163.4729              3537.9481              3538.7617
 Red. masses --      1.0910                 1.0771                 1.0773
 Frc consts  --      6.4331                 7.9437                 7.9487
 IR Inten    --     52.8798                 3.6939                26.6263

 - Thermochemistry -
 -------------------
 Temperature   298.150 Kelvin.  Pressure   1.00000 Atm.
 Atom     1 has atomic number  7 and mass  14.00307

 Molecular mass:   238.07423 amu.
 Principal axes and moments of inertia in atomic units:
                           1         2         3
     Eigenvalues --  2627.442544642.160687261.39514
           X            0.99824   0.05054  -0.03117
           Y           -0.04783   0.99547   0.08222
           Z            0.03519  -0.08059   0.99613
 This molecule is an asymmetric top.
 Rotational symmetry number  1.
 Warning -- assumption of classical behavior for rotation
           may cause significant error
 Rotational temperatures (Kelvin)      0.03297     0.01866     0.01193
 Rotational constants (GHZ):           0.68688     0.38877     0.24854
 Zero-point vibrational energy     542508.3 (Joules/Mol)
                                  129.66258 (Kcal/Mol)
 Warning -- explicit consideration of  24 degrees of freedom as
           vibrations may cause significant error
 Vibrational temperatures:     77.15    87.08   148.83   186.80   251.64
          (Kelvin)            318.63   371.01   428.82   475.72   511.46
                              547.41   566.15   570.55   588.15   594.55
                              627.67   638.34   685.74   699.69   711.38
                              748.78   843.14   849.77   891.92   939.12
                             1000.78  1011.36  1028.23  1061.24  1082.96
                             1093.14  1108.25  1120.42  1177.54  1230.55
                             1278.27  1361.86  1363.09  1367.51  1376.75
                             1394.04  1450.89  1504.77  1570.17  1610.87
                             1650.64  1674.79  1721.93  1741.63  1753.34
                             1782.43  1801.27  1803.84  1833.61  1941.32
                             1969.50  1995.61  2064.98  2087.09  2100.99
                             2115.58  2132.22  2211.03  2275.15  2288.40
                             2299.74  2339.84  2340.23  4436.06  4440.19
                             4451.98  4460.23  4474.54  4475.70  4548.07
                             4551.53  5090.32  5091.49

 Zero-point correction=                           0.206630 (Hartree/Particle)
 Thermal correction to Energy=                    0.220439
 Thermal correction to Enthalpy=                  0.221383
 Thermal correction to Gibbs Free Energy=         0.166569
 Sum of electronic and zero-point Energies=           -799.477330
 Sum of electronic and thermal Energies=              -799.463521
 Sum of electronic and thermal Enthalpies=            -799.462577
 Sum of electronic and thermal Free Energies=         -799.517391

                     E (Thermal)             CV                S
                      KCal/Mol        Cal/Mol-Kelvin    Cal/Mol-Kelvin
 Total                  138.328             57.305            115.366
 Electronic               0.000              0.000              0.000
 Translational            0.889              2.981             42.304
 Rotational               0.889              2.981             32.849
 Vibrational            136.550             51.344             40.213
 Vibration     1          0.596              1.976              4.679
 Vibration     2          0.597              1.973              4.440
 Vibration     3          0.605              1.946              3.388
 Vibration     4          0.612              1.923              2.949
 Vibration     5          0.627              1.873              2.382
 Vibration     6          0.648              1.808              1.947
 Vibration     7          0.667              1.749              1.676
 Vibration     8          0.691              1.677              1.428
 Vibration     9          0.713              1.614              1.257
 Vibration    10          0.731              1.564              1.142
 Vibration    11          0.750              1.512              1.037
 Vibration    12          0.761              1.484              0.987
 Vibration    13          0.763              1.478              0.975
 Vibration    14          0.773              1.451              0.931
 Vibration    15          0.777              1.441              0.915
 Vibration    16          0.797              1.391              0.838
 Vibration    17          0.803              1.375              0.815
 Vibration    18          0.833              1.302              0.719
 Vibration    19          0.842              1.280              0.693
 Vibration    20          0.850              1.262              0.672
 Vibration    21          0.875              1.205              0.609
 Vibration    22          0.943              1.062              0.474
 Vibration    23          0.948              1.052              0.466
 Vibration    24          0.980              0.990              0.417

 Optimization completed.
    -- Stationary point found.
 Normal termination of Gaussian 16 at Thu Dec 21 09:47:26 2023.
