 Q-Chem 5.4, Q-Chem, Inc., Pleasanton, CA (2021)
 Q-Chem 5.4.0 for Intel X86 EM64T Linux

User input:
--------------------------------------------------------------
$molecule
0 1
Br                 3.7335070000     -2.2105410000      0.6220850000
C                  2.2675290000     -1.0425990000      0.2855480000
C                  0.9975990000     -1.4903310000      0.3132360000
C                 -0.1594440000     -0.6372040000      0.0625750000
C                 -1.4517300000     -1.1726460000      0.1081200000
C                 -2.5606240000     -0.3626360000     -0.1304950000
C                 -2.3947310000      0.9918080000     -0.4175640000
C                 -1.1137180000      1.5371050000     -0.4658640000
C                  0.0012530000      0.7335100000     -0.2283540000
C                  1.3644250000      1.3200340000     -0.2812870000
O                  1.5800400000      2.4833130000     -0.5238250000
C                  2.5871260000      0.3726600000     -0.0064070000
O                  3.7041700000      0.8242250000     -0.0435440000
H                  0.8030460000     -2.5347730000      0.5309590000
H                 -1.5866520000     -2.2252980000      0.3309350000
H                 -3.5553080000     -0.7916630000     -0.0917400000
H                 -3.2588720000      1.6187790000     -0.6025720000
H                 -0.9576160000      2.5862570000     -0.6867050000
$end
$rem
MAX_SCF_CYCLES=200
BASIS  =  6-311++G(d,p)
GUI  =  2
JOB_TYPE  =  SP
METHOD  =  B3LYP
SOLVENT_METHOD = COSMO
$end
$solvent
dielectric 37.219
opticaldielectric 1.43
$end

--------------------------------------------------------------

             Standard Nuclear Orientation (Angstroms)
    I     Atom           X                Y                Z
 ----------------------------------------------------------------
    1      Br      2.9170620924    -0.6153290981    -0.0000050510
    2      C       1.0638101015    -0.1772717751     0.0000603359
    3      C       0.1194646065    -1.1375656676     0.0000711912
    4      C      -1.3121377139    -0.8548645627     0.0000544099
    5      C      -2.2369625722    -1.9053285380    -0.0000253118
    6      C      -3.6055483580    -1.6413736856    -0.0000909434
    7      C      -4.0691856190    -0.3262736377    -0.0000512426
    8      C      -3.1590041888     0.7283569933     0.0000524280
    9      C      -1.7878400160     0.4729258566     0.0000810471
   10      C      -0.8221396280     1.6009652905     0.0000282825
   11      O      -1.1542792404     2.7620922514     0.0000308647
   12      C       0.7114575166     1.2601514943     0.0000151179
   13      O       1.5159410664     2.1578616908    -0.0001432926
   14      H       0.4168047238    -2.1804952532     0.0000838024
   15      H      -1.8820385855    -2.9300019821    -0.0000159913
   16      H      -4.3097422925    -2.4654327101    -0.0001490715
   17      H      -5.1337710119    -0.1244861203    -0.0000930951
   18      H      -3.4932054475     1.7589723526     0.0000786783
 ----------------------------------------------------------------

    9   -3108.7846776694      7.14e-06  Convergence criterion met
 Total energy in the final basis set =    -3108.7846776694
    5   -3108.8025625025      5.12e-06  Convergence criterion met
 Total energy in the final basis set =    -3108.8025625025

                    Orbital Energies (a.u.)
 --------------------------------------------------------------

 Alpha MOs
 -- Occupied --
******** -62.4983 -56.3188 -56.3149 -56.3147 -19.1542 -19.1531 -10.2977
-10.2959 -10.2534 -10.2284 -10.2208 -10.2107 -10.2042 -10.2027 -10.2016
-10.1982  -8.7071  -6.5388  -6.5256  -6.5251  -2.6496  -2.6459  -2.6456
 -2.6351  -2.6350  -1.1008  -1.0746  -0.9038  -0.8625  -0.8071  -0.7890
 -0.7489  -0.7181  -0.6430  -0.6321  -0.6098  -0.5569  -0.5254  -0.5179
 -0.4837  -0.4749  -0.4707  -0.4681  -0.4545  -0.4481  -0.4171  -0.4158
 -0.4011  -0.3847  -0.3717  -0.3567  -0.3297  -0.3115  -0.3062  -0.2854
 -0.2774  -0.2550

          Ground-State Mulliken Net Atomic Charges

     Atom                 Charge (a.u.)
  ----------------------------------------
      1 Br                   -0.140693
      2 C                     0.815005
      3 C                    -0.215336
      4 C                    -0.512774
      5 C                     0.009717
      6 C                    -0.345633
      7 C                    -0.348042
      8 C                     0.278354
      9 C                     0.763026
     10 C                    -0.385737
     11 O                    -0.274626
     12 C                    -0.503136
     13 O                    -0.253155
     14 H                     0.246164
     15 H                     0.201206
     16 H                     0.233613
     17 H                     0.232681
     18 H                     0.199366
  ----------------------------------------
  Sum of atomic charges =     0.000000

                    Cartesian Multipole Moments
 -----------------------------------------------------------------
    Charge (ESU x 10^10)
                -0.0000
    Dipole Moment (Debye)
         X      -6.1001      Y      -7.9172      Z      -0.0000
       Tot       9.9947
    Quadrupole Moments (Debye-Ang)
        XX     -73.6556     XY       1.8621     YY     -95.0665
        XZ       0.0006     YZ       0.0004     ZZ     -87.7722

 Total job time:  30.25s(wall), 217.83s(cpu)
        *  Thank you very much for using Q-Chem.  Have a nice day.  *
