 Q-Chem 5.4, Q-Chem, Inc., Pleasanton, CA (2021)
 Q-Chem 5.4.0 for Intel X86 EM64T Linux

User input:
--------------------------------------------------------------
$molecule
0 1
C                  0.8951390000      1.2098250000     -1.3149540000
C                 -0.5375880000      1.2594120000     -1.8144890000
C                 -1.4706450000      0.6087220000     -1.0891260000
C                 -1.1056020000     -0.2513590000      0.0629340000
C                  0.2742060000     -0.1162870000      0.6815510000
C                  1.1752020000      0.6463910000      0.0283350000
O                  1.7919590000      1.6354480000     -2.0151150000
O                 -1.8941930000     -1.0546100000      0.5196350000
S                  2.8888490000      0.8672830000      0.6699530000
C                  3.3217840000      2.5882130000      0.3580810000
C                  4.1610490000      2.8989400000     -0.7079930000
C                  2.8610540000      3.5615000000      1.2430340000
C                  3.2370660000      4.8867110000      1.0362440000
C                  4.5403940000      4.2254400000     -0.8939380000
C                  4.0750270000      5.2160250000     -0.0288820000
O                  3.7711340000      0.0001270000     -0.1108040000
O                  2.7968050000      0.7191410000      2.1271040000
H                  4.5012910000      2.1144310000     -1.3702030000
H                  2.2421790000      3.2834220000      2.0869190000
H                  5.1981040000      4.4846510000     -1.7151970000
H                  2.8889860000      5.6564980000      1.7149650000
H                  4.3714710000      6.2475750000     -0.1816690000
S                 -3.2390990000      0.5798980000     -1.6075060000
C                 -4.2066220000      0.7218300000     -0.0942780000
C                 -4.3860510000      1.9857480000      0.4651880000
C                 -4.8112940000     -0.4129990000      0.4385910000
C                 -5.6111520000     -0.2741700000      1.5695330000
C                 -5.1773440000      2.1074560000      1.6050900000
C                 -5.7881610000      0.9801430000      2.1539160000
H                 -3.9356500000      2.8559820000      0.0044060000
H                 -4.6516410000     -1.3758500000     -0.0274530000
H                 -6.0945090000     -1.1460150000      1.9943740000
H                 -5.3285860000      3.0826050000      2.0529760000
H                 -6.4094590000      1.0804930000      3.0366590000
O                 -3.5002060000     -0.7201770000     -2.2252610000
O                 -3.4595470000      1.8204460000     -2.3599790000
C                 -0.7350940000      2.0251750000     -3.0883170000
C                  0.4710010000     -0.8800000000      1.9567430000
H                  0.2307210000      2.1849970000     -3.5634840000
H                 -1.1900810000      2.9965770000     -2.8748200000
H                 -1.4120580000      1.5117130000     -3.7683180000
H                 -0.3346550000     -1.6027370000      2.0692860000
H                  0.4554050000     -0.1956880000      2.8097520000
H                  1.4365410000     -1.3814720000      1.9830260000
$end
$rem
MAX_SCF_CYCLES=200
BASIS  =  6-311++G(d,p)
GUI  =  2
JOB_TYPE  =  SP
METHOD  =  B3LYP
SOLVENT_METHOD = COSMO
$end
$solvent
dielectric 37.219
opticaldielectric 1.43
$end

--------------------------------------------------------------

             Standard Nuclear Orientation (Angstroms)
    I     Atom           X                Y                Z
 ----------------------------------------------------------------
    1      C       1.1514930291     0.8270526479    -0.9435406772
    2      C      -0.2212480550     1.4653723432    -0.8302683232
    3      C      -1.2859359314     0.6396097526    -0.7617103696
    4      C      -1.1513228139    -0.8263189609    -0.9438374610
    5      C       0.2214323173    -1.4647823136    -0.8311012560
    6      C       1.2861588465    -0.6390504751    -0.7626394773
    7      O       2.1211744659     1.5214108950    -1.1743024853
    8      O      -2.1210230272    -1.5204381704    -1.1752327007
    9      S       3.0037888083    -1.2972027097    -0.6458665160
   10      C       3.8789334771    -0.2116178244     0.4951524098
   11      C       4.7579502806     0.7428242826    -0.0086337608
   12      C       3.7069693344    -0.4072306848     1.8644096800
   13      C       4.4223403516     0.3947562723     2.7506334391
   14      C       5.4771277693     1.5273081694     0.8888344521
   15      C       5.3051008795     1.3580396873     2.2628438772
   16      O       3.6115442722    -1.1914855473    -1.9722997109
   17      O       2.8928497981    -2.5994724289     0.0215863298
   18      H       4.8671924244     0.8611450519    -1.0781230891
   19      H       3.0463375674    -1.1850986616     2.2262972479
   20      H       6.1703747390     2.2712161230     0.5143364850
   21      H       4.3017952957     0.2559230572     3.8186166485
   22      H       5.8656635025     1.9748623963     2.9561097759
   23      S      -3.0033321426     1.2981103525    -0.6437891628
   24      C      -3.8790423989     0.2111366212     0.4953877694
   25      C      -3.7059511779     0.4034349756     1.8649667025
   26      C      -4.7596606884    -0.7409591361    -0.0100225146
   27      C      -5.4792883296    -1.5265426140     0.8861196481
   28      C      -4.4218161695    -0.3996205583     2.7498243983
   29      C      -5.3061449784    -1.3606431374     2.2603960113
   30      H      -3.0440803207     1.1796302537     2.2281969128
   31      H      -4.8698792838    -0.8565962624    -1.0797178239
   32      H      -6.1737671644    -2.2686704355     0.5103763667
   33      H      -4.3004130417    -0.2633818424     3.8180434192
   34      H      -5.8670813068    -1.9783021825     2.9526129360
   35      O      -3.6111674508     1.1948470715    -1.9703885914
   36      O      -2.8917619989     2.5992750978     0.0257589574
   37      C      -0.2212571497     2.9647177020    -0.8285769882
   38      C       0.2213230952    -2.9641487427    -0.8302324984
   39      H       0.7462457222     3.3232115791    -1.1743307979
   40      H      -0.3962500603     3.3382494459     0.1843729130
   41      H      -1.0192956881     3.3700667605    -1.4475692941
   42      H      -0.7473347701    -3.3223803590    -1.1729690409
   43      H       0.4001900340    -3.3384424747     0.1817266525
   44      H       1.0170970980    -3.3690781177    -1.4524932091
 ----------------------------------------------------------------

    9   -2019.6877457471      6.50e-06  Convergence criterion met
 Total energy in the final basis set =    -2019.6877457471
    5   -2019.7194400780      3.55e-06  Convergence criterion met
 Total energy in the final basis set =    -2019.7194400780

                    Orbital Energies (a.u.)
 --------------------------------------------------------------

 Alpha MOs
 -- Occupied --
-89.0773 -89.0773 -19.1625 -19.1625 -19.1437 -19.1437 -19.1392 -19.1392
-10.3146 -10.3145 -10.2565 -10.2565 -10.2509 -10.2509 -10.2256 -10.2256
-10.2042 -10.2042 -10.2021 -10.2021 -10.1954 -10.1954 -10.1936 -10.1936
-10.1930 -10.1930 -10.1823 -10.1823  -8.1409  -8.1408  -6.1035  -6.1035
 -6.1028  -6.1028  -6.1018  -6.1018  -1.1379  -1.1378  -1.0996  -1.0979
 -1.0343  -1.0343  -0.8966  -0.8873  -0.8870  -0.8505  -0.7954  -0.7948
 -0.7726  -0.7725  -0.7609  -0.7580  -0.7162  -0.6853  -0.6813  -0.6487
 -0.6316  -0.6316  -0.6118  -0.6076  -0.5933  -0.5714  -0.5546  -0.5544
 -0.5305  -0.5231  -0.5002  -0.4973  -0.4926  -0.4920  -0.4880  -0.4853
 -0.4799  -0.4699  -0.4684  -0.4623  -0.4619  -0.4510  -0.4459  -0.4455
 -0.4429  -0.4326  -0.4308  -0.4200  -0.4150  -0.4058  -0.3958  -0.3948
 -0.3878  -0.3876  -0.3688  -0.3688  -0.3670  -0.3658  -0.3573  -0.3561
 -0.3391  -0.3386  -0.3279  -0.3235  -0.3233  -0.3187  -0.3081  -0.2934
 -0.2831  -0.2820  -0.2778  -0.2761

          Ground-State Mulliken Net Atomic Charges

     Atom                 Charge (a.u.)
  ----------------------------------------
      1 C                    -0.997800
      2 C                     0.625899
      3 C                     0.103254
      4 C                    -0.997087
      5 C                     0.622696
      6 C                     0.101183
      7 O                    -0.158028
      8 O                    -0.158153
      9 S                     0.542742
     10 C                     0.177909
     11 C                    -0.219567
     12 C                     0.150788
     13 C                    -0.526315
     14 C                    -0.425593
     15 C                    -0.302660
     16 O                    -0.122240
     17 O                    -0.153814
     18 H                     0.280014
     19 H                     0.273123
     20 H                     0.241035
     21 H                     0.239148
     22 H                     0.220567
     23 S                     0.541058
     24 C                     0.176590
     25 C                     0.149597
     26 C                    -0.218777
     27 C                    -0.424536
     28 C                    -0.526173
     29 C                    -0.301630
     30 H                     0.273211
     31 H                     0.280471
     32 H                     0.240942
     33 H                     0.239075
     34 H                     0.220646
     35 O                    -0.121542
     36 O                    -0.153827
     37 C                    -0.638998
     38 C                    -0.638422
     39 H                     0.210201
     40 H                     0.247291
     41 H                     0.235209
     42 H                     0.210084
     43 H                     0.247204
     44 H                     0.235173
  ----------------------------------------
  Sum of atomic charges =    -0.000050

                    Cartesian Multipole Moments
 -----------------------------------------------------------------
    Charge (ESU x 10^10)
                -0.0002
    Dipole Moment (Debye)
         X      -0.0029      Y      -0.0057      Z       8.7168
       Tot       8.7168
    Quadrupole Moments (Debye-Ang)
        XX    -176.5183     XY      39.4257     YY    -183.8245
        XZ       0.0471     YZ      -0.0225     ZZ    -169.6251

 Total job time:  229.17s(wall), 1567.97s(cpu)
        *  Thank you very much for using Q-Chem.  Have a nice day.  *
