 Gaussian 16, Revision A.03,
 Gaussian 16:  ES64L-G16RevA.03 25-Dec-2016

 --------------------------------------
 #P UB3LYP/6-311++G(d,p) nosym opt freq
 --------------------------------------

 --------
 Oxidized
 --------
 Symbolic Z-matrix:
 Charge =  0 Multiplicity = 1

 SCF Done:  E(UB3LYP) =  -727.163877304     A.U. after   16 cycles
 SCF Done:  E(UB3LYP) =  -727.213672436     A.U. after   14 cycles
 SCF Done:  E(UB3LYP) =  -727.228046194     A.U. after   13 cycles
 SCF Done:  E(UB3LYP) =  -727.230149616     A.U. after   13 cycles
 SCF Done:  E(UB3LYP) =  -727.230361936     A.U. after   11 cycles
 SCF Done:  E(UB3LYP) =  -727.230378271     A.U. after   11 cycles
 SCF Done:  E(UB3LYP) =  -727.230379924     A.U. after    9 cycles
 Optimization completed.
    -- Stationary point found.
 Normal termination of Gaussian 16 at Wed Dec 20 01:58:13 2023.

 ----------------------------------------------------------------------
 #P Geom=AllCheck Guess=TCheck SCRF=Check GenChk UB3LYP/6-311++G(d,p) F
 req
 ----------------------------------------------------------------------

 Structure from the checkpoint file:  "065.chk"
 --------
 Oxidized
 --------
 Charge =  0 Multiplicity = 1

                          Input orientation:
 ---------------------------------------------------------------------
 Center     Atomic      Atomic             Coordinates (Angstroms)
 Number     Number       Type             X           Y           Z
 ---------------------------------------------------------------------
      1          6           0       -1.355049   -2.031044    1.125290
      2          6           0       -1.420437   -1.997939   -0.355972
      3          6           0       -0.792589   -1.048963   -1.060332
      4          6           0       -0.003121    0.011466   -0.381313
      5          6           0        0.062865   -0.020522    1.097211
      6          6           0       -0.563080   -0.968060    1.814286
      7          8           0       -1.930234   -2.899642    1.762776
      8          8           0        0.568989    0.876264   -1.025144
      9          6           0       -0.532895   -1.052719    3.312847
     10          8           0        0.247148    0.010830    3.825728
     11          6           0        0.402719    0.115598    5.185420
     12          6           0       -0.159766   -0.762882    6.113482
     13          6           0        1.185464    1.190255    5.620779
     14          6           0        1.402492    1.382243    6.978446
     15          6           0        0.068533   -0.555368    7.476700
     16          6           0        0.845106    0.510051    7.917126
     17          1           0       -2.004633   -2.786089   -0.818007
     18          1           0       -0.824138   -1.001745   -2.143208
     19          1           0        0.642650    0.760384    1.573023
     20          1           0       -0.119859   -2.024390    3.612230
     21          1           0       -1.559445   -1.010223    3.698509
     22          1           0       -0.768081   -1.600123    5.798892
     23          1           0        1.611264    1.858362    4.881861
     24          1           0        2.010481    2.217761    7.306692
     25          1           0       -0.370719   -1.240684    8.192941
     26          1           0        1.016266    0.662469    8.976006
 ---------------------------------------------------------------------

 SCF Done:  E(UB3LYP) =  -727.230379924     A.U. after    1 cycles

 Alpha  occ. eigenvalues --  -19.17289 -19.15102 -19.14504 -10.29720 -10.29067
 Alpha  occ. eigenvalues --  -10.25774 -10.24899 -10.23166 -10.22400 -10.22317
 Alpha  occ. eigenvalues --  -10.21517 -10.18706 -10.18591 -10.18562 -10.18153
 Alpha  occ. eigenvalues --  -10.17833  -1.09084  -1.08130  -1.07377  -0.88065
 Alpha  occ. eigenvalues --   -0.86568  -0.82242  -0.76868  -0.76020  -0.73346
 Alpha  occ. eigenvalues --   -0.70446  -0.64921  -0.62856  -0.60863  -0.60176
 Alpha  occ. eigenvalues --   -0.56078  -0.52692  -0.52043  -0.50695  -0.50087
 Alpha  occ. eigenvalues --   -0.49559  -0.48465  -0.46523  -0.45599  -0.45456
 Alpha  occ. eigenvalues --   -0.44749  -0.43775  -0.43150  -0.42669  -0.41342
 Alpha  occ. eigenvalues --   -0.39784  -0.38547  -0.37506  -0.34803  -0.34247
 Alpha  occ. eigenvalues --   -0.32131  -0.30579  -0.29739  -0.28504  -0.26799
 Alpha  occ. eigenvalues --   -0.24051
 Alpha virt. eigenvalues --   -0.14334  -0.04174  -0.02487  -0.01383  -0.01227
 Alpha virt. eigenvalues --   -0.00806  -0.00562   0.00313   0.00676   0.01933
 Alpha virt. eigenvalues --    0.02438   0.02451   0.03084   0.03765   0.05002

  Beta  occ. eigenvalues --  -19.17289 -19.15102 -19.14504 -10.29720 -10.29067
  Beta  occ. eigenvalues --  -10.25774 -10.24899 -10.23166 -10.22400 -10.22317
  Beta  occ. eigenvalues --  -10.21517 -10.18706 -10.18591 -10.18562 -10.18153
  Beta  occ. eigenvalues --  -10.17833  -1.09084  -1.08130  -1.07377  -0.88065
  Beta  occ. eigenvalues --   -0.86568  -0.82242  -0.76868  -0.76020  -0.73346
  Beta  occ. eigenvalues --   -0.70446  -0.64921  -0.62856  -0.60863  -0.60176
  Beta  occ. eigenvalues --   -0.56078  -0.52692  -0.52043  -0.50695  -0.50087
  Beta  occ. eigenvalues --   -0.49559  -0.48465  -0.46523  -0.45599  -0.45456
  Beta  occ. eigenvalues --   -0.44749  -0.43775  -0.43150  -0.42669  -0.41342
  Beta  occ. eigenvalues --   -0.39784  -0.38547  -0.37506  -0.34803  -0.34247
  Beta  occ. eigenvalues --   -0.32131  -0.30579  -0.29739  -0.28504  -0.26799
  Beta  occ. eigenvalues --   -0.24051
  Beta virt. eigenvalues --   -0.14334  -0.04174  -0.02487  -0.01383  -0.01227
  Beta virt. eigenvalues --   -0.00806  -0.00562   0.00313   0.00676   0.01933
  Beta virt. eigenvalues --    0.02438   0.02451   0.03084   0.03765   0.05002

 Mulliken charges and spin densities:
               1          2
     1  C   -1.219343   0.000000
     2  C    0.288334   0.000000
     3  C    0.151845  -0.000000
     4  C   -0.478755   0.000000
     5  C   -0.403548  -0.000000
     6  C    0.770978   0.000000
     7  O   -0.204465   0.000000
     8  O   -0.213196  -0.000000
     9  C   -0.111208   0.000000
    10  O   -0.094451  -0.000000
    11  C    0.523107   0.000000
    12  C   -0.005117  -0.000000
    13  C   -0.095261  -0.000000
    14  C   -0.207738  -0.000000
    15  C   -0.325472  -0.000000
    16  C   -0.350268  -0.000000
    17  H    0.222589  -0.000000
    18  H    0.229379   0.000000
    19  H    0.232811   0.000000
    20  H    0.237785   0.000000
    21  H    0.237765   0.000000
    22  H    0.142887  -0.000000
    23  H    0.158254  -0.000000
    24  H    0.178390  -0.000000
    25  H    0.187005   0.000000
    26  H    0.147694   0.000000
 Sum of Mulliken charges =  -0.00000  -0.00000

 Dipole moment (field-independent basis, Debye):
    X=             -0.6271    Y=             -0.9507    Z=              0.7095  Tot=              1.3418
 Quadrupole moment (field-independent basis, Debye-Ang):
   XX=            -95.6783   YY=            -96.9480   ZZ=            -82.1995
   XY=             -0.7699   XZ=              4.8247   YZ=              5.6874

  Exact polarizability: 118.138  45.502 151.392   0.457 -10.125 212.856
 Approx polarizability: 201.955  98.802 279.435 -32.907 -60.456 296.895

                      1                      2                      3
                      A                      A                      A
 Frequencies --     30.8935                32.6493                66.0193
 Red. masses --      4.2011                 5.6568                 6.3534
 Frc consts  --      0.0024                 0.0036                 0.0163
 IR Inten    --      0.0046                 0.2266                 0.0479

                      4                      5                      6
                      A                      A                      A
 Frequencies --     80.1781               110.7427               171.8288
 Red. masses --      7.0994                 4.2335                 3.3095
 Frc consts  --      0.0269                 0.0306                 0.0576
 IR Inten    --      6.5679                11.0850                 0.2885

                      7                      8                      9
                      A                      A                      A
 Frequencies --    184.0963               229.9342               235.8821
 Red. masses --      6.9490                 7.3532                 4.9559
 Frc consts  --      0.1388                 0.2291                 0.1625
 IR Inten    --      0.0749                 1.8319                 0.5976

                     10                     11                     12
                      A                      A                      A
 Frequencies --    259.8403               382.8073               421.7487
 Red. masses --      4.0055                 3.1308                 3.0052
 Frc consts  --      0.1593                 0.2703                 0.3149
 IR Inten    --      0.4268                 1.7141                 0.0120

                     13                     14                     15
                      A                      A                      A
 Frequencies --    423.5271               447.5787               459.8264
 Red. masses --      9.6847                 6.2319                 8.2112
 Frc consts  --      1.0235                 0.7355                 1.0229
 IR Inten    --     31.7787                 1.6494                 0.7963

                     16                     17                     18
                      A                      A                      A
 Frequencies --    497.2955               515.4664               580.7107
 Red. masses --      6.6505                 2.8022                 2.2238
 Frc consts  --      0.9690                 0.4387                 0.4418
 IR Inten    --      0.5932                 9.8450                 0.5350

                     19                     20                     21
                      A                      A                      A
 Frequencies --    589.5438               605.3787               629.5012
 Red. masses --      5.0291                 7.1204                 6.3887
 Frc consts  --      1.0298                 1.5375                 1.4916
 IR Inten    --      1.4077                 5.2443                 0.3760

                     22                     23                     24
                      A                      A                      A
 Frequencies --    701.1899               723.3495               764.1874
 Red. masses --      2.0938                 5.6321                 1.6780
 Frc consts  --      0.6065                 1.7363                 0.5774
 IR Inten    --     26.8462                 0.4912                66.2367

                     25                     26                     27
                      A                      A                      A
 Frequencies --    779.3993               784.7238               817.9549
 Red. masses --      7.5875                 5.5850                 1.4215
 Frc consts  --      2.7156                 2.0263                 0.5604
 IR Inten    --      0.0004                 8.3263                10.3967

                     28                     29                     30
                      A                      A                      A
 Frequencies --    827.1351               852.1888               894.4401
 Red. masses --      1.2800                 6.7755                 1.4588
 Frc consts  --      0.5160                 2.8991                 0.6876
 IR Inten    --      3.9057                20.8205                 3.8985

                     31                     32                     33
                      A                      A                      A
 Frequencies --    913.4235               933.4768               968.9584
 Red. masses --      2.9953                 1.5790                 1.3449
 Frc consts  --      1.4724                 0.8106                 0.7439
 IR Inten    --      5.3114                51.6951                 0.0329

                     34                     35                     36
                      A                      A                      A
 Frequencies --    989.1079              1010.0167              1010.7912
 Red. masses --      1.2755                 1.2499                 5.9108
 Frc consts  --      0.7352                 0.7513                 3.5581
 IR Inten    --      0.0731                 0.0039                 0.7686

                     37                     38                     39
                      A                      A                      A
 Frequencies --   1027.9213              1039.7534              1054.9480
 Red. masses --      1.6914                 3.0576                 2.8935
 Frc consts  --      1.0530                 1.9475                 1.8973
 IR Inten    --      0.0104                24.3046               116.5833

                     40                     41                     42
                      A                      A                      A
 Frequencies --   1101.7471              1113.7317              1144.4918
 Red. masses --      1.7257                 2.0167                 1.7506
 Frc consts  --      1.2342                 1.4739                 1.3510
 IR Inten    --      0.5065                17.2707                24.3848

                     43                     44                     45
                      A                      A                      A
 Frequencies --   1179.7138              1197.7466              1222.7918
 Red. masses --      1.1186                 1.1581                 1.6400
 Frc consts  --      0.9172                 0.9789                 1.4448
 IR Inten    --      4.9975                20.4016                 3.4785

                     46                     47                     48
                      A                      A                      A
 Frequencies --   1254.6979              1262.7167              1290.3524
 Red. masses --      1.0671                 4.7738                 3.3348
 Frc consts  --      0.9898                 4.4846                 3.2714
 IR Inten    --      0.8095               468.9482                30.3315

                     49                     50                     51
                      A                      A                      A
 Frequencies --   1328.8419              1343.5343              1357.0394
 Red. masses --      2.8810                 2.0577                 1.8337
 Frc consts  --      2.9974                 2.1884                 1.9895
 IR Inten    --     48.0790                10.0252                 4.3274

                     52                     53                     54
                      A                      A                      A
 Frequencies --   1386.5890              1430.3077              1483.9009
 Red. masses --      1.7947                 1.8301                 1.3637
 Frc consts  --      2.0330                 2.2059                 1.7692
 IR Inten    --      3.3940                28.5819                26.4403

                     55                     56                     57
                      A                      A                      A
 Frequencies --   1488.0889              1525.3811              1625.9242
 Red. masses --      1.6270                 2.1985                 5.8750
 Frc consts  --      2.1228                 3.0139                 9.1507
 IR Inten    --     20.9743               108.5235                41.7696

                     58                     59                     60
                      A                      A                      A
 Frequencies --   1641.6822              1652.2079              1687.0804
 Red. masses --      5.7635                 7.7910                 9.4985
 Frc consts  --      9.1520                12.5306                15.9285
 IR Inten    --     87.8892                21.3796                 8.5368

                     61                     62                     63
                      A                      A                      A
 Frequencies --   1719.7836              1724.3147              3001.4845
 Red. masses --     11.4834                 8.9174                 1.0555
 Frc consts  --     20.0110                15.6215                 5.6026
 IR Inten    --    395.8524                76.7616                15.4369

                     64                     65                     66
                      A                      A                      A
 Frequencies --   3030.7743              3165.9882              3173.5513
 Red. masses --      1.1044                 1.0855                 1.0893
 Frc consts  --      5.9769                 6.4106                 6.4640
 IR Inten    --     11.2534                 1.9656                 9.5767

                     67                     68                     69
                      A                      A                      A
 Frequencies --   3176.7014              3187.8729              3194.4405
 Red. masses --      1.0873                 1.0925                 1.0994
 Frc consts  --      6.4650                 6.5416                 6.6100
 IR Inten    --      0.8462                20.2614                 3.2291

                     70                     71                     72
                      A                      A                      A
 Frequencies --   3195.0564              3204.7187              3207.0640
 Red. masses --      1.0963                 1.0929                 1.0919
 Frc consts  --      6.5938                 6.6135                 6.6169
 IR Inten    --      8.4625                 3.6041                 0.2859

 - Thermochemistry -
 -------------------
 Temperature   298.150 Kelvin.  Pressure   1.00000 Atm.
 Atom     1 has atomic number  6 and mass  12.00000

 Molecular mass:   214.06299 amu.
 Principal axes and moments of inertia in atomic units:
                           1         2         3
     Eigenvalues --  1395.162337502.547678886.52181
           X            0.18644   0.54695   0.81614
           Y            0.18236   0.79701  -0.57578
           Z            0.96539  -0.25618  -0.04885
 This molecule is an asymmetric top.
 Rotational symmetry number  1.
 Warning -- assumption of classical behavior for rotation
           may cause significant error
 Rotational temperatures (Kelvin)      0.06208     0.01154     0.00975
 Rotational constants (GHZ):           1.29357     0.24055     0.20309
 Zero-point vibrational energy     518872.6 (Joules/Mol)
                                  124.01354 (Kcal/Mol)
 Warning -- explicit consideration of  20 degrees of freedom as
           vibrations may cause significant error
 Vibrational temperatures:     44.45    46.98    94.99   115.36   159.33
          (Kelvin)            247.22   264.87   330.82   339.38   373.85
                              550.77   606.80   609.36   643.97   661.59
                              715.50   741.64   835.51   848.22   871.00
                              905.71  1008.86  1040.74  1099.50  1121.38
                             1129.04  1176.85  1190.06  1226.11  1286.90
                             1314.21  1343.06  1394.11  1423.11  1453.19
                             1454.30  1478.95  1495.97  1517.83  1585.17
                             1602.41  1646.67  1697.34  1723.29  1759.32
                             1805.23  1816.77  1856.53  1911.91  1933.05
                             1952.48  1994.99  2057.89  2135.00  2141.03
                             2194.68  2339.34  2362.01  2377.16  2427.33
                             2474.38  2480.90  4318.47  4360.61  4555.15
                             4566.03  4570.56  4586.64  4596.09  4596.97
                             4610.88  4614.25

 Zero-point correction=                           0.197628 (Hartree/Particle)
 Thermal correction to Energy=                    0.210996
 Thermal correction to Enthalpy=                  0.211940
 Thermal correction to Gibbs Free Energy=         0.155567
 Sum of electronic and zero-point Energies=           -727.032752
 Sum of electronic and thermal Energies=              -727.019384
 Sum of electronic and thermal Enthalpies=            -727.018440
 Sum of electronic and thermal Free Energies=         -727.074813

                     E (Thermal)             CV                S
                      KCal/Mol        Cal/Mol-Kelvin    Cal/Mol-Kelvin
 Total                  132.402             50.936            118.647
 Electronic               0.000              0.000              0.000
 Translational            0.889              2.981             41.987
 Rotational               0.889              2.981             32.897
 Vibrational            130.624             44.974             43.763
 Vibration     1          0.594              1.984              5.771
 Vibration     2          0.594              1.983              5.662
 Vibration     3          0.597              1.970              4.269
 Vibration     4          0.600              1.963              3.887
 Vibration     5          0.607              1.941              3.256
 Vibration     6          0.626              1.877              2.415
 Vibration     7          0.631              1.862              2.286
 Vibration     8          0.652              1.795              1.879
 Vibration     9          0.655              1.786              1.834
 Vibration    10          0.668              1.746              1.663
 Vibration    11          0.752              1.507              1.028
 Vibration    12          0.784              1.423              0.886
 Vibration    13          0.786              1.419              0.880
 Vibration    14          0.807              1.366              0.803
 Vibration    15          0.818              1.339              0.767
 Vibration    16          0.853              1.256              0.665
 Vibration    17          0.871              1.216              0.621
 Vibration    18          0.937              1.073              0.484
 Vibration    19          0.947              1.054              0.468
 Vibration    20          0.964              1.020              0.440

 Optimization completed.
    -- Stationary point found.
 Normal termination of Gaussian 16 at Wed Dec 20 02:44:28 2023.
