 Q-Chem 5.4, Q-Chem, Inc., Pleasanton, CA (2021)
 Q-Chem 5.4.0 for Intel X86 EM64T Linux

User input:
--------------------------------------------------------------
$molecule
0 1
C                  0.3110660000      1.8087550000     -2.1458290000
C                 -1.1428580000      2.0948220000     -2.0349620000
C                 -2.0428760000      1.1224430000     -1.8427610000
C                 -1.6210410000     -0.2950340000     -1.7309010000
C                 -0.1702340000     -0.5842800000     -1.8360540000
C                  0.7478910000      0.3864920000     -1.9838900000
O                  1.1019290000      2.7010310000     -2.3971250000
O                 -2.4323330000     -1.1890320000     -1.5557010000
C                  3.2770850000      0.7833050000     -1.3912770000
C                  4.4892130000      0.9199060000     -2.0849140000
C                  3.1474070000      1.3104750000     -0.0881910000
C                  4.2486430000      1.9787320000      0.4574150000
C                  5.5599050000      1.6063490000     -1.5306910000
C                  5.4357990000      2.1411040000     -0.2504650000
H                 -1.4203210000      3.1379750000     -2.1406740000
H                 -3.1078730000      1.3133790000     -1.7706060000
H                  0.1166780000     -1.6284110000     -1.7727760000
H                  4.5664390000      0.4849500000     -3.0735280000
H                  4.1726010000      2.3733640000      1.4651220000
H                  6.4818920000      1.7198590000     -2.0887280000
H                  6.2637570000      2.6751770000      0.2022930000
C                  2.2134400000      0.0190010000     -2.1121480000
O                  2.4960340000     -0.9083390000     -2.8490370000
C                  1.9099890000      1.1522740000      0.7669090000
H                  1.5067060000      0.1386290000      0.7344960000
H                  1.1131820000      1.8380510000      0.4627210000
H                  2.1450080000      1.3797840000      1.8081130000
$end
$rem
MAX_SCF_CYCLES=200
BASIS  =  6-311++G(d,p)
GUI  =  2
JOB_TYPE  =  SP
METHOD  =  B3LYP
SOLVENT_METHOD = COSMO
$end
$solvent
dielectric 37.219
opticaldielectric 1.43
$end

--------------------------------------------------------------

             Standard Nuclear Orientation (Angstroms)
    I     Atom           X                Y                Z
 ----------------------------------------------------------------
    1      C      -1.1769528375    -0.6688372162     1.1020876137
    2      C      -2.5007746044    -1.3419150755     1.1519167497
    3      C      -3.5382578588    -0.9181258645     0.4194375720
    4      C      -3.4071677248     0.2525654982    -0.4816704030
    5      C      -2.0860610809     0.9241752230    -0.5380527225
    6      C      -1.0240843303     0.4819704783     0.1575532144
    7      O      -0.2711386634    -1.0256436755     1.8348633346
    8      O      -4.3456769768     0.6473188059    -1.1536022324
    9      C       1.5949133578     0.5121821669    -0.0555462420
   10      C       2.6765200521     1.1086820141     0.6103075710
   11      C       1.7958149142    -0.6582672790    -0.8187266762
   12      C       3.0867561905    -1.1955370921    -0.8609856657
   13      C       3.9432220938     0.5441757919     0.5709737737
   14      C       4.1472708423    -0.6181724101    -0.1690631076
   15      H      -2.5693451844    -2.1817920250     1.8347298354
   16      H      -4.5133211282    -1.3914465329     0.4526140032
   17      H      -2.0156351376     1.7907561248    -1.1865971491
   18      H       2.4964414806     2.0187286650     1.1687831921
   19      H       3.2627806214    -2.0839328109    -1.4582784295
   20      H       4.7628670022     1.0070994284     1.1078478487
   21      H       5.1314946547    -1.0706198016    -0.2173649783
   22      C       0.2911575532     1.2320985781     0.0752109838
   23      O       0.2487042927     2.4469089154     0.1477217259
   24      C       0.7121739474    -1.3335308508    -1.6293858133
   25      H       0.1076670740    -0.6213429355    -2.1937649235
   26      H       0.0358070152    -1.9191274486    -0.9990476294
   27      H       1.1589512954    -2.0257788034    -2.3451254821
 ----------------------------------------------------------------

    9    -765.3475801531      5.85e-06  Convergence criterion met
 Total energy in the final basis set =     -765.3475801531
    5    -765.3677090046      6.10e-06  Convergence criterion met
 Total energy in the final basis set =     -765.3677090046

                    Orbital Energies (a.u.)
 --------------------------------------------------------------

 Alpha MOs
 -- Occupied --
-19.1538 -19.1534 -19.1415 -10.3008 -10.2971 -10.2941 -10.2320 -10.2251
-10.2181 -10.2168 -10.2054 -10.1994 -10.1890 -10.1875 -10.1823 -10.1821
-10.1735  -1.0866  -1.0825  -1.0762  -0.8792  -0.8744  -0.8119  -0.7878
 -0.7735  -0.7257  -0.7028  -0.6762  -0.6352  -0.6248  -0.6077  -0.5680
 -0.5368  -0.5273  -0.5136  -0.4968  -0.4872  -0.4794  -0.4644  -0.4597
 -0.4589  -0.4478  -0.4427  -0.4365  -0.4280  -0.4221  -0.4177  -0.4099
 -0.3950  -0.3710  -0.3657  -0.3555  -0.3227  -0.3134  -0.3050  -0.3018
 -0.2781  -0.2687  -0.2616

          Ground-State Mulliken Net Atomic Charges

     Atom                 Charge (a.u.)
  ----------------------------------------
      1 C                    -1.049904
      2 C                    -0.092082
      3 C                     0.190535
      4 C                    -0.417850
      5 C                     0.113473
      6 C                     1.581750
      7 O                    -0.218679
      8 O                    -0.295321
      9 C                     0.604516
     10 C                    -0.097772
     11 C                     0.471700
     12 C                    -0.161460
     13 C                    -0.611612
     14 C                    -0.268262
     15 H                     0.277317
     16 H                     0.274999
     17 H                     0.295954
     18 H                     0.245856
     19 H                     0.197034
     20 H                     0.214947
     21 H                     0.217139
     22 C                    -1.098716
     23 O                    -0.264209
     24 C                    -0.690934
     25 H                     0.190001
     26 H                     0.198928
     27 H                     0.192650
  ----------------------------------------
  Sum of atomic charges =     0.000000

                    Cartesian Multipole Moments
 -----------------------------------------------------------------
    Charge (ESU x 10^10)
                -0.0000
    Dipole Moment (Debye)
         X       1.0358      Y      -4.6346      Z      -0.6830
       Tot       4.7978
    Quadrupole Moments (Debye-Ang)
        XX     -93.4293     XY       6.8231     YY    -102.1076
        XZ     -10.2555     YZ       4.9164     ZZ    -100.6804

 Total job time:  55.13s(wall), 412.43s(cpu)
        *  Thank you very much for using Q-Chem.  Have a nice day.  *
