 Gaussian 16, Revision A.03,
 Gaussian 16:  ES64L-G16RevA.03 25-Dec-2016

 --------------------------------------
 #P UB3LYP/6-311++G(d,p) nosym opt freq
 --------------------------------------

 --------
 Oxidized
 --------
 Symbolic Z-matrix:
 Charge =  0 Multiplicity = 1

 SCF Done:  E(UB3LYP) =  -765.347597175     A.U. after   16 cycles
 Optimization completed.
    -- Stationary point found.
 Normal termination of Gaussian 16 at Wed Jan 10 04:53:34 2024.

 ----------------------------------------------------------------------
 #P Geom=AllCheck Guess=TCheck SCRF=Check GenChk UB3LYP/6-311++G(d,p) F
 req
 ----------------------------------------------------------------------

 Structure from the checkpoint file:  "077.chk"
 --------
 Oxidized
 --------
 Charge =  0 Multiplicity = 1

                          Input orientation:
 ---------------------------------------------------------------------
 Center     Atomic      Atomic             Coordinates (Angstroms)
 Number     Number       Type             X           Y           Z
 ---------------------------------------------------------------------
      1          6           0        0.311066    1.808755   -2.145829
      2          6           0       -1.142858    2.094822   -2.034962
      3          6           0       -2.042876    1.122443   -1.842761
      4          6           0       -1.621041   -0.295034   -1.730901
      5          6           0       -0.170234   -0.584280   -1.836054
      6          6           0        0.747891    0.386492   -1.983890
      7          8           0        1.101929    2.701031   -2.397125
      8          8           0       -2.432333   -1.189032   -1.555701
      9          6           0        3.277085    0.783305   -1.391277
     10          6           0        4.489213    0.919906   -2.084914
     11          6           0        3.147407    1.310475   -0.088191
     12          6           0        4.248643    1.978732    0.457415
     13          6           0        5.559905    1.606349   -1.530691
     14          6           0        5.435799    2.141104   -0.250465
     15          1           0       -1.420321    3.137975   -2.140674
     16          1           0       -3.107873    1.313379   -1.770606
     17          1           0        0.116678   -1.628411   -1.772776
     18          1           0        4.566439    0.484950   -3.073528
     19          1           0        4.172601    2.373364    1.465122
     20          1           0        6.481892    1.719859   -2.088728
     21          1           0        6.263757    2.675177    0.202293
     22          6           0        2.213440    0.019001   -2.112148
     23          8           0        2.496034   -0.908339   -2.849037
     24          6           0        1.909989    1.152274    0.766909
     25          1           0        1.506706    0.138629    0.734496
     26          1           0        1.113182    1.838051    0.462721
     27          1           0        2.145008    1.379784    1.808113
 ---------------------------------------------------------------------

 SCF Done:  E(UB3LYP) =  -765.347597175     A.U. after    1 cycles

 Alpha  occ. eigenvalues --  -19.15374 -19.15196 -19.13598 -10.30182 -10.29736
 Alpha  occ. eigenvalues --  -10.28938 -10.23489 -10.22924 -10.22884 -10.22821
 Alpha  occ. eigenvalues --  -10.20951 -10.20117 -10.19317 -10.19132 -10.18855
 Alpha  occ. eigenvalues --  -10.18730 -10.18728  -1.08582  -1.08066  -1.07000
 Alpha  occ. eigenvalues --   -0.88334  -0.87913  -0.81921  -0.79412  -0.77652
 Alpha  occ. eigenvalues --   -0.72945  -0.71115  -0.68139  -0.64076  -0.62988
 Alpha  occ. eigenvalues --   -0.61251  -0.57100  -0.54075  -0.52958  -0.51812
 Alpha  occ. eigenvalues --   -0.49819  -0.49206  -0.48410  -0.46610  -0.46205
 Alpha  occ. eigenvalues --   -0.45669  -0.45096  -0.44694  -0.44041  -0.43225
 Alpha  occ. eigenvalues --   -0.42771  -0.42362  -0.41180  -0.40369  -0.37464
 Alpha  occ. eigenvalues --   -0.37016  -0.36171  -0.32590  -0.32019  -0.30409
 Alpha  occ. eigenvalues --   -0.29889  -0.27513  -0.26830  -0.26458
 Alpha virt. eigenvalues --   -0.15057  -0.08516  -0.05004  -0.02677  -0.01840
 Alpha virt. eigenvalues --   -0.01287  -0.00614   0.00245   0.00927   0.01476
 Alpha virt. eigenvalues --    0.01839   0.02458   0.03011   0.03201   0.04294

  Beta  occ. eigenvalues --  -19.15374 -19.15196 -19.13598 -10.30182 -10.29736
  Beta  occ. eigenvalues --  -10.28938 -10.23489 -10.22924 -10.22884 -10.22821
  Beta  occ. eigenvalues --  -10.20951 -10.20117 -10.19317 -10.19132 -10.18855
  Beta  occ. eigenvalues --  -10.18730 -10.18728  -1.08582  -1.08066  -1.07000
  Beta  occ. eigenvalues --   -0.88334  -0.87913  -0.81921  -0.79412  -0.77652
  Beta  occ. eigenvalues --   -0.72945  -0.71115  -0.68139  -0.64076  -0.62988
  Beta  occ. eigenvalues --   -0.61251  -0.57100  -0.54075  -0.52958  -0.51812
  Beta  occ. eigenvalues --   -0.49819  -0.49206  -0.48410  -0.46610  -0.46205
  Beta  occ. eigenvalues --   -0.45669  -0.45096  -0.44694  -0.44041  -0.43225
  Beta  occ. eigenvalues --   -0.42771  -0.42362  -0.41180  -0.40369  -0.37464
  Beta  occ. eigenvalues --   -0.37016  -0.36171  -0.32590  -0.32019  -0.30409
  Beta  occ. eigenvalues --   -0.29889  -0.27513  -0.26830  -0.26458
  Beta virt. eigenvalues --   -0.15057  -0.08516  -0.05004  -0.02677  -0.01840
  Beta virt. eigenvalues --   -0.01287  -0.00614   0.00245   0.00927   0.01476
  Beta virt. eigenvalues --    0.01839   0.02458   0.03011   0.03201   0.04294

 Mulliken charges and spin densities:
               1          2
     1  C   -1.133219   0.000000
     2  C   -0.037030  -0.000000
     3  C    0.224084  -0.000000
     4  C   -0.491421   0.000000
     5  C    0.110496   0.000000
     6  C    1.592703  -0.000000
     7  O   -0.145485  -0.000000
     8  O   -0.209816  -0.000000
     9  C    0.661730   0.000000
    10  C   -0.114650   0.000000
    11  C    0.537490   0.000000
    12  C   -0.136893  -0.000000
    13  C   -0.533840  -0.000000
    14  C   -0.206570  -0.000000
    15  H    0.234059  -0.000000
    16  H    0.231703  -0.000000
    17  H    0.264098   0.000000
    18  H    0.222937  -0.000000
    19  H    0.144694   0.000000
    20  H    0.168936   0.000000
    21  H    0.170369  -0.000000
    22  C   -1.246552  -0.000000
    23  O   -0.172873   0.000000
    24  C   -0.655784  -0.000000
    25  H    0.170869   0.000000
    26  H    0.181888  -0.000000
    27  H    0.168077   0.000000
 Sum of Mulliken charges =  -0.00000  -0.00000

 Dipole moment (field-independent basis, Debye):
    X=              0.1010    Y=              2.6286    Z=              2.2956  Tot=              3.4914
 Quadrupole moment (field-independent basis, Debye-Ang):
   XX=            -92.8688   YY=           -103.9077   ZZ=           -102.5610
   XY=             -2.2433   XZ=              6.9008   YZ=             -1.3775

  Exact polarizability: 227.512  43.153 155.494  -1.462  13.942 133.596
 Approx polarizability: 338.734 102.017 290.314 -23.288  20.593 222.951

                      1                      2                      3
                      A                      A                      A
 Frequencies --     29.8643                41.8041                61.3552
 Red. masses --      8.2512                 4.8081                 4.7322
 Frc consts  --      0.0043                 0.0050                 0.0105
 IR Inten    --      0.7922                 0.2186                 3.5471

                      4                      5                      6
                      A                      A                      A
 Frequencies --     89.4919               116.5002               143.9330
 Red. masses --      7.7851                 6.8746                 2.0283
 Frc consts  --      0.0367                 0.0550                 0.0248
 IR Inten    --      4.3350                 8.7346                 0.8343

                      7                      8                      9
                      A                      A                      A
 Frequencies --    162.3139               184.5580               217.5127
 Red. masses --      1.5597                 5.0534                 4.3424
 Frc consts  --      0.0242                 0.1014                 0.1210
 IR Inten    --      0.3639                 2.1789                 1.4975

                     10                     11                     12
                      A                      A                      A
 Frequencies --    251.3376               257.5852               323.2676
 Red. masses --      4.3154                 5.4410                 6.3146
 Frc consts  --      0.1606                 0.2127                 0.3888
 IR Inten    --      2.8979                 0.7080                 0.8156

                     13                     14                     15
                      A                      A                      A
 Frequencies --    346.0012               402.4766               427.4968
 Red. masses --      3.8044                 4.8309                 7.2544
 Frc consts  --      0.2683                 0.4611                 0.7811
 IR Inten    --      1.4159                 8.0831                16.8957

                     16                     17                     18
                      A                      A                      A
 Frequencies --    429.5158               468.4804               478.9283
 Red. masses --      3.8455                 9.4408                 3.2714
 Frc consts  --      0.4180                 1.2208                 0.4421
 IR Inten    --      5.9055                 0.7548                10.0023

                     19                     20                     21
                      A                      A                      A
 Frequencies --    529.9130               540.2675               550.6620
 Red. masses --      4.0654                 3.8717                 4.4861
 Frc consts  --      0.6726                 0.6658                 0.8015
 IR Inten    --      2.5356                11.4876                 0.4414

                     22                     23                     24
                      A                      A                      A
 Frequencies --    611.5878               628.7506               675.2079
 Red. masses --      7.1379                 4.0586                 6.2533
 Frc consts  --      1.5730                 0.9453                 1.6797
 IR Inten    --      3.3267                 3.7167                 7.7839

                     25                     26                     27
                      A                      A                      A
 Frequencies --    711.7568               739.9009               768.6764
 Red. masses --      3.8867                 2.0296                 2.0213
 Frc consts  --      1.1601                 0.6546                 0.7037
 IR Inten    --      3.0271                25.2893                33.7468

                     28                     29                     30
                      A                      A                      A
 Frequencies --    789.5676               800.7957               825.9768
 Red. masses --      3.6754                 3.6601                 3.7144
 Frc consts  --      1.3500                 1.3829                 1.4930
 IR Inten    --      0.6057                 9.0441                 7.5058

                     31                     32                     33
                      A                      A                      A
 Frequencies --    830.8031               861.3283               885.6198
 Red. masses --      5.2423                 2.7886                 1.3727
 Frc consts  --      2.1319                 1.2189                 0.6344
 IR Inten    --      5.0488                26.4937                 3.5216

                     34                     35                     36
                      A                      A                      A
 Frequencies --    937.1091               962.8240               974.5611
 Red. masses --      2.2492                 2.1268                 1.4187
 Frc consts  --      1.1638                 1.1616                 0.7939
 IR Inten    --     65.0728                37.3642                 6.1202

                     37                     38                     39
                      A                      A                      A
 Frequencies --   1002.3803              1008.6230              1018.8867
 Red. masses --      1.3262                 1.5455                 1.2606
 Frc consts  --      0.7851                 0.9264                 0.7711
 IR Inten    --      1.0004                 0.5787                 0.0611

                     40                     41                     42
                      A                      A                      A
 Frequencies --   1055.1888              1063.2400              1083.0188
 Red. masses --      1.5533                 3.3975                 2.3483
 Frc consts  --      1.0190                 2.2629                 1.6229
 IR Inten    --      4.5745                 0.4385                 6.9206

                     43                     44                     45
                      A                      A                      A
 Frequencies --   1120.8355              1139.8236              1188.6996
 Red. masses --      1.7791                 1.7329                 1.1101
 Frc consts  --      1.3168                 1.3265                 0.9241
 IR Inten    --     28.3162                23.9751                 1.4540

                     46                     47                     48
                      A                      A                      A
 Frequencies --   1211.3777              1218.2259              1261.5870
 Red. masses --      1.7842                 2.3029                 2.9533
 Frc consts  --      1.5426                 2.0136                 2.7694
 IR Inten    --      3.1895                 3.6639               142.2968

                     49                     50                     51
                      A                      A                      A
 Frequencies --   1286.0919              1313.3841              1328.7167
 Red. masses --      3.2561                 1.6242                 6.6620
 Frc consts  --      3.1732                 1.6507                 6.9298
 IR Inten    --    114.9344                53.8126                 6.4771

                     52                     53                     54
                      A                      A                      A
 Frequencies --   1345.6263              1389.2438              1417.0704
 Red. masses --      2.2695                 1.9766                 1.2325
 Frc consts  --      2.4212                 2.2477                 1.4583
 IR Inten    --     38.0467                 1.2689                 0.6997

                     55                     56                     57
                      A                      A                      A
 Frequencies --   1467.7186              1494.5064              1496.6636
 Red. masses --      1.7701                 1.2874                 1.0976
 Frc consts  --      2.2466                 1.6942                 1.4486
 IR Inten    --     25.3863                19.3628                14.2230

                     58                     59                     60
                      A                      A                      A
 Frequencies --   1515.2334              1608.6770              1635.0387
 Red. masses --      2.0347                 5.7206                 6.2248
 Frc consts  --      2.7524                 8.7223                 9.8047
 IR Inten    --      2.0701                 0.5673                37.4487

                     61                     62                     63
                      A                      A                      A
 Frequencies --   1640.8342              1672.2502              1714.0619
 Red. masses --      7.4285                 8.8589                12.3829
 Frc consts  --     11.7836                14.5959                21.4352
 IR Inten    --      9.3717                18.1702               222.1076

                     64                     65                     66
                      A                      A                      A
 Frequencies --   1723.4725              1726.9007              3031.7899
 Red. masses --     11.4649                 9.6161                 1.0405
 Frc consts  --     20.0646                16.8960                 5.6348
 IR Inten    --    312.0860               120.7619                26.4053

                     67                     68                     69
                      A                      A                      A
 Frequencies --   3088.0601              3109.9354              3160.1490
 Red. masses --      1.0946                 1.1019                 1.0869
 Frc consts  --      6.1501                 6.2791                 6.3953
 IR Inten    --     16.1397                13.8275                 4.4701

                     70                     71                     72
                      A                      A                      A
 Frequencies --   3173.8215              3175.9936              3185.9351
 Red. masses --      1.0897                 1.0874                 1.0922
 Frc consts  --      6.4673                 6.4628                 6.5316
 IR Inten    --     10.9577                 0.6018                 0.1153

                     73                     74                     75
                      A                      A                      A
 Frequencies --   3186.4195              3193.7438              3200.3816
 Red. masses --      1.0940                 1.0993                 1.0948
 Frc consts  --      6.5442                 6.6064                 6.6070
 IR Inten    --     14.4106                 2.2801                 7.1131

 - Thermochemistry -
 -------------------
 Temperature   298.150 Kelvin.  Pressure   1.00000 Atm.
 Atom     1 has atomic number  6 and mass  12.00000

 Molecular mass:   226.06299 amu.
 Principal axes and moments of inertia in atomic units:
                           1         2         3
     Eigenvalues --  1714.969366111.514166449.98787
           X            0.96340  -0.26566  -0.03582
           Y            0.21174   0.83610  -0.50606
           Z            0.16439   0.47996   0.86175
 This molecule is an asymmetric top.
 Rotational symmetry number  1.
 Warning -- assumption of classical behavior for rotation
           may cause significant error
 Rotational temperatures (Kelvin)      0.05050     0.01417     0.01343
 Rotational constants (GHZ):           1.05235     0.29530     0.27981
 Zero-point vibrational energy     530611.6 (Joules/Mol)
                                  126.81922 (Kcal/Mol)
 Warning -- explicit consideration of  22 degrees of freedom as
           vibrations may cause significant error
 Vibrational temperatures:     42.97    60.15    88.28   128.76   167.62
          (Kelvin)            207.09   233.53   265.54   312.95   361.62
                              370.61   465.11   497.82   579.07   615.07
                              617.98   674.04   689.07   762.43   777.32
                              792.28   879.94   904.63   971.47  1024.06
                             1064.55  1105.95  1136.01  1152.17  1188.40
                             1195.34  1239.26  1274.21  1348.29  1385.29
                             1402.18  1442.20  1451.18  1465.95  1518.18
                             1529.77  1558.22  1612.63  1639.95  1710.27
                             1742.90  1752.76  1815.14  1850.40  1889.67
                             1911.73  1936.06  1998.81  2038.85  2111.72
                             2150.26  2153.37  2180.08  2314.53  2352.46
                             2360.79  2406.00  2466.15  2479.69  2484.62
                             4362.07  4443.03  4474.50  4546.75  4566.42
                             4569.55  4583.85  4584.55  4595.09  4604.64

 Zero-point correction=                           0.202099 (Hartree/Particle)
 Thermal correction to Energy=                    0.216651
 Thermal correction to Enthalpy=                  0.217595
 Thermal correction to Gibbs Free Energy=         0.159348
 Sum of electronic and zero-point Energies=           -765.145498
 Sum of electronic and thermal Energies=              -765.130946
 Sum of electronic and thermal Enthalpies=            -765.130002
 Sum of electronic and thermal Free Energies=         -765.188250

                     E (Thermal)             CV                S
                      KCal/Mol        Cal/Mol-Kelvin    Cal/Mol-Kelvin
 Total                  135.950             55.039            122.592
 Electronic               0.000              0.000              0.000
 Translational            0.889              2.981             42.149
 Rotational               0.889              2.981             32.580
 Vibrational            134.173             49.077             47.863
 Vibration     1          0.594              1.984              5.838
 Vibration     2          0.594              1.980              5.172
 Vibration     3          0.597              1.973              4.413
 Vibration     4          0.602              1.957              3.671
 Vibration     5          0.608              1.936              3.158
 Vibration     6          0.616              1.909              2.751
 Vibration     7          0.622              1.889              2.523
 Vibration     8          0.631              1.861              2.282
 Vibration     9          0.646              1.814              1.980
 Vibration    10          0.663              1.761              1.721
 Vibration    11          0.667              1.750              1.678
 Vibration    12          0.708              1.629              1.294
 Vibration    13          0.724              1.583              1.184
 Vibration    14          0.768              1.465              0.954
 Vibration    15          0.789              1.410              0.867
 Vibration    16          0.791              1.406              0.860
 Vibration    17          0.826              1.320              0.742
 Vibration    18          0.835              1.297              0.713
 Vibration    19          0.885              1.184              0.587
 Vibration    20          0.895              1.161              0.565
 Vibration    21          0.906              1.138              0.543
 Vibration    22          0.971              1.007              0.430

                           ! Non-Optimized Parameters !
 Normal termination of Gaussian 16 at Wed Jan 10 05:37:50 2024.
