 Q-Chem 5.4, Q-Chem, Inc., Pleasanton, CA (2021)
 Q-Chem 5.4.0 for Intel X86 EM64T Linux

User input:
--------------------------------------------------------------
$molecule
0 1
N                 -5.0250590000     -0.7520730000     -0.4412640000
C                 -3.7586360000     -0.2476110000     -0.2150650000
C                 -3.5837480000      0.9814920000      0.4526980000
C                 -2.3144780000      1.4609690000      0.7170640000
C                 -1.1747150000      0.7411040000      0.3327230000
C                  0.1667930000      1.2824980000      0.6303470000
O                  0.3227560000      2.3528930000      1.2033820000
C                  1.3458920000      0.4627890000      0.1995680000
C                  2.6207720000      0.9433620000      0.4723680000
C                  3.7582970000      0.2192490000      0.0869390000
N                  5.0243300000      0.6767810000      0.3996020000
C                  3.5834550000     -1.0092100000     -0.5819670000
C                  2.3142280000     -1.4852150000     -0.8527650000
C                  1.1744840000     -0.7646710000     -0.4696590000
C                 -0.1669980000     -1.3020730000     -0.7746230000
O                 -0.3228510000     -2.3651070000     -1.3612160000
C                 -1.3461620000     -0.4877450000     -0.3339650000
C                 -2.6210630000     -0.9713430000     -0.6011710000
H                 -5.8005240000     -0.1092970000     -0.4087270000
H                 -5.1206160000     -1.4861700000     -1.1252160000
H                 -4.4548070000      1.5500740000      0.7623170000
H                 -2.1767810000      2.4058980000      1.2285520000
H                  2.7130770000      1.8908660000      0.9913330000
H                  5.8023780000      0.2960110000     -0.1154810000
H                  5.1223660000      1.6500710000      0.6425080000
H                  4.4544700000     -1.5832520000     -0.8814630000
H                  2.1765360000     -2.4281070000     -1.3680040000
H                 -2.7133970000     -1.9221840000     -1.1140040000
$end
$rem
MAX_SCF_CYCLES=200
BASIS  =  6-311++G(d,p)
GUI  =  2
JOB_TYPE  =  SP
METHOD  =  B3LYP
SOLVENT_METHOD = PCM
$end
$pcm
theory = CPCM
$end
$solvent
dielectric 37.219
opticaldielectric 1.43
$end

--------------------------------------------------------------

             Standard Nuclear Orientation (Angstroms)
    I     Atom           X                Y                Z
 ----------------------------------------------------------------
    1      N      -5.0250590000    -0.7520730000    -0.4412640000
    2      C      -3.7586360000    -0.2476110000    -0.2150650000
    3      C      -3.5837480000     0.9814920000     0.4526980000
    4      C      -2.3144780000     1.4609690000     0.7170640000
    5      C      -1.1747150000     0.7411040000     0.3327230000
    6      C       0.1667930000     1.2824980000     0.6303470000
    7      O       0.3227560000     2.3528930000     1.2033820000
    8      C       1.3458920000     0.4627890000     0.1995680000
    9      C       2.6207720000     0.9433620000     0.4723680000
   10      C       3.7582970000     0.2192490000     0.0869390000
   11      N       5.0243300000     0.6767810000     0.3996020000
   12      C       3.5834550000    -1.0092100000    -0.5819670000
   13      C       2.3142280000    -1.4852150000    -0.8527650000
   14      C       1.1744840000    -0.7646710000    -0.4696590000
   15      C      -0.1669980000    -1.3020730000    -0.7746230000
   16      O      -0.3228510000    -2.3651070000    -1.3612160000
   17      C      -1.3461620000    -0.4877450000    -0.3339650000
   18      C      -2.6210630000    -0.9713430000    -0.6011710000
   19      H      -5.8005240000    -0.1092970000    -0.4087270000
   20      H      -5.1206160000    -1.4861700000    -1.1252160000
   21      H      -4.4548070000     1.5500740000     0.7623170000
   22      H      -2.1767810000     2.4058980000     1.2285520000
   23      H       2.7130770000     1.8908660000     0.9913330000
   24      H       5.8023780000     0.2960110000    -0.1154810000
   25      H       5.1223660000     1.6500710000     0.6425080000
   26      H       4.4544700000    -1.5832520000    -0.8814630000
   27      H       2.1765360000    -2.4281070000    -1.3680040000
   28      H      -2.7133970000    -1.9221840000    -1.1140040000
 ----------------------------------------------------------------

    8    -799.7429308811      8.06e-06  Convergence criterion met
 Total energy in the final basis set =     -799.7429308811

                    Orbital Energies (a.u.)
 --------------------------------------------------------------

 Alpha MOs
 -- Occupied --
-19.1197 -19.1196 -14.3313 -14.3312 -10.2725 -10.2725 -10.2386 -10.2386
-10.2019 -10.2019 -10.1916 -10.1916 -10.1898 -10.1898 -10.1858 -10.1858
-10.1852 -10.1852  -1.0554  -1.0536  -0.9371  -0.9369  -0.8755  -0.8594
 -0.7915  -0.7723  -0.7650  -0.7464  -0.6802  -0.6618  -0.6348  -0.6194
 -0.5829  -0.5646  -0.5569  -0.5312  -0.5174  -0.5159  -0.4912  -0.4797
 -0.4639  -0.4530  -0.4482  -0.4452  -0.4415  -0.4335  -0.4324  -0.4151
 -0.4109  -0.4042  -0.3927  -0.3846  -0.3703  -0.3581  -0.3309  -0.3240
 -0.2800  -0.2785  -0.2722  -0.2678  -0.2336  -0.2228

          Ground-State Mulliken Net Atomic Charges

     Atom                 Charge (a.u.)
  ----------------------------------------
      1 N                    -0.357314
      2 C                    -0.563986
      3 C                    -0.082088
      4 C                     0.217216
      5 C                     0.201307
      6 C                    -0.754667
      7 O                    -0.322635
      8 C                     0.487242
      9 C                    -0.041484
     10 C                    -0.560120
     11 N                    -0.358247
     12 C                    -0.082969
     13 C                     0.216977
     14 C                     0.201717
     15 C                    -0.756041
     16 O                    -0.322645
     17 C                     0.486786
     18 C                    -0.039688
     19 H                     0.304303
     20 H                     0.301894
     21 H                     0.228910
     22 H                     0.194340
     23 H                     0.185949
     24 H                     0.304382
     25 H                     0.301781
     26 H                     0.228844
     27 H                     0.194362
     28 H                     0.185873
  ----------------------------------------
  Sum of atomic charges =     0.000000

                    Cartesian Multipole Moments
 -----------------------------------------------------------------
    Charge (ESU x 10^10)
                 0.0000
    Dipole Moment (Debye)
         X       0.0052      Y       0.9315      Z      -1.7212
       Tot       1.9571
    Quadrupole Moments (Debye-Ang)
        XX     -32.7570     XY       2.3457     YY    -114.3369
        XZ       1.7355     YZ      -2.8000     ZZ    -110.4558

 Total job time:  52.48s(wall), 301.85s(cpu)
        *  Thank you very much for using Q-Chem.  Have a nice day.  *
