 Gaussian 16, Revision A.03,
 Gaussian 16:  ES64L-G16RevA.03 25-Dec-2016

 --------------------------------------
 #P UB3LYP/6-311++G(d,p) nosym opt freq
 --------------------------------------

 --------
 Oxidized
 --------
 Symbolic Z-matrix:
 Charge =  0 Multiplicity = 1

 SCF Done:  E(UB3LYP) =  -799.715789009     A.U. after   15 cycles
 Optimization completed.
    -- Stationary point found.
 Normal termination of Gaussian 16 at Wed Dec 27 19:53:33 2023.

 ----------------------------------------------------------------------
 #P Geom=AllCheck Guess=TCheck SCRF=Check GenChk UB3LYP/6-311++G(d,p) F
 req
 ----------------------------------------------------------------------

 Structure from the checkpoint file:  "168.chk"
 --------
 Oxidized
 --------
 Charge =  0 Multiplicity = 1

                          Input orientation:
 ---------------------------------------------------------------------
 Center     Atomic      Atomic             Coordinates (Angstroms)
 Number     Number       Type             X           Y           Z
 ---------------------------------------------------------------------
      1          7           0       -5.025059   -0.752073   -0.441264
      2          6           0       -3.758636   -0.247611   -0.215065
      3          6           0       -3.583748    0.981492    0.452698
      4          6           0       -2.314478    1.460969    0.717064
      5          6           0       -1.174715    0.741104    0.332723
      6          6           0        0.166793    1.282498    0.630347
      7          8           0        0.322756    2.352893    1.203382
      8          6           0        1.345892    0.462789    0.199568
      9          6           0        2.620772    0.943362    0.472368
     10          6           0        3.758297    0.219249    0.086939
     11          7           0        5.024330    0.676781    0.399602
     12          6           0        3.583455   -1.009210   -0.581967
     13          6           0        2.314228   -1.485215   -0.852765
     14          6           0        1.174484   -0.764671   -0.469659
     15          6           0       -0.166998   -1.302073   -0.774623
     16          8           0       -0.322851   -2.365107   -1.361216
     17          6           0       -1.346162   -0.487745   -0.333965
     18          6           0       -2.621063   -0.971343   -0.601171
     19          1           0       -5.800524   -0.109297   -0.408727
     20          1           0       -5.120616   -1.486170   -1.125216
     21          1           0       -4.454807    1.550074    0.762317
     22          1           0       -2.176781    2.405898    1.228552
     23          1           0        2.713077    1.890866    0.991333
     24          1           0        5.802378    0.296011   -0.115481
     25          1           0        5.122366    1.650071    0.642508
     26          1           0        4.454470   -1.583252   -0.881463
     27          1           0        2.176536   -2.428107   -1.368004
     28          1           0       -2.713397   -1.922184   -1.114004
 ---------------------------------------------------------------------

 SCF Done:  E(UB3LYP) =  -799.715789009     A.U. after    1 cycles

 Alpha  occ. eigenvalues --  -19.10856 -19.10855 -14.34361 -14.34358 -10.26225
 Alpha  occ. eigenvalues --  -10.26224 -10.23979 -10.23977 -10.19765 -10.19765
 Alpha  occ. eigenvalues --  -10.18957 -10.18957 -10.18829 -10.18828 -10.18635
 Alpha  occ. eigenvalues --  -10.18634 -10.18369 -10.18369  -1.04293  -1.04097
 Alpha  occ. eigenvalues --   -0.94646  -0.94640  -0.87312  -0.85894  -0.79091
 Alpha  occ. eigenvalues --   -0.76962  -0.76358  -0.74697  -0.67721  -0.66250
 Alpha  occ. eigenvalues --   -0.63600  -0.62089  -0.58117  -0.56857  -0.55646
 Alpha  occ. eigenvalues --   -0.53973  -0.52598  -0.52090  -0.48743  -0.48047
 Alpha  occ. eigenvalues --   -0.46704  -0.44331  -0.44238  -0.44052  -0.44003
 Alpha  occ. eigenvalues --   -0.42999  -0.42900  -0.41537  -0.40532  -0.39792
 Alpha  occ. eigenvalues --   -0.39167  -0.38253  -0.37103  -0.35597  -0.33235
 Alpha  occ. eigenvalues --   -0.31977  -0.27446  -0.26816  -0.26721  -0.25620
 Alpha  occ. eigenvalues --   -0.23465  -0.22409
 Alpha virt. eigenvalues --   -0.09829  -0.05932  -0.02070  -0.01861  -0.01533
 Alpha virt. eigenvalues --   -0.01473   0.00638   0.00766   0.01329   0.02660
 Alpha virt. eigenvalues --    0.03705   0.03915   0.04197   0.04453   0.05313

  Beta  occ. eigenvalues --  -19.10856 -19.10855 -14.34361 -14.34358 -10.26225
  Beta  occ. eigenvalues --  -10.26224 -10.23979 -10.23977 -10.19765 -10.19765
  Beta  occ. eigenvalues --  -10.18957 -10.18957 -10.18829 -10.18828 -10.18635
  Beta  occ. eigenvalues --  -10.18634 -10.18369 -10.18369  -1.04293  -1.04097
  Beta  occ. eigenvalues --   -0.94646  -0.94640  -0.87312  -0.85894  -0.79091
  Beta  occ. eigenvalues --   -0.76962  -0.76358  -0.74697  -0.67721  -0.66250
  Beta  occ. eigenvalues --   -0.63600  -0.62089  -0.58117  -0.56857  -0.55646
  Beta  occ. eigenvalues --   -0.53973  -0.52598  -0.52090  -0.48743  -0.48047
  Beta  occ. eigenvalues --   -0.46704  -0.44331  -0.44238  -0.44052  -0.44003
  Beta  occ. eigenvalues --   -0.42999  -0.42900  -0.41537  -0.40532  -0.39792
  Beta  occ. eigenvalues --   -0.39167  -0.38253  -0.37103  -0.35597  -0.33235
  Beta  occ. eigenvalues --   -0.31977  -0.27446  -0.26816  -0.26721  -0.25620
  Beta  occ. eigenvalues --   -0.23465  -0.22409
  Beta virt. eigenvalues --   -0.09829  -0.05932  -0.02070  -0.01861  -0.01533
  Beta virt. eigenvalues --   -0.01473   0.00638   0.00766   0.01329   0.02660
  Beta virt. eigenvalues --    0.03705   0.03915   0.04197   0.04453   0.05313

 Mulliken charges and spin densities:
               1          2
     1  N   -0.294814   0.000000
     2  C   -0.471896  -0.000000
     3  C    0.028866   0.000000
     4  C    0.204318   0.000000
     5  C    0.232860   0.000000
     6  C   -0.913861   0.000000
     7  O   -0.232119   0.000000
     8  C    0.485964   0.000000
     9  C   -0.057078  -0.000000
    10  C   -0.472887  -0.000000
    11  N   -0.294563   0.000000
    12  C    0.029339   0.000000
    13  C    0.204255  -0.000000
    14  C    0.233300  -0.000000
    15  C   -0.913707   0.000000
    16  O   -0.232096  -0.000000
    17  C    0.485576  -0.000000
    18  C   -0.057401  -0.000000
    19  H    0.253326  -0.000000
    20  H    0.254200  -0.000000
    21  H    0.164634  -0.000000
    22  H    0.183444  -0.000000
    23  H    0.162452   0.000000
    24  H    0.253224  -0.000000
    25  H    0.254112  -0.000000
    26  H    0.164701   0.000000
    27  H    0.183440   0.000000
    28  H    0.162412   0.000000
 Sum of Mulliken charges =  -0.00000   0.00000

 Dipole moment (field-independent basis, Debye):
    X=              0.0030    Y=              0.7003    Z=             -1.2933  Tot=              1.4708
 Quadrupole moment (field-independent basis, Debye-Ang):
   XX=            -52.0829   YY=           -111.7727   ZZ=           -109.5255
   XY=              1.7470   XZ=              1.2883   YZ=             -1.5893

  Exact polarizability: 327.880  16.819 176.004  10.653  46.040 116.455
 Approx polarizability: 477.152  50.262 338.481  29.415 104.371 203.676

                      1                      2                      3
                      A                      A                      A
 Frequencies --     36.9069                90.1790               103.3279
 Red. masses --      7.0063                 4.4927                 5.9140
 Frc consts  --      0.0056                 0.0215                 0.0372
 IR Inten    --      8.3497                 0.1351                 0.4696

                      4                      5                      6
                      A                      A                      A
 Frequencies --    140.2741               168.1585               172.2835
 Red. masses --      6.3467                 4.7989                 4.9656
 Frc consts  --      0.0736                 0.0800                 0.0868
 IR Inten    --      0.1700                 3.9087                 1.4472

                      7                      8                      9
                      A                      A                      A
 Frequencies --    240.0405               264.1854               295.9588
 Red. masses --      5.4838                 4.7253                 4.9903
 Frc consts  --      0.1862                 0.1943                 0.2575
 IR Inten    --      0.1538                 8.2113                 3.8413

                     10                     11                     12
                      A                      A                      A
 Frequencies --    315.9821               363.4147               365.1433
 Red. masses --      7.5781                 1.1956                 1.0862
 Frc consts  --      0.4458                 0.0930                 0.0853
 IR Inten    --      1.3356                42.8337                 2.5963

                     13                     14                     15
                      A                      A                      A
 Frequencies --    373.8292               390.7708               398.7725
 Red. masses --      3.8654                 4.7645                 4.0946
 Frc consts  --      0.3183                 0.4287                 0.3836
 IR Inten    --      0.4140                 0.7962                27.4245

                     16                     17                     18
                      A                      A                      A
 Frequencies --    424.7010               426.7291               435.7295
 Red. masses --      1.4187                 1.7689                 1.8338
 Frc consts  --      0.1508                 0.1898                 0.2051
 IR Inten    --    385.3518               241.7972               164.5059

                     19                     20                     21
                      A                      A                      A
 Frequencies --    447.9652               452.1779               477.1474
 Red. masses --      3.7018                 3.3568                10.1820
 Frc consts  --      0.4377                 0.4044                 1.3658
 IR Inten    --     18.6561                 3.3857                 1.3957

                     22                     23                     24
                      A                      A                      A
 Frequencies --    523.8747               562.8467               580.8424
 Red. masses --      6.5045                 5.4836                 3.6348
 Frc consts  --      1.0518                 1.0235                 0.7225
 IR Inten    --     14.1745                 8.7247                11.8993

                     25                     26                     27
                      A                      A                      A
 Frequencies --    653.9153               671.3837               685.4257
 Red. masses --      6.3511                 6.6332                 3.2801
 Frc consts  --      1.6001                 1.7616                 0.9079
 IR Inten    --      0.3236                 8.8823                 0.8244

                     28                     29                     30
                      A                      A                      A
 Frequencies --    706.7240               720.9842               736.5389
 Red. masses --      6.8754                 3.7451                 6.4291
 Frc consts  --      2.0233                 1.1470                 2.0549
 IR Inten    --      0.0153                 5.6840                11.5928

                     31                     32                     33
                      A                      A                      A
 Frequencies --    764.8302               787.6234               823.7328
 Red. masses --      6.8883                 4.4898                 5.8842
 Frc consts  --      2.3741                 1.6410                 2.3524
 IR Inten    --     36.6023                 0.0559                 0.0003

                     34                     35                     36
                      A                      A                      A
 Frequencies --    846.3409               846.9019               895.0623
 Red. masses --      1.6568                 1.5171                 6.7166
 Frc consts  --      0.6992                 0.6411                 3.1703
 IR Inten    --      0.6443                33.3829                57.3584

                     37                     38                     39
                      A                      A                      A
 Frequencies --    910.2653               911.5992               986.5203
 Red. masses --      1.4844                 1.5187                 3.6834
 Frc consts  --      0.7246                 0.7436                 2.1121
 IR Inten    --      0.0841                27.1896                 0.0249

                     40                     41                     42
                      A                      A                      A
 Frequencies --    991.1594               993.4922              1011.1137
 Red. masses --      1.3226                 1.3495                 2.3707
 Frc consts  --      0.7656                 0.7848                 1.4280
 IR Inten    --      0.0083                 2.6710                23.3817

                     43                     44                     45
                      A                      A                      A
 Frequencies --   1077.1924              1083.6641              1106.5769
 Red. masses --      1.5488                 1.5372                 2.8875
 Frc consts  --      1.0589                 1.0636                 2.0832
 IR Inten    --      0.0494                 7.3116                33.3916

                     46                     47                     48
                      A                      A                      A
 Frequencies --   1136.7728              1170.1299              1179.2542
 Red. masses --      1.7142                 1.6258                 1.4029
 Frc consts  --      1.3052                 1.3116                 1.1494
 IR Inten    --      0.0699                 0.0003                63.1923

                     49                     50                     51
                      A                      A                      A
 Frequencies --   1242.1057              1265.9589              1290.6697
 Red. masses --      1.6311                 1.7078                 4.1631
 Frc consts  --      1.4827                 1.6126                 4.0860
 IR Inten    --      0.0002                16.8069                 0.0252

                     52                     53                     54
                      A                      A                      A
 Frequencies --   1305.7577              1343.0074              1345.0882
 Red. masses --      2.3938                 4.7267                 2.3033
 Frc consts  --      2.4047                 5.0230                 2.4553
 IR Inten    --    359.3186               919.9853                 0.8604

                     55                     56                     57
                      A                      A                      A
 Frequencies --   1366.5469              1380.9349              1473.6593
 Red. masses --      6.3252                 7.3370                 3.6265
 Frc consts  --      6.9594                 8.2435                 4.6401
 IR Inten    --     68.8487                 0.0030                23.8836

                     58                     59                     60
                      A                      A                      A
 Frequencies --   1484.3863              1520.4822              1529.9975
 Red. masses --      4.0231                 3.3164                 3.2139
 Frc consts  --      5.2229                 4.5172                 4.4326
 IR Inten    --      0.0210                12.9235                 0.0715

                     61                     62                     63
                      A                      A                      A
 Frequencies --   1595.9611              1605.2387              1625.6433
 Red. masses --      6.7527                 7.4502                 5.2314
 Frc consts  --     10.1338                11.3109                 8.1456
 IR Inten    --      0.5513                 0.0002               793.9474

                     64                     65                     66
                      A                      A                      A
 Frequencies --   1637.2414              1659.7883              1662.6001
 Red. masses --      3.6578                 1.2172                 1.3367
 Frc consts  --      5.7768                 1.9757                 2.1770
 IR Inten    --      1.2557               448.5270                 9.4315

                     67                     68                     69
                      A                      A                      A
 Frequencies --   1700.7844              1717.5670              3160.4918
 Red. masses --     12.5917                10.9950                 1.0894
 Frc consts  --     21.4602                19.1105                 6.4113
 IR Inten    --      0.0157               248.7600                30.5150

                     70                     71                     72
                      A                      A                      A
 Frequencies --   3160.5729              3179.8928              3180.0178
 Red. masses --      1.0894                 1.0902                 1.0902
 Frc consts  --      6.4114                 6.4949                 6.4953
 IR Inten    --      1.5660                14.8262                 1.2269

                     73                     74                     75
                      A                      A                      A
 Frequencies --   3196.7536              3196.9196              3587.6534
 Red. masses --      1.0925                 1.0926                 1.0465
 Frc consts  --      6.5782                 6.5790                 7.9365
 IR Inten    --      9.3881                 0.0225                96.8068

                     76                     77                     78
                      A                      A                      A
 Frequencies --   3588.1435              3693.7666              3694.3760
 Red. masses --      1.0466                 1.1016                 1.1016
 Frc consts  --      7.9388                 8.8553                 8.8585
 IR Inten    --     50.9002                25.6880                26.3469

 - Thermochemistry -
 -------------------
 Temperature   298.150 Kelvin.  Pressure   1.00000 Atm.
 Atom     1 has atomic number  7 and mass  14.00307

 Molecular mass:   238.07423 amu.
 Principal axes and moments of inertia in atomic units:
                           1         2         3
     Eigenvalues --  1750.049746841.481018589.64930
           X            0.99926  -0.03797  -0.00567
           Y            0.03066   0.87834  -0.47706
           Z            0.02309   0.47653   0.87885
 This molecule is an asymmetric top.
 Rotational symmetry number  1.
 Warning -- assumption of classical behavior for rotation
           may cause significant error
 Rotational temperatures (Kelvin)      0.04949     0.01266     0.01008
 Rotational constants (GHZ):           1.03125     0.26379     0.21011
 Zero-point vibrational energy     557103.6 (Joules/Mol)
                                  133.15096 (Kcal/Mol)
 Warning -- explicit consideration of  24 degrees of freedom as
           vibrations may cause significant error
 Vibrational temperatures:     53.10   129.75   148.67   201.82   241.94
          (Kelvin)            247.88   345.36   380.10   425.82   454.63
                              522.87   525.36   537.86   562.23   573.74
                              611.05   613.97   626.92   644.52   650.58
                              686.51   753.74   809.81   835.70   940.84
                              965.97   986.17  1016.82  1037.34  1059.72
                             1100.42  1133.21  1185.17  1217.70  1218.50
                             1287.79  1309.67  1311.59  1419.38  1426.06
                             1429.41  1454.77  1549.84  1559.15  1592.12
                             1635.56  1683.56  1696.68  1787.11  1821.43
                             1856.99  1878.69  1932.29  1935.28  1966.16
                             1986.86  2120.27  2135.70  2187.63  2201.33
                             2296.23  2309.58  2338.94  2355.63  2388.07
                             2392.11  2447.05  2471.20  4547.24  4547.36
                             4575.16  4575.34  4599.42  4599.65  5161.83
                             5162.54  5314.51  5315.38

 Zero-point correction=                           0.212190 (Hartree/Particle)
 Thermal correction to Energy=                    0.226505
 Thermal correction to Enthalpy=                  0.227449
 Thermal correction to Gibbs Free Energy=         0.171537
 Sum of electronic and zero-point Energies=           -799.503599
 Sum of electronic and thermal Energies=              -799.489284
 Sum of electronic and thermal Enthalpies=            -799.488340
 Sum of electronic and thermal Free Energies=         -799.544252

                     E (Thermal)             CV                S
                      KCal/Mol        Cal/Mol-Kelvin    Cal/Mol-Kelvin
 Total                  142.134             58.093            117.676
 Electronic               0.000              0.000              0.000
 Translational            0.889              2.981             42.304
 Rotational               0.889              2.981             32.997
 Vibrational            140.356             52.132             42.375
 Vibration     1          0.594              1.982              5.419
 Vibration     2          0.602              1.956              3.656
 Vibration     3          0.605              1.947              3.391
 Vibration     4          0.615              1.913              2.800
 Vibration     5          0.625              1.882              2.456
 Vibration     6          0.626              1.877              2.410
 Vibration     7          0.657              1.779              1.803
 Vibration     8          0.671              1.739              1.634
 Vibration     9          0.690              1.681              1.440
 Vibration    10          0.703              1.643              1.331
 Vibration    11          0.737              1.548              1.107
 Vibration    12          0.738              1.544              1.100
 Vibration    13          0.745              1.526              1.064
 Vibration    14          0.758              1.490              0.997
 Vibration    15          0.765              1.473              0.967
 Vibration    16          0.787              1.417              0.876
 Vibration    17          0.788              1.412              0.869
 Vibration    18          0.796              1.392              0.840
 Vibration    19          0.807              1.365              0.802
 Vibration    20          0.811              1.356              0.789
 Vibration    21          0.834              1.301              0.718
 Vibration    22          0.879              1.197              0.601
 Vibration    23          0.919              1.112              0.518
 Vibration    24          0.938              1.073              0.484

 Optimization completed.
    -- Stationary point found.
 Normal termination of Gaussian 16 at Wed Dec 27 21:51:27 2023.
