 Q-Chem 5.4, Q-Chem, Inc., Pleasanton, CA (2021)
 Q-Chem 5.4.0 for Intel X86 EM64T Linux

User input:
--------------------------------------------------------------
$molecule
-2 1
C                 -4.1102810000      3.6387890000      1.5167450000
C                 -4.5980500000      3.8713550000      0.2513880000
C                 -3.9968500000      3.2207730000     -0.8490910000
C                 -2.9310560000      2.3469420000     -0.6608500000
C                 -2.3768640000      2.0879400000      0.6288690000
C                 -3.0199700000      2.7641160000      1.7450630000
C                 -2.5919540000      2.5794190000      3.1292530000
C                 -1.5027590000      1.6837470000      3.2854770000
C                 -0.9012130000      1.0494370000      2.1992430000
C                 -1.2220610000      1.1828570000      0.8150000000
O                 -3.1658640000      3.1738050000      4.1200340000
O                 -0.5960500000      0.6062680000     -0.1274830000
H                 -4.5332570000      4.1134980000      2.3955700000
H                 -4.3568230000      3.4039010000     -1.8627790000
O                 -2.4073980000      1.7251270000     -1.7810010000
Br                 0.6181970000     -0.1472500000      2.6123510000
H                 -5.4340010000      4.5486820000      0.0870560000
H                 -1.1472430000      1.4977860000      4.2931570000
H                 -3.0083730000      1.9408700000     -2.5042020000
$end

$rem
BASIS  =  6-311++G(d,p)
GUI  =  2
JOB_TYPE  =  SP
METHOD  =  B3LYP
SCF_CONVERGENCE  = 8
SOLVENT_METHOD = sm12
$end

$smx
solvent dimethylformamide
charges CM5
$end

--------------------------------------------------------------

             Standard Nuclear Orientation (Angstroms)
    I     Atom           X                Y                Z
 ----------------------------------------------------------------
    1      C      -4.1102810000     3.6387890000     1.5167450000
    2      C      -4.5980500000     3.8713550000     0.2513880000
    3      C      -3.9968500000     3.2207730000    -0.8490910000
    4      C      -2.9310560000     2.3469420000    -0.6608500000
    5      C      -2.3768640000     2.0879400000     0.6288690000
    6      C      -3.0199700000     2.7641160000     1.7450630000
    7      C      -2.5919540000     2.5794190000     3.1292530000
    8      C      -1.5027590000     1.6837470000     3.2854770000
    9      C      -0.9012130000     1.0494370000     2.1992430000
   10      C      -1.2220610000     1.1828570000     0.8150000000
   11      O      -3.1658640000     3.1738050000     4.1200340000
   12      O      -0.5960500000     0.6062680000    -0.1274830000
   13      H      -4.5332570000     4.1134980000     2.3955700000
   14      H      -4.3568230000     3.4039010000    -1.8627790000
   15      O      -2.4073980000     1.7251270000    -1.7810010000
   16      Br      0.6181970000    -0.1472500000     2.6123510000
   17      H      -5.4340010000     4.5486820000     0.0870560000
   18      H      -1.1472430000     1.4977860000     4.2931570000
   19      H      -3.0083730000     1.9408700000    -2.5042020000
 ----------------------------------------------------------------

   17   -3184.0153736915      7.88e-09  Convergence criterion met
 Total energy in the final basis set =    -3184.3010432762

                    Orbital Energies (a.u.)
 --------------------------------------------------------------

 Alpha MOs
 -- Occupied --
******** -62.4521 -56.2723 -56.2690 -56.2689 -19.1456 -19.0207 -19.0167
-10.2344 -10.1929 -10.1828 -10.1809 -10.1743 -10.1679 -10.1640 -10.1595
-10.1560 -10.1414  -8.6602  -6.4903  -6.4795  -6.4788  -2.6013  -2.5984
 -2.5978  -2.5893  -2.5892  -1.0541  -0.9433  -0.9357  -0.8404  -0.7988
 -0.7556  -0.7333  -0.7089  -0.6529  -0.6174  -0.5901  -0.5572  -0.5095
 -0.4945  -0.4666  -0.4515  -0.4355  -0.4143  -0.4094  -0.3864  -0.3766
 -0.3662  -0.3596  -0.3526  -0.3351  -0.3327  -0.3279  -0.3119  -0.2812
 -0.2608  -0.2353  -0.2258  -0.2182  -0.1992  -0.1918  -0.1180

          Ground-State Mulliken Net Atomic Charges

     Atom                 Charge (a.u.)
  ----------------------------------------
      1 C                    -0.481765
      2 C                     1.431238
      3 C                     2.562990
      4 C                     0.735656
      5 C                    -1.616840
      6 C                    -2.492226
      7 C                    -1.806829
      8 C                    -1.028676
      9 C                     1.711527
     10 C                    -1.855193
     11 O                    -0.438667
     12 O                    -0.235759
     13 H                     0.023819
     14 H                     0.383052
     15 O                    -0.023555
     16 Br                    0.368265
     17 H                     0.373644
     18 H                     0.009531
     19 H                     0.379787
  ----------------------------------------
  Sum of atomic charges =    -2.000000

                    Cartesian Multipole Moments
 -----------------------------------------------------------------
    Charge (ESU x 10^10)
                -9.6064
    Dipole Moment (Debye)
         X      17.3824      Y     -17.6390      Z     -19.6508
       Tot      31.6139
    Quadrupole Moments (Debye-Ang)
        XX    -160.6474     XY      53.1268     YY    -157.0410
        XZ      50.1361     YZ     -49.7709     ZZ    -174.1131

 Total job time:  289.23s(wall), 2231.68s(cpu)
        *  Thank you very much for using Q-Chem.  Have a nice day.  *
