 Q-Chem 5.4, Q-Chem, Inc., Pleasanton, CA (2021)
 Q-Chem 5.4.0 for Intel X86 EM64T Linux

User input:
--------------------------------------------------------------
$molecule
0 1
C                  5.0119440000     -2.4471410000      0.5524180000
C                  5.8279100000     -1.7421090000     -0.3241100000
C                  5.2624370000     -0.9051090000     -1.2904290000
C                  3.6215780000     -2.3218870000      0.4721100000
C                  3.0521900000     -1.4789960000     -0.5002690000
C                  3.8818690000     -0.7741570000     -1.3783040000
C                  2.7718990000     -3.0898090000      1.4259580000
C                  1.2899050000     -2.9234520000      1.3138130000
C                  0.7188980000     -2.0821230000      0.3443330000
C                  1.5758410000     -1.3191700000     -0.6181860000
C                  0.4667640000     -3.6236230000      2.1994550000
C                 -0.6702460000     -1.9437510000      0.2664470000
C                 -1.4933780000     -2.6389320000      1.1420540000
O                  3.2580200000     -3.8266160000      2.2657630000
O                  1.0750160000     -0.5965290000     -1.4622300000
H                  5.4291350000     -3.1009540000      1.3081760000
H                  6.9052090000     -1.8420310000     -0.2575470000
H                  5.9014710000     -0.3564070000     -1.9727290000
H                 -2.5703570000     -2.5357310000      1.1026910000
H                  3.4232680000     -0.1313090000     -2.1193270000
H                  0.9122990000     -4.2613350000      2.9523440000
H                 -1.0851140000     -1.2852800000     -0.4861990000
C                 -0.9078950000     -3.4727360000      2.0961120000
S                 -1.9704180000     -4.3716440000      3.2277110000
O                 -1.2561920000     -4.6525960000      4.4646310000
O                 -3.2807690000     -3.7368620000      3.2678830000
O                 -2.0760350000     -5.7553570000      2.3528010000
C                 -2.8211730000     -6.8380180000      2.9665990000
H                 -2.3525540000     -7.1337860000      3.9064120000
H                 -2.7703700000     -7.6519700000      2.2471630000
H                 -3.8589050000     -6.5406220000      3.1268150000
$end

$rem
BASIS  =  6-311++G(d,p)
GUI  =  2
JOB_TYPE  =  SP
METHOD  =  B3LYP
SCF_CONVERGENCE  = 8
SOLVENT_METHOD = sm12
$end

$smx
solvent dimethylformamide
charges CM5
$end

--------------------------------------------------------------

             Standard Nuclear Orientation (Angstroms)
    I     Atom           X                Y                Z
 ----------------------------------------------------------------
    1      C       5.0119440000    -2.4471410000     0.5524180000
    2      C       5.8279100000    -1.7421090000    -0.3241100000
    3      C       5.2624370000    -0.9051090000    -1.2904290000
    4      C       3.6215780000    -2.3218870000     0.4721100000
    5      C       3.0521900000    -1.4789960000    -0.5002690000
    6      C       3.8818690000    -0.7741570000    -1.3783040000
    7      C       2.7718990000    -3.0898090000     1.4259580000
    8      C       1.2899050000    -2.9234520000     1.3138130000
    9      C       0.7188980000    -2.0821230000     0.3443330000
   10      C       1.5758410000    -1.3191700000    -0.6181860000
   11      C       0.4667640000    -3.6236230000     2.1994550000
   12      C      -0.6702460000    -1.9437510000     0.2664470000
   13      C      -1.4933780000    -2.6389320000     1.1420540000
   14      O       3.2580200000    -3.8266160000     2.2657630000
   15      O       1.0750160000    -0.5965290000    -1.4622300000
   16      H       5.4291350000    -3.1009540000     1.3081760000
   17      H       6.9052090000    -1.8420310000    -0.2575470000
   18      H       5.9014710000    -0.3564070000    -1.9727290000
   19      H      -2.5703570000    -2.5357310000     1.1026910000
   20      H       3.4232680000    -0.1313090000    -2.1193270000
   21      H       0.9122990000    -4.2613350000     2.9523440000
   22      H      -1.0851140000    -1.2852800000    -0.4861990000
   23      C      -0.9078950000    -3.4727360000     2.0961120000
   24      S      -1.9704180000    -4.3716440000     3.2277110000
   25      O      -1.2561920000    -4.6525960000     4.4646310000
   26      O      -3.2807690000    -3.7368620000     3.2678830000
   27      O      -2.0760350000    -5.7553570000     2.3528010000
   28      C      -2.8211730000    -6.8380180000     2.9665990000
   29      H      -2.3525540000    -7.1337860000     3.9064120000
   30      H      -2.7703700000    -7.6519700000     2.2471630000
   31      H      -3.8589050000    -6.5406220000     3.1268150000
 ----------------------------------------------------------------

   15   -1352.1500453038      8.81e-09  Convergence criterion met
 Total energy in the final basis set =    -1352.1799347943

                    Orbital Energies (a.u.)
 --------------------------------------------------------------

 Alpha MOs
 -- Occupied --
-89.0951 -19.1822 -19.1424 -19.1423 -19.1367 -19.1358 -10.2888 -10.2886
-10.2442 -10.2312 -10.2253 -10.2242 -10.2218 -10.2213 -10.2129 -10.2125
-10.2123 -10.2000 -10.1998 -10.1994 -10.1991  -8.1562  -6.1198  -6.1180
 -6.1169  -1.1641  -1.0722  -1.0703  -1.0540  -1.0375  -0.9121  -0.8903
 -0.8325  -0.8015  -0.7862  -0.7810  -0.7483  -0.7010  -0.6863  -0.6612
 -0.6333  -0.6234  -0.5950  -0.5764  -0.5695  -0.5402  -0.5267  -0.5145
 -0.5021  -0.4954  -0.4899  -0.4693  -0.4679  -0.4637  -0.4606  -0.4599
 -0.4525  -0.4524  -0.4479  -0.4268  -0.4253  -0.4110  -0.4056  -0.3949
 -0.3839  -0.3773  -0.3703  -0.3617  -0.3566  -0.3453  -0.3427  -0.3091
 -0.3034  -0.2953  -0.2933  -0.2838  -0.2811  -0.2803

          Ground-State Mulliken Net Atomic Charges

     Atom                 Charge (a.u.)
  ----------------------------------------
      1 C                     0.028881
      2 C                     0.403039
      3 C                     0.426715
      4 C                    -0.028560
      5 C                     0.141393
      6 C                     0.261783
      7 C                    -1.231279
      8 C                     0.095916
      9 C                     0.574093
     10 C                    -1.121280
     11 C                    -0.170912
     12 C                     0.504350
     13 C                     0.266178
     14 O                    -0.267161
     15 O                    -0.242364
     16 H                     0.189748
     17 H                     0.325175
     18 H                     0.329185
     19 H                     0.338712
     20 H                     0.198846
     21 H                     0.217857
     22 H                     0.257068
     23 C                    -1.547152
     24 S                    -0.094487
     25 O                    -0.237767
     26 O                    -0.186907
     27 O                    -0.010401
     28 C                    -0.043908
     29 H                     0.186909
     30 H                     0.244171
     31 H                     0.192162
  ----------------------------------------
  Sum of atomic charges =     0.000000

                    Cartesian Multipole Moments
 -----------------------------------------------------------------
    Charge (ESU x 10^10)
                 0.0000
    Dipole Moment (Debye)
         X       2.8818      Y      -0.4504      Z      -3.8888
       Tot       4.8611
    Quadrupole Moments (Debye-Ang)
        XX    -102.1805     XY       9.4555     YY    -113.9160
        XZ      -4.7741     YZ      10.0859     ZZ    -150.8818

 Total job time:  802.05s(wall), 6271.39s(cpu)
        *  Thank you very much for using Q-Chem.  Have a nice day.  *
