 Q-Chem 5.4, Q-Chem, Inc., Pleasanton, CA (2021)
 Q-Chem 5.4.0 for Intel X86 EM64T Linux

User input:
--------------------------------------------------------------
$molecule
-1 1
C                 -3.4922130000      2.4023360000      1.1174340000
C                 -4.2239260000      2.2805180000      2.2864620000
C                 -3.8238750000      1.3453960000      3.2449080000
C                 -2.3615490000      1.6025730000      0.8865000000
C                 -1.9509940000      0.6610180000      1.8404930000
C                 -2.7063050000      0.5522640000      3.0202910000
C                 -1.6275000000      1.7975810000     -0.4024770000
C                 -0.4359580000      0.9573880000     -0.6400590000
C                 -0.0116220000      0.0066630000      0.3062810000
C                 -0.7281890000     -0.2361780000      1.6389580000
C                  0.2693290000      1.1322660000     -1.8472480000
C                  1.3912790000      0.3740760000     -2.1264260000
C                  1.8180330000     -0.5753040000     -1.1939200000
C                  1.1270250000     -0.7516830000     -0.0033340000
O                 -2.0209670000      2.6290620000     -1.2103180000
S                  2.3634780000      0.6197400000     -3.6599900000
O                  1.4362390000      1.3210380000     -4.5782910000
O                  3.5213080000      1.4327310000     -3.2085060000
O                  2.7214450000     -0.7631440000     -4.0674740000
C                  0.2727210000      0.0319340000      2.7978770000
C                 -1.1949170000     -1.7181820000      1.6916970000
H                 -3.7657870000      3.1137700000      0.3476920000
H                 -5.0959600000      2.9025700000      2.4566580000
H                 -4.3841500000      1.2350670000      4.1676980000
H                 -2.4182350000     -0.1648330000      3.7800190000
H                 -0.0815810000      1.8625450000     -2.5652390000
H                  2.6876620000     -1.1800140000     -1.4237510000
H                  1.4862010000     -1.5003070000      0.6943050000
H                  0.6080760000      1.0714720000      2.7802180000
H                  1.1524390000     -0.6073020000      2.7050670000
H                 -0.1855640000     -0.1642660000      3.7704040000
H                 -0.3469860000     -2.3954790000      1.5757300000
H                 -1.9038450000     -1.9243830000      0.8864770000
H                 -1.6811530000     -1.9464930000      2.6434310000
$end

$rem
BASIS  =  6-311++G(d,p)
GUI  =  2
JOB_TYPE  =  SP
METHOD  =  B3LYP
SCF_CONVERGENCE  = 8
SOLVENT_METHOD = sm12
$end

$smx
solvent dimethylformamide
charges CM5
$end

--------------------------------------------------------------

             Standard Nuclear Orientation (Angstroms)
    I     Atom           X                Y                Z
 ----------------------------------------------------------------
    1      C      -3.4922130000     2.4023360000     1.1174340000
    2      C      -4.2239260000     2.2805180000     2.2864620000
    3      C      -3.8238750000     1.3453960000     3.2449080000
    4      C      -2.3615490000     1.6025730000     0.8865000000
    5      C      -1.9509940000     0.6610180000     1.8404930000
    6      C      -2.7063050000     0.5522640000     3.0202910000
    7      C      -1.6275000000     1.7975810000    -0.4024770000
    8      C      -0.4359580000     0.9573880000    -0.6400590000
    9      C      -0.0116220000     0.0066630000     0.3062810000
   10      C      -0.7281890000    -0.2361780000     1.6389580000
   11      C       0.2693290000     1.1322660000    -1.8472480000
   12      C       1.3912790000     0.3740760000    -2.1264260000
   13      C       1.8180330000    -0.5753040000    -1.1939200000
   14      C       1.1270250000    -0.7516830000    -0.0033340000
   15      O      -2.0209670000     2.6290620000    -1.2103180000
   16      S       2.3634780000     0.6197400000    -3.6599900000
   17      O       1.4362390000     1.3210380000    -4.5782910000
   18      O       3.5213080000     1.4327310000    -3.2085060000
   19      O       2.7214450000    -0.7631440000    -4.0674740000
   20      C       0.2727210000     0.0319340000     2.7978770000
   21      C      -1.1949170000    -1.7181820000     1.6916970000
   22      H      -3.7657870000     3.1137700000     0.3476920000
   23      H      -5.0959600000     2.9025700000     2.4566580000
   24      H      -4.3841500000     1.2350670000     4.1676980000
   25      H      -2.4182350000    -0.1648330000     3.7800190000
   26      H      -0.0815810000     1.8625450000    -2.5652390000
   27      H       2.6876620000    -1.1800140000    -1.4237510000
   28      H       1.4862010000    -1.5003070000     0.6943050000
   29      H       0.6080760000     1.0714720000     2.7802180000
   30      H       1.1524390000    -0.6073020000     2.7050670000
   31      H      -0.1855640000    -0.1642660000     3.7704040000
   32      H      -0.3469860000    -2.3954790000     1.5757300000
   33      H      -1.9038450000    -1.9243830000     0.8864770000
   34      H      -1.6811530000    -1.9464930000     2.6434310000
 ----------------------------------------------------------------

   15   -1316.9257902956      5.22e-09  Convergence criterion met
 Total energy in the final basis set =    -1317.0345380920

                    Orbital Energies (a.u.)
 --------------------------------------------------------------

 Alpha MOs
 -- Occupied --
-89.0313 -19.1136 -19.0762 -19.0751 -19.0746 -10.2683 -10.2150 -10.2074
-10.2045 -10.1995 -10.1977 -10.1954 -10.1944 -10.1915 -10.1909 -10.1906
-10.1873 -10.1870 -10.1859 -10.1708 -10.1708  -8.0902  -6.0528  -6.0527
 -6.0523  -1.0946  -1.0485  -0.9608  -0.9576  -0.8951  -0.8737  -0.8306
 -0.7894  -0.7693  -0.7631  -0.7440  -0.6976  -0.6669  -0.6560  -0.6369
 -0.6132  -0.5905  -0.5774  -0.5495  -0.5294  -0.5017  -0.4861  -0.4811
 -0.4752  -0.4539  -0.4515  -0.4483  -0.4388  -0.4377  -0.4366  -0.4356
 -0.4267  -0.4182  -0.4156  -0.4087  -0.3884  -0.3798  -0.3778  -0.3698
 -0.3691  -0.3534  -0.3470  -0.3329  -0.3187  -0.3181  -0.2974  -0.2841
 -0.2789  -0.2740  -0.2701  -0.2643  -0.2638  -0.2532  -0.2397

          Ground-State Mulliken Net Atomic Charges

     Atom                 Charge (a.u.)
  ----------------------------------------
      1 C                    -0.132369
      2 C                     0.427639
      3 C                     1.471713
      4 C                     0.221549
      5 C                     0.924622
      6 C                     0.826853
      7 C                    -0.869303
      8 C                     0.373495
      9 C                     0.965618
     10 C                     0.961258
     11 C                    -1.192722
     12 C                    -4.595922
     13 C                    -1.820857
     14 C                     0.399059
     15 O                    -0.303052
     16 S                    -0.297070
     17 O                    -0.396178
     18 O                    -0.359987
     19 O                    -0.362840
     20 C                    -0.185887
     21 C                    -0.150501
     22 H                     0.155797
     23 H                     0.297169
     24 H                     0.380407
     25 H                     0.335728
     26 H                     0.120217
     27 H                     0.222852
     28 H                     0.336262
     29 H                     0.108321
     30 H                     0.218481
     31 H                     0.296372
     32 H                     0.222694
     33 H                     0.106928
     34 H                     0.293655
  ----------------------------------------
  Sum of atomic charges =    -1.000000

                    Cartesian Multipole Moments
 -----------------------------------------------------------------
    Charge (ESU x 10^10)
                -4.8032
    Dipole Moment (Debye)
         X     -11.2619      Y      -6.7542      Z      23.1516
       Tot      26.6166
    Quadrupole Moments (Debye-Ang)
        XX    -168.4375     XY      -7.2644     YY    -148.8652
        XZ      38.2697     YZ      15.2914     ZZ    -208.0143

 Total job time:  1084.72s(wall), 8486.77s(cpu)
        *  Thank you very much for using Q-Chem.  Have a nice day.  *
