 Q-Chem 5.4, Q-Chem, Inc., Pleasanton, CA (2021)
 Q-Chem 5.4.0 for Intel X86 EM64T Linux

User input:
--------------------------------------------------------------
$molecule
-2 1
C                 -3.2088750000      0.0610090000      1.0001430000
C                 -1.8494720000     -0.0023480000      0.3509870000
C                 -1.7402990000     -0.2202620000     -1.0426970000
C                 -0.5246690000     -0.2966680000     -1.7672740000
O                 -0.4475560000     -0.4995870000     -3.0469570000
C                  0.6568390000     -0.1277930000     -0.9272350000
C                  1.9456380000     -0.1812310000     -1.5067340000
C                  3.1030120000     -0.0272840000     -0.7625360000
C                  3.0068540000      0.1943470000      0.6384200000
C                  1.7607460000      0.2514360000      1.2367800000
C                  0.5577230000      0.0963190000      0.5046690000
C                 -0.7186430000      0.1668500000      1.1959740000
O                 -0.8158870000      0.3708830000      2.4780580000
H                 -4.0032350000     -0.1830790000      0.2824380000
H                 -3.2724750000     -0.6289460000      1.8538050000
H                 -3.4162180000      1.0589460000      1.4199890000
H                 -2.6563900000     -0.3444110000     -1.6246050000
H                  1.9808130000     -0.3512810000     -2.5796780000
H                  4.0792200000     -0.0744810000     -1.2448960000
H                  3.9099020000      0.3182080000      1.2363120000
H                  1.6529700000      0.4193740000      2.3050400000
$end
$rem
MAX_SCF_CYCLES=200
BASIS  =  6-311++G(d,p)
GUI  =  2
JOB_TYPE  =  SP
METHOD  =  B3LYP
SOLVENT_METHOD = COSMO
$end
$solvent
dielectric 37.219
opticaldielectric 1.43
$end

--------------------------------------------------------------

             Standard Nuclear Orientation (Angstroms)
    I     Atom           X                Y                Z
 ----------------------------------------------------------------
    1      C       3.4473827328    -0.2781684163     0.0000995231
    2      C       1.9704281734     0.0251424031     0.0014831727
    3      C       1.5237311283     1.3676105922     0.0003614519
    4      C       0.1677754730     1.7799046803    -0.0016002738
    5      O      -0.2199733264     3.0185978836    -0.0005360687
    6      C      -0.7724746200     0.6636280968    -0.0002613031
    7      C      -2.1639217431     0.9157238954     0.0001689241
    8      C      -3.1041988651    -0.1006046883     0.0004174737
    9      C      -2.6683240820    -1.4537700632    -0.0005908672
   10      C      -1.3136667691    -1.7348083244    -0.0003635846
   11      C      -0.3261842804    -0.7188415791     0.0010665826
   12      C       1.0805403039    -1.0836879396     0.0017506922
   13      O       1.4884091132    -2.3199979922    -0.0006434585
   14      H       4.0411740430     0.6396059134     0.1039715020
   15      H       3.7103377507    -0.9693980573     0.8136583189
   16      H       3.7596366249    -0.7897546400    -0.9250583455
   17      H       2.2697002750     2.1655908180     0.0035562036
   18      H      -2.4604327557     1.9614027766     0.0000847176
   19      H      -4.1687741738     0.1329765248     0.0005382424
   20      H      -3.3977587925    -2.2638542963    -0.0013780319
   21      H      -0.9478939758    -2.7581401114    -0.0011271388
 ----------------------------------------------------------------

   11    -574.5568222023      9.50e-06  Convergence criterion met
 Total energy in the final basis set =     -574.5568222023
    6    -574.8495902917      2.61e-06  Convergence criterion met
 Total energy in the final basis set =     -574.8495902917

                    Orbital Energies (a.u.)
 --------------------------------------------------------------

 Alpha MOs
 -- Occupied --
-19.0234 -19.0203 -10.1735 -10.1676 -10.1508 -10.1499 -10.1468 -10.1460
-10.1399 -10.1394 -10.1387 -10.1298 -10.1203  -0.9353  -0.9302  -0.8250
 -0.7724  -0.7234  -0.7215  -0.6683  -0.6305  -0.5830  -0.5632  -0.5238
 -0.4758  -0.4649  -0.4319  -0.4176  -0.3999  -0.3937  -0.3851  -0.3752
 -0.3639  -0.3584  -0.3506  -0.3388  -0.3211  -0.3129  -0.3106  -0.3037
 -0.2314  -0.2275  -0.2108  -0.2047  -0.1982  -0.1171

          Ground-State Mulliken Net Atomic Charges

     Atom                 Charge (a.u.)
  ----------------------------------------
      1 C                    -0.397689
      2 C                     0.760161
      3 C                    -0.433696
      4 C                    -0.772103
      5 O                    -0.765312
      6 C                     0.396732
      7 C                    -0.106577
      8 C                    -0.463407
      9 C                    -0.511873
     10 C                    -0.043798
     11 C                     0.275778
     12 C                    -0.401759
     13 O                    -0.751063
     14 H                     0.140033
     15 H                     0.147106
     16 H                     0.148972
     17 H                     0.111989
     18 H                     0.154180
     19 H                     0.181326
     20 H                     0.182276
     21 H                     0.148724
  ----------------------------------------
  Sum of atomic charges =    -2.000000

                    Cartesian Multipole Moments
 -----------------------------------------------------------------
    Charge (ESU x 10^10)
                -9.6064
    Dipole Moment (Debye)
         X      -3.8794      Y      -2.9074      Z      -0.0036
       Tot       4.8480
    Quadrupole Moments (Debye-Ang)
        XX     -98.1457     XY      14.6157     YY    -142.3118
        XZ       0.0018     YZ       0.0115     ZZ     -87.5552

 Total job time:  34.48s(wall), 255.37s(cpu)
        *  Thank you very much for using Q-Chem.  Have a nice day.  *
