 Q-Chem 5.4, Q-Chem, Inc., Pleasanton, CA (2021)
 Q-Chem 5.4.0 for Intel X86 EM64T Linux

User input:
--------------------------------------------------------------
$molecule
-2 1
C                  1.9166070000      3.5811730000      3.7581920000
C                  2.9718170000      3.5380780000      2.7726450000
C                  3.4456590000      2.3758600000      2.1924710000
C                  2.9284560000      1.0640550000      2.4984400000
C                  1.3874820000      2.2669320000      4.0545220000
C                  1.8686180000      1.0867190000      3.4569930000
O                  1.5054640000      4.6722120000      4.2838000000
O                  3.3821900000     -0.0129170000      1.9499660000
S                  0.1818800000      2.0882120000      5.3682380000
C                 -1.3729200000      2.7002970000      4.7461950000
C                 -2.5190980000      2.5229000000      5.5400170000
C                 -1.5039450000      3.3590910000      3.5153500000
C                 -2.7522550000      3.8140660000      3.0964440000
C                 -3.7627520000      2.9798670000      5.1133380000
C                 -3.8917660000      3.6299020000      3.8834780000
H                  3.4063550000      4.5010750000      2.5059940000
H                  4.2534120000      2.4219330000      1.4615250000
H                  1.4210050000      0.1344130000      3.7275650000
H                 -2.4291460000      2.0146390000      6.4969220000
H                 -0.6179430000      3.5158320000      2.9126540000
H                 -2.8345380000      4.3276940000      2.1414090000
H                 -4.6403980000      2.8209100000      5.7386500000
H                 -4.8638320000      3.9840700000      3.5486870000
$end
$rem
MAX_SCF_CYCLES=200
BASIS  =  6-311++G(d,p)
GUI  =  2
JOB_TYPE  =  SP
METHOD  =  B3LYP
SOLVENT_METHOD = PCM
$end
$pcm
theory = CPCM
$end
$solvent
dielectric 37.219
opticaldielectric 1.43
$end

--------------------------------------------------------------

             Standard Nuclear Orientation (Angstroms)
    I     Atom           X                Y                Z
 ----------------------------------------------------------------
    1      C       1.9166070000     3.5811730000     3.7581920000
    2      C       2.9718170000     3.5380780000     2.7726450000
    3      C       3.4456590000     2.3758600000     2.1924710000
    4      C       2.9284560000     1.0640550000     2.4984400000
    5      C       1.3874820000     2.2669320000     4.0545220000
    6      C       1.8686180000     1.0867190000     3.4569930000
    7      O       1.5054640000     4.6722120000     4.2838000000
    8      O       3.3821900000    -0.0129170000     1.9499660000
    9      S       0.1818800000     2.0882120000     5.3682380000
   10      C      -1.3729200000     2.7002970000     4.7461950000
   11      C      -2.5190980000     2.5229000000     5.5400170000
   12      C      -1.5039450000     3.3590910000     3.5153500000
   13      C      -2.7522550000     3.8140660000     3.0964440000
   14      C      -3.7627520000     2.9798670000     5.1133380000
   15      C      -3.8917660000     3.6299020000     3.8834780000
   16      H       3.4063550000     4.5010750000     2.5059940000
   17      H       4.2534120000     2.4219330000     1.4615250000
   18      H       1.4210050000     0.1344130000     3.7275650000
   19      H      -2.4291460000     2.0146390000     6.4969220000
   20      H      -0.6179430000     3.5158320000     2.9126540000
   21      H      -2.8345380000     4.3276940000     2.1414090000
   22      H      -4.6403980000     2.8209100000     5.7386500000
   23      H      -4.8638320000     3.9840700000     3.5486870000
 ----------------------------------------------------------------

    9   -1011.1647102857      5.10e-06  Convergence criterion met
 Total energy in the final basis set =    -1011.1647102857

                    Orbital Energies (a.u.)
 --------------------------------------------------------------

 Alpha MOs
 -- Occupied --
-88.8344 -19.0233 -19.0184 -10.1987 -10.1804 -10.1732 -10.1719 -10.1709
-10.1704 -10.1667 -10.1663 -10.1580 -10.1300 -10.1292 -10.1281  -7.9203
 -5.8841  -5.8801  -5.8749  -0.9438  -0.9331  -0.8576  -0.7972  -0.7685
 -0.7433  -0.7220  -0.6736  -0.6419  -0.6024  -0.5858  -0.5567  -0.5284
 -0.5009  -0.4533  -0.4456  -0.4348  -0.4317  -0.4170  -0.4146  -0.3941
 -0.3751  -0.3652  -0.3606  -0.3576  -0.3408  -0.3362  -0.3288  -0.3188
 -0.3066  -0.2834  -0.2550  -0.2323  -0.2253  -0.2053  -0.2028  -0.1961
 -0.1237

          Ground-State Mulliken Net Atomic Charges

     Atom                 Charge (a.u.)
  ----------------------------------------
      1 C                    -0.566397
      2 C                    -0.245077
      3 C                    -0.031243
      4 C                    -0.591072
      5 C                     1.421573
      6 C                    -0.353060
      7 O                    -0.676502
      8 O                    -0.755298
      9 S                    -0.604551
     10 C                     0.652059
     11 C                    -0.413080
     12 C                    -0.010509
     13 C                    -0.398435
     14 C                    -0.528639
     15 C                    -0.378842
     16 H                     0.161910
     17 H                     0.149868
     18 H                     0.170292
     19 H                     0.203808
     20 H                     0.185661
     21 H                     0.217511
     22 H                     0.204235
     23 H                     0.185787
  ----------------------------------------
  Sum of atomic charges =    -2.000000

                    Cartesian Multipole Moments
 -----------------------------------------------------------------
    Charge (ESU x 10^10)
                -9.6064
    Dipole Moment (Debye)
         X     -20.7765      Y     -21.2114      Z     -32.6052
       Tot      44.0986
    Quadrupole Moments (Debye-Ang)
        XX    -158.7809     XY     -29.7365     YY    -195.3244
        XZ     -57.3589     YZ     -96.5723     ZZ    -228.7243

 Total job time:  39.01s(wall), 255.87s(cpu)
        *  Thank you very much for using Q-Chem.  Have a nice day.  *
