 Q-Chem 5.4, Q-Chem, Inc., Pleasanton, CA (2021)
 Q-Chem 5.4.0 for Intel X86 EM64T Linux

User input:
--------------------------------------------------------------
$molecule
0 1
C                  5.0426030000     -2.2342860000      0.7457340000
C                  5.8791570000     -1.4129290000     -0.0005450000
C                  5.3435160000     -0.5683430000     -0.9770330000
C                  3.6620320000     -2.2201220000      0.5233190000
C                  3.1231020000     -1.3703100000     -0.4593650000
C                  3.9726640000     -0.5472280000     -1.2049330000
C                  2.7880470000     -3.1135620000      1.3392230000
C                  1.3204010000     -3.0718950000      1.0700910000
C                  0.7840150000     -2.2213360000      0.0875640000
C                  1.6545820000     -1.3267870000     -0.7256560000
C                  0.4728930000     -3.8993620000      1.8103780000
C                 -0.5963000000     -2.2187700000     -0.1333340000
C                 -1.4263270000     -3.0461760000      0.6109090000
O                  3.2558260000     -3.8486460000      2.1938110000
O                  1.1874010000     -0.5865880000     -1.5766000000
H                  5.4358620000     -2.8964660000      1.5071060000
H                  6.9487650000     -1.4280070000      0.1754720000
H                  5.9978440000      0.0715450000     -1.5581420000
H                 -2.4953530000     -3.0395940000      0.4236210000
H                  3.5360100000      0.0991540000     -1.9561700000
H                  0.9181430000     -4.5495160000      2.5550410000
H                 -0.9965610000     -1.5628400000     -0.8966280000
C                 -0.9060120000     -3.8995520000      1.5962530000
C                 -1.8183640000     -4.7707680000      2.4263830000
C                 -2.2671130000     -4.0747880000      3.7128790000
O                 -3.1318910000     -4.9736560000      4.4057960000
H                 -1.3120840000     -5.7009240000      2.6979210000
H                 -2.7099610000     -5.0412690000      1.8539310000
H                 -2.7892110000     -3.1400220000      3.4684490000
H                 -1.3907530000     -3.8235360000      4.3244740000
H                 -3.4051620000     -4.5689810000      5.2344750000
$end

$rem
BASIS  =  6-311++G(d,p)
GUI  =  2
JOB_TYPE  =  SP
METHOD  =  B3LYP
SCF_CONVERGENCE  = 8
SOLVENT_METHOD = sm12
$end

$smx
solvent dimethylformamide
charges CM5
$end

--------------------------------------------------------------

             Standard Nuclear Orientation (Angstroms)
    I     Atom           X                Y                Z
 ----------------------------------------------------------------
    1      C       5.0426030000    -2.2342860000     0.7457340000
    2      C       5.8791570000    -1.4129290000    -0.0005450000
    3      C       5.3435160000    -0.5683430000    -0.9770330000
    4      C       3.6620320000    -2.2201220000     0.5233190000
    5      C       3.1231020000    -1.3703100000    -0.4593650000
    6      C       3.9726640000    -0.5472280000    -1.2049330000
    7      C       2.7880470000    -3.1135620000     1.3392230000
    8      C       1.3204010000    -3.0718950000     1.0700910000
    9      C       0.7840150000    -2.2213360000     0.0875640000
   10      C       1.6545820000    -1.3267870000    -0.7256560000
   11      C       0.4728930000    -3.8993620000     1.8103780000
   12      C      -0.5963000000    -2.2187700000    -0.1333340000
   13      C      -1.4263270000    -3.0461760000     0.6109090000
   14      O       3.2558260000    -3.8486460000     2.1938110000
   15      O       1.1874010000    -0.5865880000    -1.5766000000
   16      H       5.4358620000    -2.8964660000     1.5071060000
   17      H       6.9487650000    -1.4280070000     0.1754720000
   18      H       5.9978440000     0.0715450000    -1.5581420000
   19      H      -2.4953530000    -3.0395940000     0.4236210000
   20      H       3.5360100000     0.0991540000    -1.9561700000
   21      H       0.9181430000    -4.5495160000     2.5550410000
   22      H      -0.9965610000    -1.5628400000    -0.8966280000
   23      C      -0.9060120000    -3.8995520000     1.5962530000
   24      C      -1.8183640000    -4.7707680000     2.4263830000
   25      C      -2.2671130000    -4.0747880000     3.7128790000
   26      O      -3.1318910000    -4.9736560000     4.4057960000
   27      H      -1.3120840000    -5.7009240000     2.6979210000
   28      H      -2.7099610000    -5.0412690000     1.8539310000
   29      H      -2.7892110000    -3.1400220000     3.4684490000
   30      H      -1.3907530000    -3.8235360000     4.3244740000
   31      H      -3.4051620000    -4.5689810000     5.2344750000
 ----------------------------------------------------------------

   15    -842.8435357808      2.85e-09  Convergence criterion met
 Total energy in the final basis set =     -842.8708744604

                    Orbital Energies (a.u.)
 --------------------------------------------------------------

 Alpha MOs
 -- Occupied --
-19.1287 -19.1275 -19.1260 -10.2809 -10.2800 -10.2219 -10.2085 -10.2080
-10.2078 -10.2064 -10.2059 -10.1979 -10.1974 -10.1968 -10.1967 -10.1964
-10.1953 -10.1946 -10.1785  -1.0636  -1.0615  -1.0266  -0.8941  -0.8832
 -0.8222  -0.7906  -0.7779  -0.7739  -0.7422  -0.6873  -0.6678  -0.6455
 -0.6213  -0.6076  -0.5857  -0.5594  -0.5490  -0.5218  -0.5043  -0.4948
 -0.4854  -0.4668  -0.4664  -0.4553  -0.4533  -0.4510  -0.4470  -0.4395
 -0.4308  -0.4256  -0.4175  -0.3903  -0.3883  -0.3787  -0.3702  -0.3676
 -0.3651  -0.3580  -0.3421  -0.2872  -0.2856  -0.2840  -0.2786  -0.2751
 -0.2731  -0.2697

          Ground-State Mulliken Net Atomic Charges

     Atom                 Charge (a.u.)
  ----------------------------------------
      1 C                     0.088062
      2 C                     0.402171
      3 C                     0.419935
      4 C                    -0.128710
      5 C                    -0.526935
      6 C                     0.130036
      7 C                    -1.464785
      8 C                    -0.393393
      9 C                    -0.813686
     10 C                    -1.780202
     11 C                    -0.182974
     12 C                     0.258534
     13 C                     0.255396
     14 O                    -0.256614
     15 O                    -0.261593
     16 H                     0.186979
     17 H                     0.328640
     18 H                     0.327743
     19 H                     0.305442
     20 H                     0.188744
     21 H                     0.172951
     22 H                     0.213204
     23 C                     1.450802
     24 C                     0.854590
     25 C                    -0.431633
     26 O                    -0.344425
     27 H                     0.170395
     28 H                     0.189591
     29 H                     0.189489
     30 H                     0.181653
     31 H                     0.270593
  ----------------------------------------
  Sum of atomic charges =     0.000000

                    Cartesian Multipole Moments
 -----------------------------------------------------------------
    Charge (ESU x 10^10)
                 0.0000
    Dipole Moment (Debye)
         X       0.1319      Y       1.2569      Z       0.9411
       Tot       1.5757
    Quadrupole Moments (Debye-Ang)
        XX     -87.7486     XY       6.4849     YY    -125.3991
        XZ     -10.8448     YZ       4.0992     ZZ    -106.8569

 Total job time:  755.02s(wall), 5922.23s(cpu)
        *  Thank you very much for using Q-Chem.  Have a nice day.  *
