 Q-Chem 5.4, Q-Chem, Inc., Pleasanton, CA (2021)
 Q-Chem 5.4.0 for Intel X86 EM64T Linux

User input:
--------------------------------------------------------------
$molecule
-1 2
N                 -2.9464940000     -1.8443350000     -0.3018860000
C                 -2.5485220000     -0.5290670000     -0.1350480000
C                 -3.5046240000      0.4810400000     -0.0131900000
C                 -3.1221710000      1.8077570000      0.2229290000
C                 -1.7879560000      2.1440020000      0.3449150000
C                 -0.7897110000      1.1579180000      0.2141860000
C                  0.6111680000      1.6006190000      0.3414440000
O                  0.8689200000      2.8023160000      0.5688880000
C                  1.6489440000      0.5742440000      0.1833930000
C                  3.0450110000      0.8258650000      0.2901360000
Cl                 3.7095790000      2.4283170000      0.6603540000
C                  3.9953320000     -0.1620460000      0.1188170000
C                  3.5973280000     -1.4785970000     -0.1738620000
C                  2.2575510000     -1.7745730000     -0.2841990000
C                  1.2723530000     -0.7808170000     -0.1094960000
C                 -0.1240010000     -1.2038740000     -0.2395320000
O                 -0.3871880000     -2.4137840000     -0.5256010000
C                 -1.1524090000     -0.1975830000     -0.0412830000
H                 -3.8522370000     -1.9876230000     -0.7199060000
H                 -2.1828230000     -2.4678890000     -0.5685130000
H                 -4.5568610000      0.2183440000     -0.0860480000
H                 -3.8872550000      2.5733150000      0.3166550000
H                 -1.4682560000      3.1599100000      0.5358450000
H                  5.0437290000      0.0921480000      0.2138730000
H                  4.3495630000     -2.2495390000     -0.3074080000
H                  1.9110290000     -2.7760700000     -0.5054610000
$end

$rem
BASIS  =  6-311++G(d,p)
GUI  =  2
JOB_TYPE  =  SP
METHOD  =  B3LYP
SCF_CONVERGENCE  = 8
SOLVENT_METHOD = sm12
$end

$smx
solvent dimethylformamide
charges CM5
$end

--------------------------------------------------------------

             Standard Nuclear Orientation (Angstroms)
    I     Atom           X                Y                Z
 ----------------------------------------------------------------
    1      N      -2.9464940000    -1.8443350000    -0.3018860000
    2      C      -2.5485220000    -0.5290670000    -0.1350480000
    3      C      -3.5046240000     0.4810400000    -0.0131900000
    4      C      -3.1221710000     1.8077570000     0.2229290000
    5      C      -1.7879560000     2.1440020000     0.3449150000
    6      C      -0.7897110000     1.1579180000     0.2141860000
    7      C       0.6111680000     1.6006190000     0.3414440000
    8      O       0.8689200000     2.8023160000     0.5688880000
    9      C       1.6489440000     0.5742440000     0.1833930000
   10      C       3.0450110000     0.8258650000     0.2901360000
   11      Cl      3.7095790000     2.4283170000     0.6603540000
   12      C       3.9953320000    -0.1620460000     0.1188170000
   13      C       3.5973280000    -1.4785970000    -0.1738620000
   14      C       2.2575510000    -1.7745730000    -0.2841990000
   15      C       1.2723530000    -0.7808170000    -0.1094960000
   16      C      -0.1240010000    -1.2038740000    -0.2395320000
   17      O      -0.3871880000    -2.4137840000    -0.5256010000
   18      C      -1.1524090000    -0.1975830000    -0.0412830000
   19      H      -3.8522370000    -1.9876230000    -0.7199060000
   20      H      -2.1828230000    -2.4678890000    -0.5685130000
   21      H      -4.5568610000     0.2183440000    -0.0860480000
   22      H      -3.8872550000     2.5733150000     0.3166550000
   23      H      -1.4682560000     3.1599100000     0.5358450000
   24      H       5.0437290000     0.0921480000     0.2138730000
   25      H       4.3495630000    -2.2495390000    -0.3074080000
   26      H       1.9110290000    -2.7760700000    -0.5054610000
 ----------------------------------------------------------------

   18   -1204.0107895930      7.00e-09  Convergence criterion met
 Total energy in the final basis set =    -1204.0972225761

                    Orbital Energies (a.u.)
 --------------------------------------------------------------

 Alpha MOs
 -- Occupied --
******** -19.0825 -19.0749 -14.3127 -10.2413 -10.2335 -10.2309 -10.2253
-10.1935 -10.1866 -10.1858 -10.1849 -10.1810 -10.1808 -10.1799 -10.1783
-10.1725 -10.1651  -9.4589  -7.2235  -7.2141  -7.2130  -1.0094  -1.0061
 -0.9201  -0.8888  -0.8493  -0.8339  -0.7932  -0.7507  -0.7432  -0.7343
 -0.6731  -0.6459  -0.6342  -0.5893  -0.5604  -0.5559  -0.5358  -0.5050
 -0.4859  -0.4810  -0.4735  -0.4563  -0.4478  -0.4335  -0.4333  -0.4236
 -0.4129  -0.4041  -0.3970  -0.3860  -0.3825  -0.3685  -0.3624  -0.3590
 -0.3509  -0.3283  -0.3145  -0.3099  -0.2755  -0.2600  -0.2537  -0.2506
 -0.2328  -0.2179  -0.1444

 Beta MOs
 -- Occupied --
******** -19.0773 -19.0689 -14.3125 -10.2413 -10.2317 -10.2297 -10.2253
-10.1926 -10.1860 -10.1848 -10.1843 -10.1808 -10.1806 -10.1789 -10.1783
-10.1717 -10.1649  -9.4589  -7.2235  -7.2140  -7.2130  -1.0003  -0.9959
 -0.9193  -0.8875  -0.8472  -0.8329  -0.7895  -0.7488  -0.7405  -0.7328
 -0.6664  -0.6441  -0.6318  -0.5885  -0.5583  -0.5537  -0.5347  -0.5041
 -0.4846  -0.4780  -0.4725  -0.4554  -0.4466  -0.4330  -0.4232  -0.4220
 -0.4078  -0.4015  -0.3926  -0.3845  -0.3675  -0.3634  -0.3579  -0.3539
 -0.3483  -0.3227  -0.3092  -0.3082  -0.2561  -0.2531  -0.2470  -0.2458
 -0.2276  -0.2108

          Ground-State Mulliken Net Atomic Charges

     Atom                 Charge (a.u.)    Spin (a.u.)
  --------------------------------------------------------
      1 N                    -0.232250       0.008880
      2 C                    -0.145681       0.027381
      3 C                     1.602390       0.073190
      4 C                     0.672670       0.037994
      5 C                    -0.365729       0.050764
      6 C                    -1.036190       0.062867
      7 C                    -3.079490       0.040531
      8 O                    -0.187179       0.225211
      9 C                    -1.364696       0.055698
     10 C                     0.836758       0.024792
     11 Cl                    0.618774      -0.000101
     12 C                     1.723307       0.047340
     13 C                     0.734759       0.050683
     14 C                     0.985296       0.038185
     15 C                    -0.365446       0.042688
     16 C                    -2.438978       0.073094
     17 O                    -0.251210       0.197449
     18 C                    -1.034249      -0.033536
     19 H                     0.388713      -0.000767
     20 H                     0.281849      -0.003055
     21 H                     0.310730      -0.005158
     22 H                     0.345367      -0.002789
     23 H                     0.119875      -0.003449
     24 H                     0.322701      -0.003449
     25 H                     0.368717      -0.003889
     26 H                     0.189194      -0.000554
  --------------------------------------------------------
  Sum of atomic charges =    -1.000000

                    Cartesian Multipole Moments
 -----------------------------------------------------------------
    Charge (ESU x 10^10)
                -4.8032
    Dipole Moment (Debye)
         X      -2.7168      Y      -3.7054      Z      -1.5202
       Tot       4.8396
    Quadrupole Moments (Debye-Ang)
        XX    -119.8536     XY      -9.9962     YY    -142.3778
        XZ       0.7256     YZ      -3.2721     ZZ    -119.6793

 Total job time:  727.90s(wall), 5377.14s(cpu)
        *  Thank you very much for using Q-Chem.  Have a nice day.  *
