 Gaussian 16, Revision A.03,
 Gaussian 16:  ES64L-G16RevA.03 25-Dec-2016

 --------------------------------------
 #P UB3LYP/6-311++G(d,p) nosym opt freq
 --------------------------------------

 --------
 Oxidized
 --------
 Symbolic Z-matrix:
 Charge =  0 Multiplicity = 1

 SCF Done:  E(UB3LYP) =  -728.252989344     A.U. after   15 cycles
 SCF Done:  E(UB3LYP) =  -728.272492497     A.U. after   15 cycles
 SCF Done:  E(UB3LYP) =  -728.276805141     A.U. after   13 cycles
 SCF Done:  E(UB3LYP) =  -728.277401181     A.U. after   12 cycles
 SCF Done:  E(UB3LYP) =  -728.277434206     A.U. after   10 cycles
 SCF Done:  E(UB3LYP) =  -728.277435315     A.U. after    9 cycles
 Optimization completed.
    -- Stationary point found.
 Normal termination of Gaussian 16 at Thu Dec 21 06:03:50 2023.

 ----------------------------------------------------------------------
 #P Geom=AllCheck Guess=TCheck SCRF=Check GenChk UB3LYP/6-311++G(d,p) F
 req
 ----------------------------------------------------------------------

 Structure from the checkpoint file:  "123.chk"
 --------
 Oxidized
 --------
 Charge =  0 Multiplicity = 1

                          Input orientation:
 ---------------------------------------------------------------------
 Center     Atomic      Atomic             Coordinates (Angstroms)
 Number     Number       Type             X           Y           Z
 ---------------------------------------------------------------------
      1          6           0       -2.895335   -1.924678   -0.138989
      2          6           0       -2.407338   -0.499485   -0.050490
      3          6           0       -3.367479    0.514487    0.050588
      4          6           0       -3.020974    1.859024    0.137051
      5          6           0       -1.683637    2.227882    0.124177
      6          6           0       -0.695885    1.248241    0.024888
      7          6           0        0.725460    1.715632    0.016500
      8          8           0        0.998103    2.903212    0.093805
      9          6           0        1.792620    0.686972   -0.089174
     10          6           0        3.133575    1.085124   -0.100784
     11          6           0        4.140799    0.133771   -0.199024
     12          6           0        3.815153   -1.223193   -0.286357
     13          6           0        2.484968   -1.624778   -0.275262
     14          6           0        1.463793   -0.673689   -0.176663
     15          6           0        0.042595   -1.143284   -0.167443
     16          8           0       -0.195877   -2.339376   -0.246209
     17          6           0       -1.041137   -0.121442   -0.063134
     18          1           0       -3.986751   -1.942593   -0.110390
     19          1           0       -2.509626   -2.534402    0.680121
     20          1           0       -2.557023   -2.410577   -1.055939
     21          1           0       -4.415306    0.234252    0.061085
     22          1           0       -3.795295    2.614027    0.214011
     23          1           0       -1.377998    3.264205    0.189538
     24          1           0        3.358969    2.142077   -0.031829
     25          1           0        5.179537    0.443936   -0.207915
     26          1           0        4.602116   -1.964986   -0.362948
     27          1           0        2.211972   -2.670358   -0.341837
 ---------------------------------------------------------------------

 SCF Done:  E(UB3LYP) =  -728.277435315     A.U. after    1 cycles

 Alpha  occ. eigenvalues --  -19.12408 -19.12381 -10.27834 -10.27648 -10.21290
 Alpha  occ. eigenvalues --  -10.20984 -10.20750 -10.20722 -10.20616 -10.20119
 Alpha  occ. eigenvalues --  -10.20062 -10.19946 -10.19770 -10.19708 -10.19645
 Alpha  occ. eigenvalues --  -10.19392 -10.17099  -1.05994  -1.05785  -0.89358
 Alpha  occ. eigenvalues --   -0.88324  -0.81326  -0.79584  -0.77793  -0.77049
 Alpha  occ. eigenvalues --   -0.71134  -0.68272  -0.66196  -0.64411  -0.60813
 Alpha  occ. eigenvalues --   -0.57620  -0.56168  -0.55150  -0.50191  -0.49304
 Alpha  occ. eigenvalues --   -0.48881  -0.48586  -0.45562  -0.45166  -0.45086
 Alpha  occ. eigenvalues --   -0.44502  -0.43957  -0.42858  -0.42554  -0.40908
 Alpha  occ. eigenvalues --   -0.40159  -0.38931  -0.38352  -0.37567  -0.37406
 Alpha  occ. eigenvalues --   -0.36463  -0.36428  -0.28779  -0.27929  -0.27804
 Alpha  occ. eigenvalues --   -0.27702  -0.26847  -0.26694
 Alpha virt. eigenvalues --   -0.11408  -0.07141  -0.03820  -0.02637  -0.00992
 Alpha virt. eigenvalues --   -0.00560   0.00665   0.01387   0.01557   0.03167
 Alpha virt. eigenvalues --    0.03401   0.03490   0.03761   0.03799   0.03989

  Beta  occ. eigenvalues --  -19.12408 -19.12381 -10.27834 -10.27648 -10.21290
  Beta  occ. eigenvalues --  -10.20984 -10.20750 -10.20722 -10.20616 -10.20119
  Beta  occ. eigenvalues --  -10.20062 -10.19946 -10.19770 -10.19708 -10.19645
  Beta  occ. eigenvalues --  -10.19392 -10.17099  -1.05994  -1.05785  -0.89358
  Beta  occ. eigenvalues --   -0.88324  -0.81326  -0.79584  -0.77793  -0.77049
  Beta  occ. eigenvalues --   -0.71134  -0.68272  -0.66196  -0.64411  -0.60813
  Beta  occ. eigenvalues --   -0.57620  -0.56168  -0.55150  -0.50191  -0.49304
  Beta  occ. eigenvalues --   -0.48881  -0.48586  -0.45562  -0.45166  -0.45086
  Beta  occ. eigenvalues --   -0.44502  -0.43957  -0.42858  -0.42554  -0.40908
  Beta  occ. eigenvalues --   -0.40159  -0.38931  -0.38352  -0.37567  -0.37406
  Beta  occ. eigenvalues --   -0.36463  -0.36428  -0.28779  -0.27929  -0.27804
  Beta  occ. eigenvalues --   -0.27702  -0.26847  -0.26694
  Beta virt. eigenvalues --   -0.11408  -0.07141  -0.03820  -0.02637  -0.00992
  Beta virt. eigenvalues --   -0.00560   0.00665   0.01387   0.01557   0.03167
  Beta virt. eigenvalues --    0.03401   0.03490   0.03761   0.03799   0.03989

 Mulliken charges and spin densities:
               1          2
     1  C   -0.484599  -0.000000
     2  C    0.772007  -0.000000
     3  C   -0.396493  -0.000000
     4  C   -0.252898  -0.000000
     5  C    0.042510  -0.000000
     6  C    0.430164   0.000000
     7  C   -0.729630   0.000000
     8  O   -0.209070  -0.000000
     9  C    0.097185   0.000000
    10  C    0.085913   0.000000
    11  C   -0.365338   0.000000
    12  C   -0.393527   0.000000
    13  C    0.193710  -0.000000
    14  C    0.037777   0.000000
    15  C   -0.877438   0.000000
    16  O   -0.191347  -0.000000
    17  C    0.536831  -0.000000
    18  H    0.145332  -0.000000
    19  H    0.177024   0.000000
    20  H    0.176879   0.000000
    21  H    0.115271   0.000000
    22  H    0.192144  -0.000000
    23  H    0.176174  -0.000000
    24  H    0.182433   0.000000
    25  H    0.174916  -0.000000
    26  H    0.176613   0.000000
    27  H    0.187459   0.000000
 Sum of Mulliken charges =   0.00000  -0.00000

 Dipole moment (field-independent basis, Debye):
    X=             -0.3470    Y=             -0.5143    Z=             -0.0287  Tot=              0.6210
 Quadrupole moment (field-independent basis, Debye-Ang):
   XX=            -75.8089   YY=           -106.2382   ZZ=           -100.8198
   XY=             -6.4711   XZ=             -1.1759   YZ=             -0.1507

  Exact polarizability: 256.257  -7.492 202.249  -5.503   8.380  89.151
 Approx polarizability: 374.094   0.294 382.726  -6.800  17.118 145.129

                      1                      2                      3
                      A                      A                      A
 Frequencies --     31.9212                65.4335               112.1585
 Red. masses --      6.9096                 4.2099                 4.7029
 Frc consts  --      0.0041                 0.0106                 0.0349
 IR Inten    --      6.0994                 0.0717                 0.0319

                      4                      5                      6
                      A                      A                      A
 Frequencies --    156.5852               198.7271               214.5863
 Red. masses --      6.6926                 2.7592                 4.4286
 Frc consts  --      0.0967                 0.0642                 0.1201
 IR Inten    --      0.6561                 1.0842                 0.9632

                      7                      8                      9
                      A                      A                      A
 Frequencies --    232.5961               244.1749               309.9787
 Red. masses --      1.2040                 3.9063                 5.5359
 Frc consts  --      0.0384                 0.1372                 0.3134
 IR Inten    --      0.2510                 0.4149                 0.2559

                     10                     11                     12
                      A                      A                      A
 Frequencies --    344.9245               380.6976               404.5123
 Red. masses --      6.0123                 6.2634                12.3744
 Frc consts  --      0.4214                 0.5348                 1.1930
 IR Inten    --      0.0317                 0.1807                26.0778

                     13                     14                     15
                      A                      A                      A
 Frequencies --    424.6328               431.3933               439.5516
 Red. masses --      3.3065                 5.0858                 4.4398
 Frc consts  --      0.3513                 0.5576                 0.5054
 IR Inten    --      0.0088                 0.0075                 0.2518

                     16                     17                     18
                      A                      A                      A
 Frequencies --    480.5641               494.3834               515.9686
 Red. masses --      9.7747                 3.8073                 3.7113
 Frc consts  --      1.3300                 0.5483                 0.5821
 IR Inten    --      0.2658                 0.7326                 4.3479

                     19                     20                     21
                      A                      A                      A
 Frequencies --    552.0291               624.3518               667.0882
 Red. masses --      5.3248                 6.4762                 6.5438
 Frc consts  --      0.9560                 1.4874                 1.7157
 IR Inten    --      1.7546                 2.6847                 6.9464

                     22                     23                     24
                      A                      A                      A
 Frequencies --    668.1369               702.5346               728.1475
 Red. masses --      4.4120                 7.1696                 2.5101
 Frc consts  --      1.1604                 2.0849                 0.7841
 IR Inten    --      1.4552                 0.2152                61.3154

                     25                     26                     27
                      A                      A                      A
 Frequencies --    740.6498               791.3043               792.1913
 Red. masses --      2.9811                 6.1872                 1.4207
 Frc consts  --      0.9635                 2.2826                 0.5253
 IR Inten    --     27.4826                 3.1158                 0.5071

                     28                     29                     30
                      A                      A                      A
 Frequencies --    814.0394               832.2128               866.3805
 Red. masses --      3.9253                 2.0169                 6.1340
 Frc consts  --      1.5325                 0.8230                 2.7128
 IR Inten    --      3.2971                27.1271                27.3413

                     31                     32                     33
                      A                      A                      A
 Frequencies --    916.3253               929.1624               948.1107
 Red. masses --      1.3907                 6.2027                 1.3489
 Frc consts  --      0.6880                 3.1551                 0.7144
 IR Inten    --      0.0001                10.2148                 0.6579

                     34                     35                     36
                      A                      A                      A
 Frequencies --    986.1574              1003.3064              1015.5560
 Red. masses --      2.8274                 1.3773                 1.3465
 Frc consts  --      1.6201                 0.8169                 0.8182
 IR Inten    --     46.8396                 1.7107                 0.6103

                     37                     38                     39
                      A                      A                      A
 Frequencies --   1018.5765              1042.6573              1057.8690
 Red. masses --      1.3266                 2.1068                 1.5659
 Frc consts  --      0.8109                 1.3494                 1.0325
 IR Inten    --      0.0022                16.8785                 2.5169

                     40                     41                     42
                      A                      A                      A
 Frequencies --   1059.0040              1111.5341              1114.2818
 Red. masses --      2.0985                 2.1972                 2.0606
 Frc consts  --      1.3866                 1.5994                 1.5074
 IR Inten    --      0.8345                 0.7890                 1.0326

                     43                     44                     45
                      A                      A                      A
 Frequencies --   1176.3687              1184.2298              1194.1918
 Red. masses --      1.6845                 1.3575                 1.2913
 Frc consts  --      1.3735                 1.1216                 1.0850
 IR Inten    --      5.1643                12.6855                 0.4582

                     46                     47                     48
                      A                      A                      A
 Frequencies --   1207.4175              1251.9821              1270.4959
 Red. masses --      2.2332                 2.8162                 1.8927
 Frc consts  --      1.9182                 2.6009                 1.8000
 IR Inten    --      5.7339                16.8973                28.8461

                     49                     50                     51
                      A                      A                      A
 Frequencies --   1290.3379              1323.7252              1345.0146
 Red. masses --      3.6541                 2.8660                 6.9593
 Frc consts  --      3.5846                 2.9589                 7.4178
 IR Inten    --    456.2186                88.4552                99.9112

                     52                     53                     54
                      A                      A                      A
 Frequencies --   1360.7384              1420.2987              1450.6198
 Red. masses --      7.5492                 1.2246                 2.4642
 Frc consts  --      8.2357                 1.4554                 3.0551
 IR Inten    --      1.1580                 8.9336                28.8894

                     55                     56                     57
                      A                      A                      A
 Frequencies --   1475.1781              1478.8527              1486.2512
 Red. masses --      1.0443                 2.2312                 1.8834
 Frc consts  --      1.3390                 2.8750                 2.4512
 IR Inten    --      8.0710                 1.3592                 1.5640

                     58                     59                     60
                      A                      A                      A
 Frequencies --   1495.6990              1508.2103              1604.2596
 Red. masses --      1.5404                 2.5435                 6.1389
 Frc consts  --      2.0303                 3.4088                 9.3087
 IR Inten    --      3.1212                 3.3212                21.6332

                     61                     62                     63
                      A                      A                      A
 Frequencies --   1616.1360              1624.2413              1629.8844
 Red. masses --      6.3906                 6.3828                 5.7309
 Frc consts  --      9.8344                 9.9212                 8.9698
 IR Inten    --     30.0782                50.7252                35.7622

                     64                     65                     66
                      A                      A                      A
 Frequencies --   1711.3243              1723.1447              3041.1938
 Red. masses --     11.9935                12.0117                 1.0357
 Frc consts  --     20.6948                21.0136                 5.6440
 IR Inten    --     35.9753               298.0225                20.5141

                     67                     68                     69
                      A                      A                      A
 Frequencies --   3102.3983              3109.6178              3164.0810
 Red. masses --      1.0990                 1.1031                 1.0875
 Frc consts  --      6.2320                 6.2848                 6.4146
 IR Inten    --      6.6118                25.9162                 7.6966

                     70                     71                     72
                      A                      A                      A
 Frequencies --   3169.5950              3181.3667              3184.2214
 Red. masses --      1.0870                 1.0932                 1.0920
 Frc consts  --      6.4343                 6.5187                 6.5238
 IR Inten    --      3.4785                17.4593                11.0671

                     73                     74                     75
                      A                      A                      A
 Frequencies --   3201.1094              3204.0467              3205.3299
 Red. masses --      1.0928                 1.0942                 1.0934
 Frc consts  --      6.5974                 6.6182                 6.6188
 IR Inten    --      1.7527                11.8543                 3.3008

 - Thermochemistry -
 -------------------
 Temperature   298.150 Kelvin.  Pressure   1.00000 Atm.
 Atom     1 has atomic number  6 and mass  12.00000

 Molecular mass:   222.06808 amu.
 Principal axes and moments of inertia in atomic units:
                           1         2         3
     Eigenvalues --  2013.256284492.431246494.77654
           X            0.99627   0.08115   0.02946
           Y           -0.07888   0.99432  -0.07149
           Z           -0.03510   0.06890   0.99701
 This molecule is an asymmetric top.
 Rotational symmetry number  1.
 Warning -- assumption of classical behavior for rotation
           may cause significant error
 Rotational temperatures (Kelvin)      0.04302     0.01928     0.01334
 Rotational constants (GHZ):           0.89643     0.40173     0.27788
 Zero-point vibrational energy     543439.3 (Joules/Mol)
                                  129.88511 (Kcal/Mol)
 Warning -- explicit consideration of  19 degrees of freedom as
           vibrations may cause significant error
 Vibrational temperatures:     45.93    94.14   161.37   225.29   285.92
          (Kelvin)            308.74   334.65   351.31   445.99   496.27
                              547.74   582.00   610.95   620.68   632.42
                              691.42   711.31   742.36   794.25   898.30
                              959.79   961.30  1010.79  1047.64  1065.63
                             1138.51  1139.79  1171.22  1197.37  1246.53
                             1318.39  1336.86  1364.12  1418.86  1443.53
                             1461.16  1465.50  1500.15  1522.04  1523.67
                             1599.25  1603.20  1692.53  1703.84  1718.18
                             1737.20  1801.32  1827.96  1856.51  1904.55
                             1935.18  1957.80  2043.49  2087.12  2122.45
                             2127.74  2138.38  2151.98  2169.98  2308.17
                             2325.26  2336.92  2345.04  2462.21  2479.22
                             4375.60  4463.66  4474.05  4552.41  4560.34
                             4577.28  4581.38  4605.68  4609.91  4611.75

 Zero-point correction=                           0.206985 (Hartree/Particle)
 Thermal correction to Energy=                    0.219754
 Thermal correction to Enthalpy=                  0.220698
 Thermal correction to Gibbs Free Energy=         0.167379
 Sum of electronic and zero-point Energies=           -728.070450
 Sum of electronic and thermal Energies=              -728.057682
 Sum of electronic and thermal Enthalpies=            -728.056738
 Sum of electronic and thermal Free Energies=         -728.110056

                     E (Thermal)             CV                S
                      KCal/Mol        Cal/Mol-Kelvin    Cal/Mol-Kelvin
 Total                  137.897             51.448            112.218
 Electronic               0.000              0.000              0.000
 Translational            0.889              2.981             42.096
 Rotational               0.889              2.981             32.441
 Vibrational            136.120             45.486             37.681
 Vibration     1          0.594              1.983              5.706
 Vibration     2          0.597              1.971              4.286
 Vibration     3          0.607              1.939              3.231
 Vibration     4          0.620              1.895              2.591
 Vibration     5          0.637              1.842              2.145
 Vibration     6          0.645              1.819              2.004
 Vibration     7          0.653              1.791              1.859
 Vibration     8          0.660              1.772              1.772
 Vibration     9          0.699              1.655              1.362
 Vibration    10          0.723              1.586              1.189
 Vibration    11          0.750              1.511              1.036
 Vibration    12          0.770              1.460              0.946
 Vibration    13          0.787              1.417              0.876
 Vibration    14          0.792              1.402              0.854
 Vibration    15          0.800              1.384              0.828
 Vibration    16          0.837              1.293              0.709
 Vibration    17          0.850              1.262              0.672
 Vibration    18          0.871              1.215              0.619
 Vibration    19          0.907              1.135              0.540

                           ! Non-Optimized Parameters !
 Normal termination of Gaussian 16 at Thu Dec 21 06:43:53 2023.
