 Q-Chem 5.4, Q-Chem, Inc., Pleasanton, CA (2021)
 Q-Chem 5.4.0 for Intel X86 EM64T Linux

User input:
--------------------------------------------------------------
$molecule
-2 1
C                 -4.3907040000     -0.3345420000      0.2255640000
C                 -2.9119630000     -0.6183720000      0.2709140000
C                 -2.4339250000     -1.9461350000      0.4179930000
C                 -1.0859490000     -2.2183410000      0.4587290000
C                 -0.1182010000     -1.1881220000      0.3468710000
C                  1.2836640000     -1.5625880000      0.4037310000
O                  1.6679530000     -2.7727380000      0.5792820000
C                  2.2173040000     -0.4697280000      0.2416270000
C                  3.6104900000     -0.7275130000      0.2795120000
C                  4.5488290000      0.2722720000      0.1239280000
C                  4.1156600000      1.6132130000     -0.0825750000
C                  2.7664290000      1.8963560000     -0.1274350000
C                  1.7762660000      0.8906320000      0.0294230000
C                  0.3823580000      1.2575190000     -0.0255980000
O                  0.0342530000      2.4939330000     -0.2454520000
C                 -0.5637610000      0.1795030000      0.1658650000
C                 -1.9893090000      0.4241390000      0.1484230000
N                 -2.4480130000      1.7419150000      0.0471570000
H                 -4.7145490000      0.1369770000     -0.7236960000
H                 -4.7104720000      0.3477620000      1.0234970000
H                 -4.9718880000     -1.2581920000      0.3180130000
H                 -3.1586330000     -2.7530140000      0.5200700000
H                 -0.7108570000     -3.2276530000      0.5861250000
H                  3.9046530000     -1.7607620000      0.4370560000
H                  5.6119610000      0.0401080000      0.1577430000
H                  4.8472730000      2.4103160000     -0.2045600000
H                  2.4069490000      2.9082160000     -0.2844610000
H                 -3.3057260000      1.8561780000     -0.4776680000
H                 -1.6600910000      2.3686610000     -0.1986500000
$end
$rem
MAX_SCF_CYCLES=200
BASIS  =  6-311++G(d,p)
GUI  =  2
JOB_TYPE  =  SP
METHOD  =  B3LYP
SOLVENT_METHOD = COSMO
$end
$solvent
dielectric 37.219
opticaldielectric 1.43
$end

--------------------------------------------------------------

             Standard Nuclear Orientation (Angstroms)
    I     Atom           X                Y                Z
 ----------------------------------------------------------------
    1      C       4.6617634964    -0.2592914115    -0.0012122138
    2      C       3.2285548268     0.2045500891     0.0062045373
    3      C       2.9151214086     1.5876387726    -0.0377537596
    4      C       1.6102454451     2.0236154428    -0.0335243856
    5      C       0.5246208234     1.1124219802     0.0057852349
    6      C      -0.8212483322     1.6576630826     0.0114136634
    7      O      -1.0550801235     2.9179333350     0.0123058017
    8      C      -1.8814599248     0.6736643720     0.0099129313
    9      C      -3.2329892655     1.1005264695     0.0134907691
   10      C      -4.2866460030     0.2094633521     0.0050939508
   11      C      -4.0204827909    -1.1896054148    -0.0077655591
   12      C      -2.7157448778    -1.6370651007    -0.0145092249
   13      C      -1.6099107765    -0.7462433568    -0.0058187697
   14      C      -0.2710012842    -1.2828162444    -0.0106974318
   15      O      -0.0770828563    -2.5708210522    -0.0515839849
   16      C       0.8004015891    -0.3107323807     0.0219611616
   17      C       2.1860218786    -0.7256764495     0.0366556881
   18      N       2.4823465936    -2.0901037680     0.1245619136
   19      H       4.9085292524    -0.8966327179    -0.8736817088
   20      H       4.9134409950    -0.8547483008     0.8856795070
   21      H       5.3505741390     0.5911179070    -0.0435781391
   22      H       3.7326771919     2.3073670906    -0.0541491587
   23      H       1.3606690337     3.0786147663    -0.0514828109
   24      H      -3.3987881960     2.1735585865     0.0217532696
   25      H      -5.3136696172     0.5707243238     0.0075904831
   26      H      -4.8441162873    -1.9017268525    -0.0124598361
   27      H      -2.4825478105    -2.6968965042    -0.0254736597
   28      H       3.3099282487    -2.3805599315    -0.3803269112
   29      H       1.6207034556    -2.6456694678    -0.0269985159
 ----------------------------------------------------------------

   14    -783.6348531288      7.43e-06  Convergence criterion met
 Total energy in the final basis set =     -783.6348531288
    6    -783.9071889143      3.15e-06  Convergence criterion met
 Total energy in the final basis set =     -783.9071889143

                    Orbital Energies (a.u.)
 --------------------------------------------------------------

 Alpha MOs
 -- Occupied --
-19.0309 -19.0259 -14.2800 -10.1860 -10.1808 -10.1765 -10.1518 -10.1495
-10.1490 -10.1469 -10.1468 -10.1451 -10.1445 -10.1440 -10.1378 -10.1367
-10.1366 -10.1336  -0.9505  -0.9453  -0.8855  -0.8269  -0.8086  -0.7612
 -0.7282  -0.7242  -0.7015  -0.6691  -0.6309  -0.6022  -0.5857  -0.5526
 -0.5290  -0.5171  -0.4896  -0.4723  -0.4473  -0.4404  -0.4280  -0.4153
 -0.4087  -0.4037  -0.3985  -0.3896  -0.3822  -0.3726  -0.3664  -0.3551
 -0.3484  -0.3431  -0.3337  -0.3246  -0.3166  -0.3079  -0.3032  -0.2829
 -0.2322  -0.2307  -0.2148  -0.2122  -0.2029  -0.1881  -0.1084

          Ground-State Mulliken Net Atomic Charges

     Atom                 Charge (a.u.)
  ----------------------------------------
      1 C                    -0.482846
      2 C                     0.542511
      3 C                    -0.886604
      4 C                    -0.255884
      5 C                     0.425854
      6 C                    -0.533331
      7 O                    -0.693422
      8 C                     0.049818
      9 C                     0.009567
     10 C                    -0.507488
     11 C                    -0.573893
     12 C                     0.048376
     13 C                     0.121373
     14 C                    -0.423191
     15 O                    -0.669982
     16 C                     0.084322
     17 C                     0.176008
     18 N                    -0.477611
     19 H                     0.164045
     20 H                     0.167575
     21 H                     0.167668
     22 H                     0.140883
     23 H                     0.150925
     24 H                     0.152865
     25 H                     0.177914
     26 H                     0.177569
     27 H                     0.158448
     28 H                     0.256203
     29 H                     0.332329
  ----------------------------------------
  Sum of atomic charges =    -2.000000

                    Cartesian Multipole Moments
 -----------------------------------------------------------------
    Charge (ESU x 10^10)
                -9.6064
    Dipole Moment (Debye)
         X       5.4869      Y      -3.2345      Z      -1.1691
       Tot       6.4757
    Quadrupole Moments (Debye-Ang)
        XX    -131.7310     XY       6.1904     YY    -166.0206
        XZ      -3.9185     YZ       2.6144     ZZ    -119.4742

 Total job time:  98.58s(wall), 746.30s(cpu)
        *  Thank you very much for using Q-Chem.  Have a nice day.  *
