 Gaussian 16, Revision A.03,
 Gaussian 16:  ES64L-G16RevA.03 25-Dec-2016

 ----------------------------------------------------------------
 #P UB3LYP/6-311++G(d,p) SCRF=(PCM,Solvent=n,n-DiMethylFormamide)
 ----------------------------------------------------------------

 ------------------
 Quinone PCM in DMF
 ------------------
 Symbolic Z-matrix:
 Charge =  0 Multiplicity = 1

                         Standard orientation:
 ---------------------------------------------------------------------
 Center     Atomic      Atomic             Coordinates (Angstroms)
 Number     Number       Type             X           Y           Z
 ---------------------------------------------------------------------
      1          6           0        3.173543   -0.669399    1.270276
      2          6           0        2.738721    0.104338   -0.000132
      3          6           0        3.173610   -0.671133   -1.269406
      4          6           0        3.463166    1.463575   -0.001047
      5          6           0        1.217133    0.288970   -0.000136
      6          6           0        0.618265    1.492693   -0.000048
      7          6           0       -0.843116    1.706388    0.000087
      8          8           0       -1.310960    2.827592    0.000203
      9          6           0       -1.716421    0.491606   -0.000011
     10          6           0       -1.159770   -0.735022   -0.000042
     11         17           0       -2.096865   -2.184202   -0.000172
     12          6           0        0.335783   -0.932440    0.000169
     13          8           0        0.785083   -2.058784    0.000605
     14         17           0       -3.417502    0.767845   -0.000073
     15          1           0        2.751581   -1.672532    1.298796
     16          1           0        4.263644   -0.755358    1.283303
     17          1           0        2.870657   -0.134741    2.175344
     18          1           0        2.751491   -1.674225   -1.296715
     19          1           0        4.263698   -0.757281   -1.282133
     20          1           0        2.870963   -0.137577   -2.175216
     21          1           0        4.541853    1.291221   -0.001228
     22          1           0        3.226264    2.057161    0.886259
     23          1           0        3.225838    2.056207   -0.888879
     24          1           0        1.179789    2.417272   -0.000096
 ---------------------------------------------------------------------

 SCF Done:  E(UB3LYP) =  -1458.10477340     A.U. after   16 cycles

 The electronic state is 1-A.
 Alpha  occ. eigenvalues -- -101.58591-101.58514 -19.15649 -19.15433 -10.30900
 Alpha  occ. eigenvalues --  -10.30462 -10.28299 -10.28137 -10.23064 -10.21422
 Alpha  occ. eigenvalues --  -10.21013 -10.16576 -10.16378 -10.16377  -9.50041
 Alpha  occ. eigenvalues --   -9.49965  -7.26524  -7.26450  -7.25551  -7.25476
 Alpha  occ. eigenvalues --   -7.25432  -7.25354  -1.09387  -1.08866  -0.93814
 Alpha  occ. eigenvalues --   -0.88496  -0.87088  -0.82001  -0.76640  -0.71690
 Alpha  occ. eigenvalues --   -0.69468  -0.69389  -0.64218  -0.62487  -0.56488
 Alpha  occ. eigenvalues --   -0.55170  -0.51722  -0.49498  -0.48252  -0.47897
 Alpha  occ. eigenvalues --   -0.46604  -0.46363  -0.44895  -0.44403  -0.44214
 Alpha  occ. eigenvalues --   -0.42136  -0.40626  -0.38930  -0.38865  -0.37314
 Alpha  occ. eigenvalues --   -0.36887  -0.36332  -0.35396  -0.34845  -0.34453
 Alpha  occ. eigenvalues --   -0.33317  -0.31030  -0.30430  -0.29359  -0.28340
 Alpha virt. eigenvalues --   -0.14666  -0.04159  -0.02516  -0.01688  -0.00645
 Alpha virt. eigenvalues --    0.01189   0.01371   0.01836   0.02014   0.03152
 Alpha virt. eigenvalues --    0.03691   0.03853   0.03946   0.04982   0.05298

  Beta  occ. eigenvalues -- -101.58591-101.58514 -19.15649 -19.15433 -10.30900
  Beta  occ. eigenvalues --  -10.30462 -10.28299 -10.28137 -10.23064 -10.21422
  Beta  occ. eigenvalues --  -10.21013 -10.16576 -10.16378 -10.16377  -9.50041
  Beta  occ. eigenvalues --   -9.49965  -7.26524  -7.26450  -7.25551  -7.25476
  Beta  occ. eigenvalues --   -7.25432  -7.25354  -1.09387  -1.08866  -0.93814
  Beta  occ. eigenvalues --   -0.88496  -0.87088  -0.82001  -0.76640  -0.71690
  Beta  occ. eigenvalues --   -0.69468  -0.69389  -0.64218  -0.62487  -0.56488
  Beta  occ. eigenvalues --   -0.55170  -0.51722  -0.49498  -0.48252  -0.47897
  Beta  occ. eigenvalues --   -0.46604  -0.46363  -0.44895  -0.44403  -0.44214
  Beta  occ. eigenvalues --   -0.42136  -0.40626  -0.38930  -0.38865  -0.37314
  Beta  occ. eigenvalues --   -0.36887  -0.36332  -0.35396  -0.34845  -0.34453
  Beta  occ. eigenvalues --   -0.33317  -0.31030  -0.30430  -0.29359  -0.28340
  Beta virt. eigenvalues --   -0.14666  -0.04159  -0.02516  -0.01688  -0.00645
  Beta virt. eigenvalues --    0.01189   0.01371   0.01836   0.02014   0.03152
  Beta virt. eigenvalues --    0.03691   0.03853   0.03946   0.04982   0.05298

 Mulliken charges and spin densities:
               1          2
     1  C   -0.692023   0.000000
     2  C    0.405177  -0.000000
     3  C   -0.691828   0.000000
     4  C   -0.477939   0.000000
     5  C    0.945909   0.000000
     6  C   -0.292324  -0.000000
     7  C   -0.932031  -0.000000
     8  O   -0.225758  -0.000000
     9  C    0.901930  -0.000000
    10  C   -0.208421   0.000000
    11  Cl   0.469564   0.000000
    12  C   -1.188097  -0.000000
    13  O   -0.171346   0.000000
    14  Cl   0.430537   0.000000
    15  H    0.177850  -0.000000
    16  H    0.171023  -0.000000
    17  H    0.150910  -0.000000
    18  H    0.177844  -0.000000
    19  H    0.171005  -0.000000
    20  H    0.150893  -0.000000
    21  H    0.187206  -0.000000
    22  H    0.144094   0.000000
    23  H    0.144127   0.000000
    24  H    0.251697  -0.000000
 Sum of Mulliken charges =  -0.00000  -0.00000

 Dipole moment (field-independent basis, Debye):
    X=              3.5304    Y=              0.2630    Z=             -0.0009  Tot=              3.5402
 Quadrupole moment (field-independent basis, Debye-Ang):
   XX=            -92.4576   YY=           -111.9351   ZZ=            -95.3197
   XY=              8.9469   XZ=             -0.0001   YZ=              0.0013

 Normal termination of Gaussian 16 at Sun Jan 21 06:47:35 2024.
