 Q-Chem 5.4, Q-Chem, Inc., Pleasanton, CA (2021)
 Q-Chem 5.4.0 for Intel X86 EM64T Linux

User input:
--------------------------------------------------------------
$molecule
-2 1
C                 -6.7950370000      5.9456690000      0.8308990000
C                 -7.9120020000      5.2119540000      0.4802550000
C                 -7.7966360000      4.1447430000     -0.4415090000
C                 -6.5585670000      3.8417120000     -0.9871500000
C                 -5.4027060000      4.5690000000     -0.6512590000
C                 -5.5214710000      5.6541010000      0.2847630000
C                 -4.3656910000      6.4242750000      0.6546030000
C                 -3.1269950000      6.0397020000      0.0390000000
C                 -2.9734960000      5.0049200000     -0.8718970000
C                 -4.1124320000      4.2077590000     -1.2587670000
O                 -4.3499220000      7.4165450000      1.4784510000
O                 -4.0122700000      3.2475270000     -2.0836560000
C                 -1.6305410000      4.6859180000     -1.4770680000
C                 -0.8680700000      3.5659100000     -0.7409040000
C                  0.4789220000      3.2291500000     -1.3917360000
C                  1.2647900000      2.1235530000     -0.6752810000
C                  2.6110350000      1.7977810000     -1.3346300000
C                  3.4096720000      0.6968300000     -0.6251860000
C                  4.7523550000      0.3832340000     -1.2968480000
C                  5.5628640000     -0.7136330000     -0.5941520000
C                  6.9019080000     -1.0106060000     -1.2850390000
C                  7.7111840000     -2.0991870000     -0.5808870000
S                  9.3045570000     -2.3887770000     -1.4864950000
C                 10.0719760000     -3.6756230000     -0.5010540000
C                  9.9199550000     -5.0254990000     -0.8479060000
C                 10.8857370000     -3.3528460000      0.5941760000
C                 11.4791330000     -4.3600020000      1.3526090000
C                 11.2948420000     -5.7126630000      1.0433350000
C                 10.5218650000     -6.0229020000     -0.0889930000
C                 11.9557460000     -6.8042630000      1.8463640000
H                 -6.8596240000      6.7681220000      1.5356480000
H                 -8.8800490000      5.4537180000      0.9128170000
H                 -8.6739390000      3.5659550000     -0.7184670000
H                 -6.4382390000      3.0283640000     -1.6952250000
O                 -2.0669120000      6.8157050000      0.4361920000
H                 -1.0090590000      5.5883260000     -1.4904250000
H                 -1.7933160000      4.3622110000     -2.5113320000
H                 -1.5028640000      2.6736260000     -0.7219440000
H                 -0.7063520000      3.8686850000      0.3009160000
H                  1.0971400000      4.1371070000     -1.4343330000
H                  0.3072270000      2.9292060000     -2.4344860000
H                  0.6514440000      1.2138740000     -0.6348990000
H                  1.4358290000      2.4202240000      0.3681690000
H                  3.2199600000      2.7108740000     -1.3788950000
H                  2.4376080000      1.5003630000     -2.3775310000
H                  2.8042720000     -0.2180390000     -0.5811030000
H                  3.5867240000      0.9929560000      0.4172090000
H                  5.3543600000      1.3002920000     -1.3436700000
H                  4.5730800000      0.0860920000     -2.3385090000
H                  4.9655990000     -1.6331310000     -0.5478460000
H                  5.7480840000     -0.4176580000      0.4462960000
H                  7.4972820000     -0.0910900000     -1.3322740000
H                  6.7151010000     -1.3126780000     -2.3224020000
H                  7.1596250000     -3.0417690000     -0.5532510000
H                  7.9499070000     -1.8078770000      0.4445720000
H                  9.3239180000     -5.2877330000     -1.7154090000
H                 11.0478780000     -2.3119450000      0.8518280000
H                 12.1008600000     -4.0891870000      2.2013860000
H                 10.3920010000     -7.0628070000     -0.3764500000
H                 12.5793960000     -6.3975500000      2.6475060000
H                 12.6006040000     -7.4303310000      1.2107130000
H                 11.2219000000     -7.4727610000      2.3040660000
H                 -2.5201580000      7.4348030000      1.0566500000
$end
$rem
MAX_SCF_CYCLES=200
BASIS  =  6-311++G(d,p)
GUI  =  2
JOB_TYPE  =  SP
METHOD  =  B3LYP
SCF_ALGORITHM = DIIS_GDM
THRESH = 14
SOLVENT_METHOD = PCM
$end
$pcm
theory = CPCM
$end
$solvent
dielectric 37.219
opticaldielectric 1.43
$end

--------------------------------------------------------------

             Standard Nuclear Orientation (Angstroms)
    I     Atom           X                Y                Z
 ----------------------------------------------------------------
    1      C      -6.7950370000     5.9456690000     0.8308990000
    2      C      -7.9120020000     5.2119540000     0.4802550000
    3      C      -7.7966360000     4.1447430000    -0.4415090000
    4      C      -6.5585670000     3.8417120000    -0.9871500000
    5      C      -5.4027060000     4.5690000000    -0.6512590000
    6      C      -5.5214710000     5.6541010000     0.2847630000
    7      C      -4.3656910000     6.4242750000     0.6546030000
    8      C      -3.1269950000     6.0397020000     0.0390000000
    9      C      -2.9734960000     5.0049200000    -0.8718970000
   10      C      -4.1124320000     4.2077590000    -1.2587670000
   11      O      -4.3499220000     7.4165450000     1.4784510000
   12      O      -4.0122700000     3.2475270000    -2.0836560000
   13      C      -1.6305410000     4.6859180000    -1.4770680000
   14      C      -0.8680700000     3.5659100000    -0.7409040000
   15      C       0.4789220000     3.2291500000    -1.3917360000
   16      C       1.2647900000     2.1235530000    -0.6752810000
   17      C       2.6110350000     1.7977810000    -1.3346300000
   18      C       3.4096720000     0.6968300000    -0.6251860000
   19      C       4.7523550000     0.3832340000    -1.2968480000
   20      C       5.5628640000    -0.7136330000    -0.5941520000
   21      C       6.9019080000    -1.0106060000    -1.2850390000
   22      C       7.7111840000    -2.0991870000    -0.5808870000
   23      S       9.3045570000    -2.3887770000    -1.4864950000
   24      C      10.0719760000    -3.6756230000    -0.5010540000
   25      C       9.9199550000    -5.0254990000    -0.8479060000
   26      C      10.8857370000    -3.3528460000     0.5941760000
   27      C      11.4791330000    -4.3600020000     1.3526090000
   28      C      11.2948420000    -5.7126630000     1.0433350000
   29      C      10.5218650000    -6.0229020000    -0.0889930000
   30      C      11.9557460000    -6.8042630000     1.8463640000
   31      H      -6.8596240000     6.7681220000     1.5356480000
   32      H      -8.8800490000     5.4537180000     0.9128170000
   33      H      -8.6739390000     3.5659550000    -0.7184670000
   34      H      -6.4382390000     3.0283640000    -1.6952250000
   35      O      -2.0669120000     6.8157050000     0.4361920000
   36      H      -1.0090590000     5.5883260000    -1.4904250000
   37      H      -1.7933160000     4.3622110000    -2.5113320000
   38      H      -1.5028640000     2.6736260000    -0.7219440000
   39      H      -0.7063520000     3.8686850000     0.3009160000
   40      H       1.0971400000     4.1371070000    -1.4343330000
   41      H       0.3072270000     2.9292060000    -2.4344860000
   42      H       0.6514440000     1.2138740000    -0.6348990000
   43      H       1.4358290000     2.4202240000     0.3681690000
   44      H       3.2199600000     2.7108740000    -1.3788950000
   45      H       2.4376080000     1.5003630000    -2.3775310000
   46      H       2.8042720000    -0.2180390000    -0.5811030000
   47      H       3.5867240000     0.9929560000     0.4172090000
   48      H       5.3543600000     1.3002920000    -1.3436700000
   49      H       4.5730800000     0.0860920000    -2.3385090000
   50      H       4.9655990000    -1.6331310000    -0.5478460000
   51      H       5.7480840000    -0.4176580000     0.4462960000
   52      H       7.4972820000    -0.0910900000    -1.3322740000
   53      H       6.7151010000    -1.3126780000    -2.3224020000
   54      H       7.1596250000    -3.0417690000    -0.5532510000
   55      H       7.9499070000    -1.8078770000     0.4445720000
   56      H       9.3239180000    -5.2877330000    -1.7154090000
   57      H      11.0478780000    -2.3119450000     0.8518280000
   58      H      12.1008600000    -4.0891870000     2.2013860000
   59      H      10.3920010000    -7.0628070000    -0.3764500000
   60      H      12.5793960000    -6.3975500000     2.6475060000
   61      H      12.6006040000    -7.4303310000     1.2107130000
   62      H      11.2219000000    -7.4727610000     2.3040660000
   63      H      -2.5201580000     7.4348030000     1.0566500000
 ----------------------------------------------------------------

   16   -1672.6684386699      3.13e-06  Convergence criterion met
 Total energy in the final basis set =    -1672.6684386699

                    Orbital Energies (a.u.)
 --------------------------------------------------------------

 Alpha MOs
 -- Occupied --
-88.8416 -19.1123 -19.0264 -19.0193 -10.2047 -10.1933 -10.1900 -10.1812
-10.1810 -10.1761 -10.1760 -10.1744 -10.1721 -10.1666 -10.1645 -10.1607
-10.1597 -10.1557 -10.1537 -10.1524 -10.1509 -10.1484 -10.1463 -10.1444
-10.1434 -10.1429 -10.1417 -10.1398 -10.1337 -10.1299 -10.1218  -7.9277
 -5.8918  -5.8882  -5.8813  -1.0275  -0.9451  -0.9365  -0.8692  -0.8235
 -0.8153  -0.8012  -0.7894  -0.7760  -0.7606  -0.7525  -0.7417  -0.7217
 -0.7202  -0.7017  -0.6803  -0.6576  -0.6348  -0.6194  -0.6132  -0.5975
 -0.5835  -0.5766  -0.5751  -0.5680  -0.5636  -0.5518  -0.5342  -0.5022
 -0.4957  -0.4821  -0.4729  -0.4705  -0.4662  -0.4549  -0.4510  -0.4413
 -0.4290  -0.4261  -0.4245  -0.4225  -0.4222  -0.4189  -0.4126  -0.4035
 -0.3996  -0.3988  -0.3875  -0.3858  -0.3849  -0.3796  -0.3735  -0.3702
 -0.3638  -0.3579  -0.3565  -0.3525  -0.3502  -0.3447  -0.3438  -0.3375
 -0.3358  -0.3298  -0.3236  -0.3206  -0.3181  -0.3170  -0.3149  -0.3124
 -0.3100  -0.3070  -0.3024  -0.2986  -0.2899  -0.2630  -0.2476  -0.2333
 -0.2290  -0.2249  -0.2153  -0.1975  -0.1916  -0.1048

          Ground-State Mulliken Net Atomic Charges

     Atom                 Charge (a.u.)
  ----------------------------------------
      1 C                    -0.054569
      2 C                    -0.420430
      3 C                    -0.494712
      4 C                     0.021576
      5 C                     0.046840
      6 C                     0.278026
      7 C                    -0.824904
      8 C                    -0.609590
      9 C                     1.745364
     10 C                    -0.695866
     11 O                    -0.748710
     12 O                    -0.667374
     13 C                    -0.297604
     14 C                    -0.620749
     15 C                    -0.129572
     16 C                    -0.226297
     17 C                    -0.277141
     18 C                    -0.388657
     19 C                    -0.207574
     20 C                    -0.362940
     21 C                    -0.023099
     22 C                    -0.919577
     23 S                    -0.196519
     24 C                     1.312456
     25 C                    -0.549393
     26 C                    -0.413093
     27 C                    -0.777652
     28 C                     0.445542
     29 C                    -0.131517
     30 C                    -0.722993
     31 H                     0.144205
     32 H                     0.168945
     33 H                     0.163520
     34 H                     0.141249
     35 O                    -0.350465
     36 H                     0.198741
     37 H                     0.167966
     38 H                     0.174074
     39 H                     0.157022
     40 H                     0.109213
     41 H                     0.113914
     42 H                     0.128950
     43 H                     0.128587
     44 H                     0.135443
     45 H                     0.136536
     46 H                     0.136934
     47 H                     0.137004
     48 H                     0.133761
     49 H                     0.134346
     50 H                     0.139059
     51 H                     0.140114
     52 H                     0.136519
     53 H                     0.134993
     54 H                     0.225020
     55 H                     0.218471
     56 H                     0.217481
     57 H                     0.223567
     58 H                     0.191810
     59 H                     0.221513
     60 H                     0.172917
     61 H                     0.168221
     62 H                     0.173549
     63 H                     0.287548
  ----------------------------------------
  Sum of atomic charges =    -2.000000

                    Cartesian Multipole Moments
 -----------------------------------------------------------------
    Charge (ESU x 10^10)
                -9.6064
    Dipole Moment (Debye)
         X      40.5209      Y     -52.1551      Z       5.2967
       Tot      66.2582
    Quadrupole Moments (Debye-Ang)
        XX    -416.1022     XY     203.3427     YY    -487.1667
        XZ      19.4929     YZ     -15.0054     ZZ    -231.5664

 Total job time:  683.68s(wall), 4762.27s(cpu)
        *  Thank you very much for using Q-Chem.  Have a nice day.  *
