 Q-Chem 5.4, Q-Chem, Inc., Pleasanton, CA (2021)
 Q-Chem 5.4.0 for Intel X86 EM64T Linux

User input:
--------------------------------------------------------------
$molecule
0 1
C                 -1.6143390000     -5.3592600000      1.4568160000
C                 -0.3914840000     -5.5867090000      0.7289190000
C                  0.3337550000     -4.5465320000      0.2110390000
C                 -0.2172260000     -3.1126920000      0.3250160000
C                 -2.1297120000     -3.9146170000      1.6366600000
C                 -1.4504300000     -2.8859020000      1.0397640000
O                 -2.2843790000     -6.2554050000      1.9527450000
O                  0.4305250000     -2.2231230000     -0.2099340000
N                 -3.2685640000     -3.9255220000      2.3595850000
N                  1.5007050000     -4.5443600000     -0.4590690000
C                 -3.9629110000     -2.8872580000      3.1416560000
C                 -3.0708410000     -2.1764330000      4.1625800000
C                 -4.8259260000     -1.9087790000      2.3076760000
C                  2.5414200000     -5.5694230000     -0.5903230000
C                  3.9161320000     -4.8900400000     -0.5591720000
C                  2.4294660000     -6.4479270000     -1.8577530000
N                 -5.2552360000     -2.3803450000      1.1097730000
N                  1.5034550000     -6.0797350000     -2.7760470000
C                  1.2654840000     -6.8458860000     -3.9906380000
C                 -6.0644370000     -1.5707430000      0.2109710000
O                 -5.1719590000     -0.8382320000      2.7776600000
O                  3.1883380000     -7.3942480000     -1.9925180000
Cl                 0.0571370000     -7.2706960000      0.5437170000
Cl                -1.9985510000     -1.2251660000      1.0456550000
H                 -3.4879710000     -4.8853810000      2.6227290000
H                  1.7626600000     -3.5943390000     -0.7207690000
H                 -4.7087230000     -3.4573710000      3.7064820000
H                 -3.6809770000     -1.4781200000      4.7351180000
H                 -2.2731210000     -1.6115920000      3.6831220000
H                 -2.6313400000     -2.9092110000      4.8430580000
H                  2.4687090000     -6.2588110000      0.2478280000
H                  4.0700040000     -4.3811970000      0.3946740000
H                  4.0120700000     -4.1578330000     -1.3670520000
H                  4.6908750000     -5.6450200000     -0.6891270000
H                 -4.8348070000     -3.2261590000      0.7585700000
H                  0.8729310000     -5.3308510000     -2.5369720000
H                  2.1846060000     -7.3640480000     -4.2598340000
H                  0.9794910000     -6.1712740000     -4.7991700000
H                  0.4763780000     -7.5909570000     -3.8485780000
H                 -6.6399550000     -2.2257910000     -0.4443830000
H                 -5.4467830000     -0.9038080000     -0.3994090000
H                 -6.7473790000     -0.9614150000      0.8013960000
$end
$rem
MAX_SCF_CYCLES=200
BASIS  =  6-311++G(d,p)
GUI  =  2
JOB_TYPE  =  SP
METHOD  =  B3LYP
SOLVENT_METHOD = COSMO
$end
$solvent
dielectric 37.219
opticaldielectric 1.43
$end

--------------------------------------------------------------

             Standard Nuclear Orientation (Angstroms)
    I     Atom           X                Y                Z
 ----------------------------------------------------------------
    1      C       0.2404409324    -1.5966020518    -0.2666125300
    2      C      -1.1029611458    -1.0784239859    -0.3274712979
    3      C      -1.3440518126     0.2634344624    -0.4594966290
    4      C      -0.1590846279     1.2473735000    -0.4459059791
    5      C       1.4323985912    -0.6166097769    -0.3282458955
    6      C       1.1861063891     0.7301230808    -0.3684227877
    7      O       0.5033788700    -2.7878720776    -0.1680508629
    8      O      -0.4253575670     2.4404130945    -0.4992080822
    9      N       2.5904975451    -1.3064513940    -0.2767802875
   10      N      -2.5049767268     0.9351329662    -0.5685664015
   11      C       3.9698355208    -0.9697347498    -0.6714872541
   12      C       4.0972268293    -0.4487786693    -2.1052665593
   13      C       4.7527141672    -0.1141921610     0.3546153664
   14      C      -3.8583181073     0.4778184160    -0.9008313377
   15      C      -4.5328627168     1.5263490491    -1.7941049854
   16      C      -4.7607280510     0.1834211090     0.3196883468
   17      N       4.3232223399    -0.2002387342     1.6390552924
   18      N      -4.2745358341     0.5298075641     1.5362240607
   19      C      -5.0031713255     0.2663822949     2.7685171659
   20      C       4.9528095759     0.5555330846     2.7116855000
   21      O       5.7534485527     0.4935755417     0.0142570468
   22      O      -5.8645902145    -0.3042502871     0.1373790326
   23      Cl     -2.3678778797    -2.2836205312    -0.1901405223
   24      Cl      2.4370201651     1.9504112562    -0.3004015398
   25      H       2.3837145993    -2.3034389737    -0.2323947541
   26      H      -2.3344308532     1.9380932700    -0.6366248065
   27      H       4.4835248489    -1.9366420808    -0.6326765620
   28      H       5.1521821433    -0.2905954242    -2.3283228131
   29      H       3.5785620118     0.4986133881    -2.2420789273
   30      H       3.6899277330    -1.1837458358    -2.8031961726
   31      H      -3.7921828924    -0.4611015976    -1.4458956865
   32      H      -3.9827176725     1.6425692271    -2.7301890005
   33      H      -4.5818396102     2.4981075621    -1.2928186984
   34      H      -5.5500672072     1.2053665358    -2.0163100019
   35      H       3.4309692507    -0.6367074190     1.8090109511
   36      H      -3.3217387477     0.8536897158     1.5893529583
   37      H      -6.0688659630     0.2519349023     2.5452912538
   38      H      -4.7951701570     1.0554442918     3.4929024368
   39      H      -4.7264845869    -0.7002245551     3.2010859630
   40      H       4.7729607456     0.0507991926     3.6617885536
   41      H       4.5644896143     1.5777209431     2.7682725269
   42      H       6.0251341780     0.6054299347     2.5275053714
 ----------------------------------------------------------------

    9   -1985.0048762834      5.96e-06  Convergence criterion met
 Total energy in the final basis set =    -1985.0048762834
    5   -1985.0417377604      6.76e-06  Convergence criterion met
 Total energy in the final basis set =    -1985.0417377604

                    Orbital Energies (a.u.)
 --------------------------------------------------------------

 Alpha MOs
 -- Occupied --
********-101.5680 -19.1417 -19.1413 -19.1063 -19.1055 -14.3759 -14.3730
-14.3498 -14.3454 -10.2987 -10.2980 -10.2869 -10.2863 -10.2766 -10.2753
-10.2486 -10.2485 -10.2406 -10.2403 -10.2005 -10.1994 -10.1751 -10.1678
 -9.4836  -9.4830  -7.2484  -7.2478  -7.2383  -7.2378  -7.2377  -7.2372
 -1.0845  -1.0815  -1.0604  -1.0594  -0.9850  -0.9805  -0.9334  -0.9307
 -0.8976  -0.8855  -0.8328  -0.8069  -0.7814  -0.7393  -0.7187  -0.7181
 -0.7040  -0.6674  -0.6550  -0.6301  -0.6118  -0.5968  -0.5867  -0.5811
 -0.5588  -0.5518  -0.5374  -0.5137  -0.5010  -0.4914  -0.4796  -0.4754
 -0.4745  -0.4702  -0.4678  -0.4626  -0.4564  -0.4504  -0.4438  -0.4413
 -0.4355  -0.4282  -0.4210  -0.4131  -0.4046  -0.3998  -0.3979  -0.3972
 -0.3908  -0.3833  -0.3795  -0.3708  -0.3701  -0.3632  -0.3518  -0.3406
 -0.3326  -0.3293  -0.3111  -0.2981  -0.2874  -0.2821  -0.2729  -0.2698
 -0.2561  -0.2321

          Ground-State Mulliken Net Atomic Charges

     Atom                 Charge (a.u.)
  ----------------------------------------
      1 C                    -0.389810
      2 C                     0.030099
      3 C                    -0.336893
      4 C                    -0.264637
      5 C                    -0.307449
      6 C                     0.012927
      7 O                    -0.296818
      8 O                    -0.283625
      9 N                    -0.075263
     10 N                     0.068557
     11 C                     0.180315
     12 C                    -0.574731
     13 C                    -0.318391
     14 C                     0.027877
     15 C                    -0.638398
     16 C                    -0.083330
     17 N                    -0.131517
     18 N                    -0.161209
     19 C                    -0.314792
     20 C                    -0.321817
     21 O                    -0.414165
     22 O                    -0.433204
     23 Cl                    0.472738
     24 Cl                    0.486011
     25 H                     0.375611
     26 H                     0.347559
     27 H                     0.251528
     28 H                     0.195388
     29 H                     0.136202
     30 H                     0.188517
     31 H                     0.225262
     32 H                     0.192822
     33 H                     0.183682
     34 H                     0.199884
     35 H                     0.351030
     36 H                     0.359393
     37 H                     0.181426
     38 H                     0.171138
     39 H                     0.182123
     40 H                     0.173371
     41 H                     0.175076
     42 H                     0.177508
  ----------------------------------------
  Sum of atomic charges =    -0.000003

                    Cartesian Multipole Moments
 -----------------------------------------------------------------
    Charge (ESU x 10^10)
                -0.0000
    Dipole Moment (Debye)
         X       0.2760      Y       0.0113      Z       3.1967
       Tot       3.2086
    Quadrupole Moments (Debye-Ang)
        XX    -202.8942     XY     -31.4290     YY    -172.6944
        XZ       3.3374     YZ       3.3618     ZZ    -134.4637

 Total job time:  157.30s(wall), 1023.82s(cpu)
        *  Thank you very much for using Q-Chem.  Have a nice day.  *
