 Gaussian 16, Revision A.03,
 Gaussian 16:  ES64L-G16RevA.03 25-Dec-2016

 ----------------------------------------------------------------------
 #P UB3LYP/6-311++G(d,p) nosym opt freq SCRF=(PCM,Solvent=n,n-DiMethylF
 ormamide)
 ----------------------------------------------------------------------

 -------
 Radical
 -------
 Symbolic Z-matrix:
 Charge = -1 Multiplicity = 2

 SCF Done:  E(UB3LYP) =  -571.869807952     A.U. after   15 cycles
 SCF Done:  E(UB3LYP) =  -571.869917256     A.U. after   13 cycles
 SCF Done:  E(UB3LYP) =  -571.869927324     A.U. after   11 cycles
 Optimization completed.
    -- Stationary point found.
 Normal termination of Gaussian 16 at Sun Feb 11 15:42:06 2024.

 ----------------------------------------------------------------------
 #P Geom=AllCheck Guess=TCheck SCRF=Check GenChk UB3LYP/6-311++G(d,p) F
 req
 ----------------------------------------------------------------------

 Structure from the checkpoint file:  "349-rad.chk"
 -------
 Radical
 -------
 Charge = -1 Multiplicity = 2

                          Input orientation:
 ---------------------------------------------------------------------
 Center     Atomic      Atomic             Coordinates (Angstroms)
 Number     Number       Type             X           Y           Z
 ---------------------------------------------------------------------
      1          6           0       -3.591213    0.201375    0.847440
      2          6           0       -3.620126   -0.175976   -0.506316
      3          6           0       -2.432239   -0.366882   -1.199576
      4          6           0       -1.173894   -0.189629   -0.574932
      5          7           0       -0.029666   -0.384880   -1.287347
      6          6           0        1.144220   -0.197554   -0.622415
      7          6           0        2.374689   -0.383392   -1.297990
      8          6           0        3.591199   -0.201377   -0.653689
      9          6           0        3.620122    0.175983    0.700108
     10          6           0        2.432260    0.366881    1.393352
     11          6           0        1.173885    0.189623    0.768692
     12          7           0        0.029688    0.384875    1.481114
     13          6           0       -1.144235    0.197552    0.816182
     14          6           0       -2.374666    0.383393    1.491752
     15          1           0       -4.518901    0.350577    1.389487
     16          1           0       -4.570184   -0.318314   -1.010145
     17          1           0       -2.440038   -0.658337   -2.245344
     18          1           0        2.337799   -0.674407   -2.343257
     19          1           0        4.518922   -0.350562   -1.195688
     20          1           0        4.570203    0.318307    1.203885
     21          1           0        2.440018    0.658334    2.439119
     22          1           0       -2.337845    0.674410    2.537020
 ---------------------------------------------------------------------

 SCF Done:  E(UB3LYP) =  -571.869927324     A.U. after    1 cycles

 Alpha  occ. eigenvalues --  -14.28101 -14.28099 -10.19185 -10.19183 -10.19145
 Alpha  occ. eigenvalues --  -10.19145 -10.16129 -10.16129 -10.16079 -10.16078
 Alpha  occ. eigenvalues --  -10.15623 -10.15622 -10.15621 -10.15621  -0.94399
 Alpha  occ. eigenvalues --   -0.87600  -0.84275  -0.81377  -0.74283  -0.73552
 Alpha  occ. eigenvalues --   -0.71432  -0.66536  -0.61708  -0.59008  -0.57935
 Alpha  occ. eigenvalues --   -0.54353  -0.52719  -0.47766  -0.46722  -0.45781
 Alpha  occ. eigenvalues --   -0.44479  -0.41946  -0.41806  -0.41190  -0.40753
 Alpha  occ. eigenvalues --   -0.37200  -0.35968  -0.35849  -0.34024  -0.33759
 Alpha  occ. eigenvalues --   -0.33166  -0.31251  -0.28453  -0.25214  -0.24303
 Alpha  occ. eigenvalues --   -0.22984  -0.21215  -0.12694
 Alpha virt. eigenvalues --   -0.01118  -0.00268  -0.00049   0.00480   0.00995
 Alpha virt. eigenvalues --    0.01225   0.02346   0.02466   0.04236   0.04455
 Alpha virt. eigenvalues --    0.04562   0.04634   0.05365   0.06512   0.06752

  Beta  occ. eigenvalues --  -14.27500 -14.27498 -10.19209 -10.19208 -10.19170
  Beta  occ. eigenvalues --  -10.19170 -10.16058 -10.16058 -10.16009 -10.16008
  Beta  occ. eigenvalues --  -10.15508 -10.15508 -10.15506 -10.15506  -0.93716
  Beta  occ. eigenvalues --   -0.86574  -0.84005  -0.80997  -0.74012  -0.73315
  Beta  occ. eigenvalues --   -0.71087  -0.65934  -0.61598  -0.58691  -0.57695
  Beta  occ. eigenvalues --   -0.54072  -0.52537  -0.47584  -0.46491  -0.45664
  Beta  occ. eigenvalues --   -0.44369  -0.41825  -0.41074  -0.40644  -0.40592
  Beta  occ. eigenvalues --   -0.37107  -0.35672  -0.35247  -0.33932  -0.33590
  Beta  occ. eigenvalues --   -0.31025  -0.30031  -0.27724  -0.24442  -0.23469
  Beta  occ. eigenvalues --   -0.22415  -0.19413
  Beta virt. eigenvalues --   -0.06826  -0.00953  -0.00041   0.00479   0.00723
  Beta virt. eigenvalues --    0.01235   0.02263   0.02365   0.02462   0.04270
  Beta virt. eigenvalues --    0.04461   0.04563   0.05607   0.05927   0.06563

 Mulliken charges and spin densities:
               1          2
     1  C   -0.327951   0.058296
     2  C   -0.327917   0.058105
     3  C   -0.220062   0.047709
     4  C    0.054801   0.015731
     5  N   -0.180613   0.279494
     6  C    0.054534   0.015888
     7  C   -0.219953   0.047524
     8  C   -0.327949   0.058313
     9  C   -0.327912   0.058119
    10  C   -0.220072   0.047691
    11  C    0.054784   0.015747
    12  N   -0.180617   0.279502
    13  C    0.054575   0.015869
    14  C   -0.219945   0.047544
    15  H    0.168751  -0.004035
    16  H    0.168740  -0.004020
    17  H    0.164836  -0.007360
    18  H    0.164819  -0.007350
    19  H    0.168753  -0.004035
    20  H    0.168741  -0.004021
    21  H    0.164833  -0.007360
    22  H    0.164823  -0.007351
 Sum of Mulliken charges =  -1.00000   1.00000

 Dipole moment (field-independent basis, Debye):
    X=             -0.0002    Y=              0.0000    Z=             -0.4653  Tot=              0.4653
 Quadrupole moment (field-independent basis, Debye-Ang):
   XX=            -92.1628   YY=            -91.4420   ZZ=            -95.1215
   XY=             -0.0224   XZ=             -0.0632   YZ=             -1.0879

  Exact polarizability: 482.434  -0.516 134.604  -4.702  33.922 247.047
 Approx polarizability: 502.599  -0.367 151.703  -4.172  42.464 292.368

                      1                      2                      3
                      A                      A                      A
 Frequencies --     88.4367               102.6335               247.8051
 Red. masses --      5.6209                 3.7959                 4.6904
 Frc consts  --      0.0259                 0.0236                 0.1697
 IR Inten    --      8.5158                 0.0107                16.5115

                      4                      5                      6
                      A                      A                      A
 Frequencies --    255.4988               255.7403               344.7982
 Red. masses --      5.1758                 5.4715                 5.2770
 Frc consts  --      0.1991                 0.2108                 0.3696
 IR Inten    --      0.0000                 0.0000                 2.7750

                      7                      8                      9
                      A                      A                      A
 Frequencies --    413.5722               447.8950               472.9120
 Red. masses --      6.6898                 5.0534                 2.9949
 Frc consts  --      0.6742                 0.5973                 0.3946
 IR Inten    --      0.0000                 0.0000                 0.0000

                     10                     11                     12
                      A                      A                      A
 Frequencies --    476.1524               530.8689               544.2248
 Red. masses --      3.5054                 3.9880                 8.5119
 Frc consts  --      0.4682                 0.6622                 1.4854
 IR Inten    --      1.2121                 0.0043                 0.0000

                     13                     14                     15
                      A                      A                      A
 Frequencies --    583.4772               611.0508               615.0865
 Red. masses --      4.1129                 9.0207                 7.1261
 Frc consts  --      0.8250                 1.9845                 1.5885
 IR Inten    --      0.0000                 0.0000                11.6644

                     16                     17                     18
                      A                      A                      A
 Frequencies --    668.8135               717.8537               733.0720
 Red. masses --      6.1638                 4.7416                 6.6585
 Frc consts  --      1.6245                 1.4396                 2.1082
 IR Inten    --      0.2496                 0.0168                 0.0000

                     19                     20                     21
                      A                      A                      A
 Frequencies --    737.9806               744.9522               770.3232
 Red. masses --      1.2680                 1.2878                 3.3095
 Frc consts  --      0.4069                 0.4211                 1.1571
 IR Inten    --    326.1067                 0.0001                 0.0000

                     22                     23                     24
                      A                      A                      A
 Frequencies --    830.9935               836.6083               837.4578
 Red. masses --      1.4398                 1.7400                 5.8373
 Frc consts  --      0.5858                 0.7175                 2.4121
 IR Inten    --      0.0351                 0.0000                38.7782

                     25                     26                     27
                      A                      A                      A
 Frequencies --    893.5144               915.3801               915.5321
 Red. masses --      6.0434                 1.3469                 1.3507
 Frc consts  --      2.8427                 0.6649                 0.6670
 IR Inten    --     13.9993                16.9729                 0.0103

                     28                     29                     30
                      A                      A                      A
 Frequencies --    921.8351               944.3551               945.9019
 Red. masses --      6.1919                 1.2238                 1.2297
 Frc consts  --      3.1002                 0.6430                 0.6482
 IR Inten    --      0.0000                 0.0000                 0.0115

                     31                     32                     33
                      A                      A                      A
 Frequencies --   1038.2823              1038.8274              1114.0967
 Red. masses --      2.1814                 1.9849                 1.7194
 Frc consts  --      1.3855                 1.2620                 1.2574
 IR Inten    --      0.0308                42.4199                 0.0000

                     34                     35                     36
                      A                      A                      A
 Frequencies --   1135.3313              1153.9457              1164.1130
 Red. masses --      1.3805                 1.1408                 1.0673
 Frc consts  --      1.0484                 0.8951                 0.8522
 IR Inten    --     43.2114                 3.7010                 0.0000

                     37                     38                     39
                      A                      A                      A
 Frequencies --   1226.2122              1251.4046              1263.9889
 Red. masses --      1.7623                 3.7469                 6.7422
 Frc consts  --      1.5612                 3.4572                 6.3466
 IR Inten    --      0.0000                 0.0006                 4.2112

                     40                     41                     42
                      A                      A                      A
 Frequencies --   1286.3156              1296.3043              1317.1835
 Red. masses --      5.7630                 1.6540                 9.7114
 Frc consts  --      5.6181                 1.6376                 9.9272
 IR Inten    --    502.5606                 0.0751               891.8196

                     43                     44                     45
                      A                      A                      A
 Frequencies --   1359.9353              1369.0045              1430.9506
 Red. masses --      6.6286                 4.2369                 2.2740
 Frc consts  --      7.2228                 4.6785                 2.7434
 IR Inten    --      0.0000                 0.0000                 0.0000

                     46                     47                     48
                      A                      A                      A
 Frequencies --   1439.8130              1476.3290              1502.7973
 Red. masses --      2.5385                 2.5549                 3.0015
 Frc consts  --      3.1006                 3.2809                 3.9938
 IR Inten    --      0.2006                14.0301                 0.0001

                     49                     50                     51
                      A                      A                      A
 Frequencies --   1544.8397              1572.6601              1575.9270
 Red. masses --      4.4232                 4.4909                 6.5591
 Frc consts  --      6.2195                 6.5441                 9.5976
 IR Inten    --    187.3448                 0.0000                 0.0002

                     52                     53                     54
                      A                      A                      A
 Frequencies --   1614.2383              3147.9452              3148.1347
 Red. masses --      5.8463                 1.0843                 1.0845
 Frc consts  --      8.9757                 6.3308                 6.3329
 IR Inten    --     38.6693                 0.0038                21.2509

                     55                     56                     57
                      A                      A                      A
 Frequencies --   3153.1562              3153.5107              3164.2633
 Red. masses --      1.0874                 1.0875                 1.0922
 Frc consts  --      6.3698                 6.3719                 6.4429
 IR Inten    --      8.4219                 0.0010                 0.1803

                     58                     59                     60
                      A                      A                      A
 Frequencies --   3164.3807              3177.8705              3178.3924
 Red. masses --      1.0923                 1.0971                 1.0969
 Frc consts  --      6.4439                 6.5277                 6.5290
 IR Inten    --    144.1326               133.1078                 0.0080

 - Thermochemistry -
 -------------------
 Temperature   298.150 Kelvin.  Pressure   1.00000 Atm.
 Atom     1 has atomic number  6 and mass  12.00000

 Molecular mass:   180.06875 amu.
 Principal axes and moments of inertia in atomic units:
                           1         2         3
     Eigenvalues --   826.345073830.066944656.41185
           X            0.99978   0.02064  -0.00212
           Y           -0.00349   0.26826   0.96334
           Z           -0.02045   0.96313  -0.26827
 This molecule is an asymmetric top.
 Rotational symmetry number  1.
 Warning -- assumption of classical behavior for rotation
           may cause significant error
 Rotational temperatures (Kelvin)      0.10482     0.02261     0.01860
 Rotational constants (GHZ):           2.18400     0.47120     0.38758
 Zero-point vibrational energy     435828.8 (Joules/Mol)
                                  104.16558 (Kcal/Mol)
 Warning -- explicit consideration of  15 degrees of freedom as
           vibrations may cause significant error
 Vibrational temperatures:    127.24   147.67   356.54   367.61   367.95
          (Kelvin)            496.09   595.04   644.42   680.41   685.08
                              763.80   783.02   839.49   879.17   884.97
                              962.27  1032.83  1054.73  1061.79  1071.82
                             1108.32  1195.61  1203.69  1204.91  1285.57
                             1317.03  1317.25  1326.32  1358.72  1360.94
                             1493.86  1494.64  1602.94  1633.49  1660.27
                             1674.90  1764.25  1800.49  1818.60  1850.72
                             1865.09  1895.13  1956.64  1969.69  2058.82
                             2071.57  2124.11  2162.19  2222.68  2262.71
                             2267.41  2322.53  4529.19  4529.46  4536.69
                             4537.20  4552.67  4552.84  4572.25  4573.00

 Zero-point correction=                           0.165998 (Hartree/Particle)
 Thermal correction to Energy=                    0.175447
 Thermal correction to Enthalpy=                  0.176392
 Thermal correction to Gibbs Free Energy=         0.130482
 Sum of electronic and zero-point Energies=           -571.703929
 Sum of electronic and thermal Energies=              -571.694480
 Sum of electronic and thermal Enthalpies=            -571.693536
 Sum of electronic and thermal Free Energies=         -571.739445

                     E (Thermal)             CV                S
                      KCal/Mol        Cal/Mol-Kelvin    Cal/Mol-Kelvin
 Total                  110.095             40.261             96.624
 Electronic               0.000              0.000              1.377
 Translational            0.889              2.981             41.471
 Rotational               0.889              2.981             31.067
 Vibrational            108.317             34.300             22.709
 Vibration     1          0.601              1.957              3.694
 Vibration     2          0.605              1.947              3.404
 Vibration     3          0.661              1.766              1.746
 Vibration     4          0.666              1.754              1.692
 Vibration     5          0.666              1.753              1.691
 Vibration     6          0.723              1.586              1.190
 Vibration     7          0.777              1.441              0.914
 Vibration     8          0.807              1.366              0.802
 Vibration     9          0.830              1.310              0.729
 Vibration    10          0.833              1.303              0.721
 Vibration    11          0.886              1.182              0.585
 Vibration    12          0.899              1.152              0.556
 Vibration    13          0.940              1.067              0.479
 Vibration    14          0.970              1.008              0.431
 Vibration    15          0.975              1.000              0.424

 Optimization completed.
    -- Stationary point found.
 Normal termination of Gaussian 16 at Sun Feb 11 16:10:12 2024.
