 Q-Chem 5.4, Q-Chem, Inc., Pleasanton, CA (2021)
 Q-Chem 5.4.0 for Intel X86 EM64T Linux

User input:
--------------------------------------------------------------
$molecule
-1 2
C                  5.4100280000     -3.7686130000     -2.5262720000
O                  4.6033830000     -2.8502750000     -1.8213220000
C                  5.1728310000     -2.0799700000     -0.8505810000
C                  6.5208180000     -2.1786790000     -0.5359010000
C                  7.0795900000     -1.3693670000      0.4710650000
C                  6.2933780000     -0.4712230000      1.1530080000
C                  4.9203830000     -0.3480480000      0.8574720000
C                  4.1642530000      0.6492160000      1.6447320000
O                  4.7570220000      1.3305280000      2.5040890000
C                  2.7332220000      0.7763840000      1.3530930000
C                  1.8995720000      1.6979650000      2.0421130000
O                  2.4598550000      2.5004700000      3.0105660000
C                  0.5426700000      1.8181540000      1.7421450000
C                 -0.2858550000      2.9053710000      2.3977830000
C                 -1.4593210000      3.3251200000      1.5151340000
O                 -2.2047810000      4.3108290000      2.2648330000
C                 -2.3119380000      2.1004670000      1.2140680000
C                 -1.5402950000      0.9929240000      0.4810120000
O                 -2.1561470000     -0.2689680000      0.8782990000
C                 -2.7511250000     -1.0039050000     -0.1280540000
C                 -2.9430730000     -2.4369970000      0.3502070000
C                 -3.7600910000     -3.2688010000     -0.6637360000
N                 -3.0235210000     -3.6689020000     -1.8770290000
C                 -5.0408140000     -2.5025830000     -1.0648470000
O                 -5.9625100000     -2.4503480000      0.0275210000
C                 -4.6840840000     -1.0815140000     -1.5302690000
C                 -5.8781830000     -0.2448060000     -1.9628500000
O                 -4.0407230000     -0.4098730000     -0.4387620000
C                 -0.0581140000      0.9659300000      0.7838920000
C                  0.7417510000      0.0695680000      0.0736260000
O                  0.1713960000     -0.6943760000     -0.8753410000
C                  2.1426840000     -0.0401170000      0.3378630000
C                  2.9079220000     -1.0065410000     -0.4371920000
O                  2.3144960000     -1.7018840000     -1.3388630000
C                  4.3237700000     -1.1527320000     -0.1555370000
C                 -1.0427880000      4.0690100000      0.2238130000
O                 -1.7604890000      4.0583350000     -0.7588820000
C                  0.2117450000      4.9231150000      0.2101180000
O                  0.2909640000      5.6997560000     -0.9628430000
H                  4.7441970000     -4.2570110000     -3.2381290000
H                  5.8461890000     -4.5260370000     -1.8620680000
H                  6.2189140000     -3.2680830000     -3.0741120000
H                  7.1558360000     -2.8781780000     -1.0618050000
H                  8.1364800000     -1.4625990000      0.7007520000
H                  6.6919710000      0.1670280000      1.9306240000
H                  1.7523560000      2.8843600000      3.5356420000
H                  0.3238790000      3.7873480000      2.6196460000
H                 -0.7213550000      2.5831310000      3.3533090000
H                 -3.0423840000      4.4539820000      1.8078980000
H                 -3.1957250000      2.3715280000      0.6318740000
H                 -2.6502780000      1.7012350000      2.1736900000
H                 -1.6800100000      1.0981440000     -0.5979920000
H                 -2.1412970000     -0.9608190000     -1.0387480000
H                 -1.9624500000     -2.8904040000      0.5148080000
H                 -3.4554850000     -2.4020560000      1.3175660000
H                 -4.0909670000     -4.1916550000     -0.1796690000
H                 -2.4734060000     -2.9000250000     -2.2482170000
H                 -2.3558310000     -4.3983350000     -1.6485790000
H                 -5.5379000000     -3.0528440000     -1.8665750000
H                 -5.6558800000     -1.7481140000      0.6161090000
H                 -3.9805080000     -1.1566490000     -2.3734910000
H                 -6.3741260000     -0.7095020000     -2.8198000000
H                 -5.5471930000      0.7554880000     -2.2500240000
H                 -6.6050820000     -0.1549410000     -1.1536430000
H                  0.9749980000     -1.2501090000     -1.2483670000
H                  0.2055690000      5.5769270000      1.0901880000
H                  1.0802770000      4.2560770000      0.3015240000
H                 -0.4186710000      5.3774970000     -1.5405870000
$end
$rem
MAX_SCF_CYCLES=200
BASIS  =  6-311++G(d,p)
GUI  =  2
JOB_TYPE  =  SP
METHOD  =  B3LYP
SCF_ALGORITHM = RCA_DIIS
SOLVENT_METHOD = PCM
$end
$pcm
theory = CPCM
$end
$solvent
dielectric 37.219
opticaldielectric 1.43
$end

--------------------------------------------------------------

             Standard Nuclear Orientation (Angstroms)
    I     Atom           X                Y                Z
 ----------------------------------------------------------------
    1      C       5.4100280000    -3.7686130000    -2.5262720000
    2      O       4.6033830000    -2.8502750000    -1.8213220000
    3      C       5.1728310000    -2.0799700000    -0.8505810000
    4      C       6.5208180000    -2.1786790000    -0.5359010000
    5      C       7.0795900000    -1.3693670000     0.4710650000
    6      C       6.2933780000    -0.4712230000     1.1530080000
    7      C       4.9203830000    -0.3480480000     0.8574720000
    8      C       4.1642530000     0.6492160000     1.6447320000
    9      O       4.7570220000     1.3305280000     2.5040890000
   10      C       2.7332220000     0.7763840000     1.3530930000
   11      C       1.8995720000     1.6979650000     2.0421130000
   12      O       2.4598550000     2.5004700000     3.0105660000
   13      C       0.5426700000     1.8181540000     1.7421450000
   14      C      -0.2858550000     2.9053710000     2.3977830000
   15      C      -1.4593210000     3.3251200000     1.5151340000
   16      O      -2.2047810000     4.3108290000     2.2648330000
   17      C      -2.3119380000     2.1004670000     1.2140680000
   18      C      -1.5402950000     0.9929240000     0.4810120000
   19      O      -2.1561470000    -0.2689680000     0.8782990000
   20      C      -2.7511250000    -1.0039050000    -0.1280540000
   21      C      -2.9430730000    -2.4369970000     0.3502070000
   22      C      -3.7600910000    -3.2688010000    -0.6637360000
   23      N      -3.0235210000    -3.6689020000    -1.8770290000
   24      C      -5.0408140000    -2.5025830000    -1.0648470000
   25      O      -5.9625100000    -2.4503480000     0.0275210000
   26      C      -4.6840840000    -1.0815140000    -1.5302690000
   27      C      -5.8781830000    -0.2448060000    -1.9628500000
   28      O      -4.0407230000    -0.4098730000    -0.4387620000
   29      C      -0.0581140000     0.9659300000     0.7838920000
   30      C       0.7417510000     0.0695680000     0.0736260000
   31      O       0.1713960000    -0.6943760000    -0.8753410000
   32      C       2.1426840000    -0.0401170000     0.3378630000
   33      C       2.9079220000    -1.0065410000    -0.4371920000
   34      O       2.3144960000    -1.7018840000    -1.3388630000
   35      C       4.3237700000    -1.1527320000    -0.1555370000
   36      C      -1.0427880000     4.0690100000     0.2238130000
   37      O      -1.7604890000     4.0583350000    -0.7588820000
   38      C       0.2117450000     4.9231150000     0.2101180000
   39      O       0.2909640000     5.6997560000    -0.9628430000
   40      H       4.7441970000    -4.2570110000    -3.2381290000
   41      H       5.8461890000    -4.5260370000    -1.8620680000
   42      H       6.2189140000    -3.2680830000    -3.0741120000
   43      H       7.1558360000    -2.8781780000    -1.0618050000
   44      H       8.1364800000    -1.4625990000     0.7007520000
   45      H       6.6919710000     0.1670280000     1.9306240000
   46      H       1.7523560000     2.8843600000     3.5356420000
   47      H       0.3238790000     3.7873480000     2.6196460000
   48      H      -0.7213550000     2.5831310000     3.3533090000
   49      H      -3.0423840000     4.4539820000     1.8078980000
   50      H      -3.1957250000     2.3715280000     0.6318740000
   51      H      -2.6502780000     1.7012350000     2.1736900000
   52      H      -1.6800100000     1.0981440000    -0.5979920000
   53      H      -2.1412970000    -0.9608190000    -1.0387480000
   54      H      -1.9624500000    -2.8904040000     0.5148080000
   55      H      -3.4554850000    -2.4020560000     1.3175660000
   56      H      -4.0909670000    -4.1916550000    -0.1796690000
   57      H      -2.4734060000    -2.9000250000    -2.2482170000
   58      H      -2.3558310000    -4.3983350000    -1.6485790000
   59      H      -5.5379000000    -3.0528440000    -1.8665750000
   60      H      -5.6558800000    -1.7481140000     0.6161090000
   61      H      -3.9805080000    -1.1566490000    -2.3734910000
   62      H      -6.3741260000    -0.7095020000    -2.8198000000
   63      H      -5.5471930000     0.7554880000    -2.2500240000
   64      H      -6.6050820000    -0.1549410000    -1.1536430000
   65      H       0.9749980000    -1.2501090000    -1.2483670000
   66      H       0.2055690000     5.5769270000     1.0901880000
   67      H       1.0802770000     4.2560770000     0.3015240000
   68      H      -0.4186710000     5.3774970000    -1.5405870000
 ----------------------------------------------------------------

   80   -1929.2558660669      8.19E-06 Convergence criterion met
 Total energy in the final basis set = -1929.25586607

                    Orbital Energies (a.u.)
 --------------------------------------------------------------

 Alpha MOs
 -- Occupied --
-19.1530 -19.1479 -19.1460 -19.1456 -19.1359 -19.1334 -19.1288 -19.1253
-19.1203 -19.0914 -19.0750 -14.2955 -10.2824 -10.2645 -10.2542 -10.2415
-10.2384 -10.2343 -10.2343 -10.2324 -10.2323 -10.2312 -10.2226 -10.2173
-10.2142 -10.2006 -10.1894 -10.1872 -10.1823 -10.1809 -10.1795 -10.1776
-10.1769 -10.1743 -10.1734 -10.1691 -10.1644 -10.1625 -10.1573  -1.0868
 -1.0744  -1.0722  -1.0610  -1.0523  -1.0450  -1.0337  -1.0316  -1.0097
 -1.0080  -1.0042  -0.8897  -0.8692  -0.8576  -0.8281  -0.7885  -0.7836
 -0.7675  -0.7617  -0.7552  -0.7490  -0.7382  -0.7227  -0.6992  -0.6950
 -0.6713  -0.6653  -0.6451  -0.6361  -0.6193  -0.6163  -0.6059  -0.5930
 -0.5725  -0.5694  -0.5686  -0.5595  -0.5489  -0.5370  -0.5268  -0.5195
 -0.5167  -0.5026  -0.5011  -0.4985  -0.4907  -0.4841  -0.4831  -0.4819
 -0.4725  -0.4710  -0.4694  -0.4690  -0.4669  -0.4540  -0.4467  -0.4419
 -0.4407  -0.4391  -0.4352  -0.4280  -0.4210  -0.4193  -0.4144  -0.4073
 -0.4047  -0.4023  -0.4016  -0.3964  -0.3933  -0.3915  -0.3895  -0.3878
 -0.3832  -0.3787  -0.3785  -0.3699  -0.3686  -0.3654  -0.3633  -0.3611
 -0.3597  -0.3555  -0.3530  -0.3467  -0.3391  -0.3340  -0.3256  -0.3235
 -0.3211  -0.3192  -0.3078  -0.2953  -0.2941  -0.2858  -0.2738  -0.2693
 -0.2601  -0.2520  -0.2501  -0.2494  -0.2350  -0.2342  -0.2142  -0.1422

 Beta MOs
 -- Occupied --
-19.1529 -19.1477 -19.1460 -19.1456 -19.1358 -19.1334 -19.1288 -19.1253
-19.1200 -19.0869 -19.0700 -14.2955 -10.2823 -10.2645 -10.2542 -10.2414
-10.2360 -10.2343 -10.2339 -10.2324 -10.2321 -10.2298 -10.2226 -10.2173
-10.2142 -10.2006 -10.1885 -10.1873 -10.1821 -10.1804 -10.1795 -10.1766
-10.1757 -10.1736 -10.1734 -10.1686 -10.1644 -10.1625 -10.1573  -1.0868
 -1.0742  -1.0719  -1.0603  -1.0503  -1.0450  -1.0336  -1.0315  -1.0092
 -0.9997  -0.9976  -0.8897  -0.8672  -0.8558  -0.8270  -0.7880  -0.7806
 -0.7673  -0.7602  -0.7546  -0.7474  -0.7372  -0.7210  -0.6986  -0.6947
 -0.6666  -0.6640  -0.6432  -0.6354  -0.6185  -0.6162  -0.6050  -0.5917
 -0.5714  -0.5690  -0.5679  -0.5591  -0.5487  -0.5356  -0.5266  -0.5185
 -0.5159  -0.5021  -0.5010  -0.4978  -0.4894  -0.4836  -0.4827  -0.4817
 -0.4713  -0.4705  -0.4688  -0.4681  -0.4665  -0.4529  -0.4460  -0.4410
 -0.4390  -0.4361  -0.4337  -0.4268  -0.4194  -0.4143  -0.4116  -0.4059
 -0.4030  -0.4022  -0.3969  -0.3952  -0.3928  -0.3900  -0.3886  -0.3865
 -0.3828  -0.3781  -0.3724  -0.3687  -0.3672  -0.3633  -0.3610  -0.3574
 -0.3554  -0.3515  -0.3506  -0.3461  -0.3383  -0.3335  -0.3255  -0.3234
 -0.3188  -0.3165  -0.3015  -0.2951  -0.2936  -0.2852  -0.2728  -0.2602
 -0.2540  -0.2500  -0.2478  -0.2451  -0.2308  -0.2269  -0.2059

          Ground-State Mulliken Net Atomic Charges

     Atom                 Charge (a.u.)    Spin (a.u.)
  --------------------------------------------------------
      1 C                    -0.294003      -0.000547
      2 O                    -0.181624       0.003994
      3 C                     0.024696       0.026179
      4 C                    -0.163613       0.039366
      5 C                    -0.403443       0.058672
      6 C                    -0.087563       0.020015
      7 C                     0.200463       0.073987
      8 C                    -0.562543       0.064872
      9 O                    -0.435599       0.189629
     10 C                    -0.009070       0.025134
     11 C                    -0.224592       0.026118
     12 O                    -0.285340       0.006153
     13 C                     0.292797       0.067478
     14 C                    -0.468308       0.000946
     15 C                     0.454219      -0.001000
     16 O                    -0.179944      -0.000078
     17 C                    -0.847112      -0.008988
     18 C                    -0.594688      -0.008142
     19 O                     0.122755       0.001053
     20 C                    -0.025953       0.005194
     21 C                    -0.733457       0.005014
     22 C                     0.165589      -0.002167
     23 N                    -0.479072       0.000091
     24 C                    -0.374519       0.000404
     25 O                    -0.241833      -0.000005
     26 C                    -0.201074       0.000129
     27 C                    -0.614966       0.001691
     28 O                    -0.077233      -0.000294
     29 C                     0.330299       0.077823
     30 C                    -0.409264       0.003609
     31 O                    -0.462801       0.011930
     32 C                     0.577070       0.011316
     33 C                    -0.377296       0.145262
     34 O                    -0.520444       0.165459
     35 C                     0.152344      -0.010469
     36 C                    -0.220159       0.000636
     37 O                    -0.268875       0.000677
     38 C                    -0.462546      -0.001120
     39 O                    -0.322402       0.000047
     40 H                     0.201381      -0.000204
     41 H                     0.166930       0.000427
     42 H                     0.167608       0.000569
     43 H                     0.196503      -0.003059
     44 H                     0.217169      -0.004233
     45 H                     0.163277      -0.001117
     46 H                     0.340013      -0.000402
     47 H                     0.216985       0.001460
     48 H                     0.281966       0.004672
     49 H                     0.310748      -0.000099
     50 H                     0.267693      -0.000138
     51 H                     0.245375       0.000103
     52 H                     0.300094       0.002569
     53 H                     0.315873       0.000458
     54 H                     0.204673       0.000241
     55 H                     0.194583       0.000038
     56 H                     0.259680      -0.000019
     57 H                     0.250260       0.000086
     58 H                     0.291126      -0.000013
     59 H                     0.251158       0.000026
     60 H                     0.291906      -0.000014
     61 H                     0.174671      -0.000168
     62 H                     0.168424       0.000006
     63 H                     0.157745      -0.000022
     64 H                     0.167248       0.000044
     65 H                     0.588854      -0.001386
     66 H                     0.243047      -0.000044
     67 H                     0.276025       0.000189
     68 H                     0.298035      -0.000038
  --------------------------------------------------------
  Sum of atomic charges =    -1.000053

                    Cartesian Multipole Moments
 -----------------------------------------------------------------
    Charge (ESU x 10^10)
                -4.8035
    Dipole Moment (Debye)
         X      -9.6103      Y      -2.6436      Z      -2.7907
       Tot      10.3506
    Quadrupole Moments (Debye-Ang)
        XX    -305.2541     XY     -41.7709     YY    -256.7620
        XZ     -31.2275     YZ       3.3998     ZZ    -247.3895

 Total job time:  7902.05s(wall), 49639.00s(cpu)
        *  Thank you very much for using Q-Chem.  Have a nice day.  *
