 Gaussian 16, Revision A.03,
 Gaussian 16:  ES64L-G16RevA.03 25-Dec-2016

 ----------------------------------------------------------------
 #P UB3LYP/6-311++G(d,p) SCRF=(PCM,Solvent=n,n-DiMethylFormamide)
 ----------------------------------------------------------------

 ------------------
 Radical PCM in DMF
 ------------------
 Symbolic Z-matrix:
 Charge = -1 Multiplicity = 2

                         Standard orientation:
 ---------------------------------------------------------------------
 Center     Atomic      Atomic             Coordinates (Angstroms)
 Number     Number       Type             X           Y           Z
 ---------------------------------------------------------------------
      1          6           0       -5.231861   -4.380767    1.482654
      2          8           0       -4.398345   -3.311934    1.090451
      3          6           0       -4.961093   -2.214090    0.509046
      4          6           0       -6.328364   -2.122896    0.289750
      5          6           0       -6.879543   -0.976168   -0.312254
      6          6           0       -6.066613    0.066579   -0.688633
      7          6           0       -4.673655    0.003812   -0.480408
      8          6           0       -3.889030    1.178513   -0.916857
      9          8           0       -4.475509    2.154362   -1.424614
     10          6           0       -2.438216    1.117904   -0.715510
     11          6           0       -1.576666    2.182599   -1.093913
     12          8           0       -2.127686    3.309110   -1.662404
     13          6           0       -0.199705    2.116270   -0.881334
     14          6           0        0.671370    3.323266   -1.168987
     15          6           0        1.921837    3.333891   -0.292346
     16          8           0        2.697085    4.484771   -0.697128
     17          6           0        2.693519    2.041477   -0.519378
     18          6           0        1.881899    0.784593   -0.171570
     19          8           0        2.375391   -0.277228   -1.042480
     20          6           0        2.968292   -1.356374   -0.417349
     21          6           0        3.022065   -2.526466   -1.390654
     22          6           0        3.828976   -3.709870   -0.811047
     23          7           0        3.133905   -4.484281    0.233874
     24          6           0        5.185501   -3.207773   -0.267017
     25          8           0        6.044980   -2.810389   -1.338886
     26          6           0        4.966047   -2.035782    0.703338
     27          6           0        6.243549   -1.475061    1.308863
     28          8           0        4.315285   -0.982197   -0.019759
     29          6           0        0.387230    0.945115   -0.343394
     30          6           0       -0.437546   -0.105541    0.061072
     31          8           0        0.125358   -1.189620    0.624425
     32          6           0       -1.855500   -0.040135   -0.110954
     33          6           0       -2.647514   -1.181246    0.325914
     34          8           0       -2.059057   -2.185524    0.867959
     35          6           0       -4.084109   -1.142736    0.125821
     36          6           0        1.637694    3.579405    1.208776
     37          8           0        2.407079    3.176545    2.061213
     38          6           0        0.455324    4.433471    1.628430
     39          8           0        0.502749    4.735101    3.003950
     40          1           0       -4.566201   -5.127368    1.916346
     41          1           0       -5.761948   -4.822544    0.628877
     42          1           0       -5.967474   -4.072153    2.236700
     43          1           0       -6.984383   -2.931965    0.579867
     44          1           0       -7.951802   -0.925582   -0.474012
     45          1           0       -6.458473    0.962790   -1.151429
     46          1           0       -1.423728    3.820467   -2.070557
     47          1           0        0.119618    4.255650   -1.010518
     48          1           0        1.025864    3.347450   -2.208351
     49          1           0        3.567799    4.409495   -0.288408
     50          1           0        3.627147    2.037465    0.047918
     51          1           0        2.945148    2.000471   -1.582269
     52          1           0        2.090318    0.484256    0.858575
     53          1           0        2.416267   -1.615163    0.494466
     54          1           0        2.001736   -2.838551   -1.626927
     55          1           0        3.479900   -2.169540   -2.319396
     56          1           0        4.059928   -4.410146   -1.618349
     57          1           0        2.666475   -3.875160    0.898749
     58          1           0        2.400238   -5.046106   -0.185836
     59          1           0        5.683535   -4.035881    0.241754
     60          1           0        5.760310   -1.927860   -1.610356
     61          1           0        4.307787   -2.375333    1.517639
     62          1           0        6.750157   -2.243501    1.899721
     63          1           0        6.007258   -0.631348    1.960726
     64          1           0        6.928089   -1.135325    0.529595
     65          1           0       -0.696103   -1.800860    0.837382
     66          1           0        0.461760    5.360582    1.043234
     67          1           0       -0.465691    3.890315    1.374745
     68          1           0        1.217168    4.189477    3.368808
 ---------------------------------------------------------------------

 SCF Done:  E(UB3LYP) =  -1929.23812636     A.U. after   20 cycles

 The electronic state is 2-A.
 Alpha  occ. eigenvalues --  -19.15366 -19.15116 -19.14997 -19.14914 -19.13744
 Alpha  occ. eigenvalues --  -19.13621 -19.13167 -19.12845 -19.11983 -19.09009
 Alpha  occ. eigenvalues --  -19.07373 -14.30064 -10.28606 -10.26838 -10.25883
 Alpha  occ. eigenvalues --  -10.24213 -10.23756 -10.23737 -10.23719 -10.23515
 Alpha  occ. eigenvalues --  -10.23245 -10.22997 -10.22725 -10.22153 -10.21864
 Alpha  occ. eigenvalues --  -10.20521 -10.19320 -10.19087 -10.18218 -10.18094
 Alpha  occ. eigenvalues --  -10.17938 -10.17841 -10.17802 -10.17686 -10.17555
 Alpha  occ. eigenvalues --  -10.17059 -10.16903 -10.16302 -10.16169  -1.09041
 Alpha  occ. eigenvalues --   -1.07668  -1.07305  -1.06297  -1.05169  -1.05008
 Alpha  occ. eigenvalues --   -1.03673  -1.03473  -1.01222  -1.00651  -1.00308
 Alpha  occ. eigenvalues --   -0.89492  -0.87068  -0.85838  -0.83005  -0.79220
 Alpha  occ. eigenvalues --   -0.78502  -0.77160  -0.76284  -0.75889  -0.75055
 Alpha  occ. eigenvalues --   -0.74116  -0.72492  -0.70226  -0.69814  -0.67241
 Alpha  occ. eigenvalues --   -0.66837  -0.64693  -0.63909  -0.62230  -0.62021
 Alpha  occ. eigenvalues --   -0.60834  -0.59413  -0.57499  -0.57302  -0.57050
 Alpha  occ. eigenvalues --   -0.56258  -0.55274  -0.53843  -0.53021  -0.52188
 Alpha  occ. eigenvalues --   -0.51920  -0.50581  -0.50493  -0.50099  -0.49243
 Alpha  occ. eigenvalues --   -0.48752  -0.48632  -0.48433  -0.47509  -0.47360
 Alpha  occ. eigenvalues --   -0.47209  -0.47130  -0.47025  -0.45609  -0.44962
 Alpha  occ. eigenvalues --   -0.44504  -0.44220  -0.44144  -0.43764  -0.43015
 Alpha  occ. eigenvalues --   -0.42281  -0.42123  -0.41474  -0.41010  -0.40619
 Alpha  occ. eigenvalues --   -0.40535  -0.40225  -0.39957  -0.39700  -0.39443
 Alpha  occ. eigenvalues --   -0.39270  -0.39106  -0.38622  -0.38132  -0.37897
 Alpha  occ. eigenvalues --   -0.37206  -0.37058  -0.36686  -0.36614  -0.36271
 Alpha  occ. eigenvalues --   -0.36076  -0.35834  -0.35311  -0.34978  -0.34251
 Alpha  occ. eigenvalues --   -0.33517  -0.32923  -0.32711  -0.32202  -0.32186
 Alpha  occ. eigenvalues --   -0.30816  -0.29832  -0.29706  -0.28785  -0.27693
 Alpha  occ. eigenvalues --   -0.26995  -0.26315  -0.25335  -0.25132  -0.24966
 Alpha  occ. eigenvalues --   -0.23426  -0.23348  -0.21431  -0.14185
 Alpha virt. eigenvalues --   -0.05719  -0.04243  -0.02931  -0.01101  -0.00440
 Alpha virt. eigenvalues --   -0.00231   0.00107   0.00324   0.00834   0.01013
 Alpha virt. eigenvalues --    0.01159   0.01432   0.01710   0.02414   0.02814

  Beta  occ. eigenvalues --  -19.15355 -19.15117 -19.14974 -19.14913 -19.13728
  Beta  occ. eigenvalues --  -19.13621 -19.13166 -19.12845 -19.11955 -19.08541
  Beta  occ. eigenvalues --  -19.06850 -14.30064 -10.28606 -10.26838 -10.25880
  Beta  occ. eigenvalues --  -10.24189 -10.23756 -10.23725 -10.23492 -10.23488
  Beta  occ. eigenvalues --  -10.23226 -10.22878 -10.22725 -10.22153 -10.21864
  Beta  occ. eigenvalues --  -10.20521 -10.19327 -10.18983 -10.18206 -10.18030
  Beta  occ. eigenvalues --  -10.17937 -10.17802 -10.17738 -10.17569 -10.17477
  Beta  occ. eigenvalues --  -10.17018 -10.16903 -10.16313 -10.16169  -1.09039
  Beta  occ. eigenvalues --   -1.07650  -1.07268  -1.06235  -1.05011  -1.04966
  Beta  occ. eigenvalues --   -1.03658  -1.03472  -1.01194  -0.99791  -0.99592
  Beta  occ. eigenvalues --   -0.89492  -0.86886  -0.85653  -0.82895  -0.79178
  Beta  occ. eigenvalues --   -0.78196  -0.77147  -0.76142  -0.75839  -0.74905
  Beta  occ. eigenvalues --   -0.74015  -0.72316  -0.70182  -0.69779  -0.66857
  Beta  occ. eigenvalues --   -0.66632  -0.64498  -0.63826  -0.62150  -0.61998
  Beta  occ. eigenvalues --   -0.60740  -0.59279  -0.57412  -0.57286  -0.56951
  Beta  occ. eigenvalues --   -0.56217  -0.55250  -0.53715  -0.52998  -0.52129
  Beta  occ. eigenvalues --   -0.51796  -0.50555  -0.50476  -0.50027  -0.49125
  Beta  occ. eigenvalues --   -0.48729  -0.48587  -0.48383  -0.47474  -0.47295
  Beta  occ. eigenvalues --   -0.47134  -0.47049  -0.46934  -0.45510  -0.44908
  Beta  occ. eigenvalues --   -0.44468  -0.44072  -0.43886  -0.43543  -0.42904
  Beta  occ. eigenvalues --   -0.42125  -0.41662  -0.41226  -0.40874  -0.40607
  Beta  occ. eigenvalues --   -0.40282  -0.39948  -0.39771  -0.39626  -0.39352
  Beta  occ. eigenvalues --   -0.39092  -0.38933  -0.38564  -0.38071  -0.37354
  Beta  occ. eigenvalues --   -0.37188  -0.36791  -0.36654  -0.36379  -0.35794
  Beta  occ. eigenvalues --   -0.35744  -0.35220  -0.35072  -0.34868  -0.34112
  Beta  occ. eigenvalues --   -0.33467  -0.32907  -0.32699  -0.32163  -0.31718
  Beta  occ. eigenvalues --   -0.30226  -0.29817  -0.29611  -0.28732  -0.27635
  Beta  occ. eigenvalues --   -0.26331  -0.25360  -0.25286  -0.24689  -0.24559
  Beta  occ. eigenvalues --   -0.22894  -0.22714  -0.20611
  Beta virt. eigenvalues --   -0.08781  -0.05565  -0.03197  -0.01880  -0.01095
  Beta virt. eigenvalues --   -0.00433  -0.00223   0.00111   0.00329   0.00856
  Beta virt. eigenvalues --    0.01074   0.01406   0.01450   0.01724   0.02435

 Mulliken charges and spin densities:
               1          2
     1  C   -0.269461  -0.000723
     2  O   -0.168496   0.003790
     3  C    0.013296   0.029465
     4  C   -0.156403   0.033506
     5  C   -0.413259   0.062843
     6  C   -0.073572   0.014796
     7  C    0.210563   0.078752
     8  C   -0.604818   0.053567
     9  O   -0.412034   0.196770
    10  C    0.019815   0.034533
    11  C   -0.234051   0.018791
    12  O   -0.261930   0.005195
    13  C    0.260612   0.070753
    14  C   -0.416793   0.000402
    15  C    0.394215  -0.001311
    16  O   -0.150885  -0.000090
    17  C   -0.801896  -0.007665
    18  C   -0.653511  -0.007214
    19  O    0.144021   0.000881
    20  C   -0.069480   0.005274
    21  C   -0.634799   0.003517
    22  C    0.094184  -0.000950
    23  N   -0.419147   0.000046
    24  C   -0.361319  -0.000055
    25  O   -0.216806  -0.000004
    26  C   -0.185834   0.000202
    27  C   -0.566019   0.000381
    28  O   -0.058828  -0.000223
    29  C    0.334602   0.076662
    30  C   -0.437218   0.002582
    31  O   -0.447522   0.011349
    32  C    0.595830   0.011257
    33  C   -0.386161   0.144249
    34  O   -0.504193   0.170618
    35  C    0.182041  -0.013546
    36  C   -0.216719   0.000671
    37  O   -0.255336   0.000645
    38  C   -0.447371  -0.001110
    39  O   -0.304199   0.000042
    40  H    0.193453  -0.000210
    41  H    0.157883   0.000580
    42  H    0.158571   0.000575
    43  H    0.175783  -0.002378
    44  H    0.198123  -0.004480
    45  H    0.156991  -0.000879
    46  H    0.321069  -0.000469
    47  H    0.189941   0.001556
    48  H    0.272599   0.004974
    49  H    0.293127  -0.000099
    50  H    0.260227  -0.000040
    51  H    0.238000   0.000088
    52  H    0.284432   0.002394
    53  H    0.302022   0.000740
    54  H    0.201498   0.000279
    55  H    0.187767  -0.000031
    56  H    0.253083  -0.000007
    57  H    0.235417   0.000029
    58  H    0.278244   0.000012
    59  H    0.245220   0.000026
    60  H    0.279644   0.000002
    61  H    0.150081  -0.000001
    62  H    0.161609   0.000003
    63  H    0.152063  -0.000012
    64  H    0.161848   0.000029
    65  H    0.587793  -0.001420
    66  H    0.229685  -0.000045
    67  H    0.266189   0.000169
    68  H    0.286520  -0.000034
 Sum of Mulliken charges =  -1.00000   1.00000

 Dipole moment (field-independent basis, Debye):
    X=              8.0555    Y=             -2.9480    Z=              0.6477  Tot=              8.6024
 Quadrupole moment (field-independent basis, Debye-Ang):
   XX=           -297.2057   YY=           -257.9851   ZZ=           -248.6053
   XY=             46.3405   XZ=             -9.0176   YZ=             -8.7995

 Normal termination of Gaussian 16 at Tue Jan 16 06:13:53 2024.
