 Gaussian 16, Revision A.03,
 Gaussian 16:  ES64L-G16RevA.03 25-Dec-2016

 ----------------------------------------------------------------------
 #P UB3LYP/6-311++G(d,p) nosym opt freq SCRF=(PCM,Solvent=n,n-DiMethylF
 ormamide)
 ----------------------------------------------------------------------

 --------
 Oxidized
 --------
 Symbolic Z-matrix:
 Charge =  0 Multiplicity = 1

 SCF Done:  E(UB3LYP) =  -804.685173120     A.U. after   15 cycles
 SCF Done:  E(UB3LYP) =  -804.685282496     A.U. after   13 cycles
 SCF Done:  E(UB3LYP) =  -804.685287590     A.U. after   12 cycles
 SCF Done:  E(UB3LYP) =  -804.685302183     A.U. after   12 cycles
 SCF Done:  E(UB3LYP) =  -804.685312440     A.U. after   11 cycles
 SCF Done:  E(UB3LYP) =  -804.685316637     A.U. after   12 cycles
 SCF Done:  E(UB3LYP) =  -804.685319671     A.U. after   11 cycles
 SCF Done:  E(UB3LYP) =  -804.685322391     A.U. after   11 cycles
 SCF Done:  E(UB3LYP) =  -804.685324299     A.U. after   10 cycles
 SCF Done:  E(UB3LYP) =  -804.685325315     A.U. after   11 cycles
 SCF Done:  E(UB3LYP) =  -804.685325573     A.U. after   11 cycles
 SCF Done:  E(UB3LYP) =  -804.685325621     A.U. after   10 cycles
 Optimization completed.
    -- Stationary point found.
 Normal termination of Gaussian 16 at Sat Feb 10 11:12:19 2024.

 ----------------------------------------------------------------------
 #P Geom=AllCheck Guess=TCheck SCRF=Check GenChk UB3LYP/6-311++G(d,p) F
 req
 ----------------------------------------------------------------------

 Structure from the checkpoint file:  "078.chk"
 --------
 Oxidized
 --------
 Charge =  0 Multiplicity = 1

                          Input orientation:
 ---------------------------------------------------------------------
 Center     Atomic      Atomic             Coordinates (Angstroms)
 Number     Number       Type             X           Y           Z
 ---------------------------------------------------------------------
      1          6           0        0.445469    1.701561   -2.279333
      2          6           0       -0.988874    2.081301   -2.267265
      3          6           0       -1.957342    1.188821   -2.025893
      4          6           0       -1.628155   -0.226012   -1.751966
      5          6           0       -0.194373   -0.606326   -1.731218
      6          6           0        0.790006    0.285064   -1.940678
      7          8           0        1.298819    2.516263   -2.594496
      8          8           0       -2.498222   -1.061087   -1.545850
      9          6           0        3.305555    0.701968   -1.344519
     10          6           0        4.436916    0.966306   -2.148031
     11          6           0        3.207005    1.209215   -0.031683
     12          6           0        4.259423    1.985996    0.461837
     13          6           0        5.450177    1.770851   -1.621587
     14          6           0        5.368048    2.274456   -0.326676
     15          1           0       -1.200759    3.120813   -2.489886
     16          1           0       -3.008109    1.454364   -2.030789
     17          1           0        0.025544   -1.646031   -1.516049
     18          1           0        4.204854    2.364324    1.476752
     19          1           0        6.313690    2.001099   -2.236078
     20          1           0        6.169692    2.888397    0.068475
     21          6           0        2.229897   -0.185000   -1.895504
     22          8           0        2.482974   -1.301777   -2.314434
     23          6           0        2.031030    0.915467    0.874260
     24          1           0        1.763451   -0.143654    0.876666
     25          1           0        1.139086    1.479289    0.583727
     26          1           0        2.269182    1.199086    1.900296
     27          6           0        4.574762    0.439290   -3.558592
     28          1           0        3.660535    0.580632   -4.140288
     29          1           0        4.796281   -0.630597   -3.563878
     30          1           0        5.385909    0.955142   -4.074501
 ---------------------------------------------------------------------

 SCF Done:  E(UB3LYP) =  -804.685325621     A.U. after    1 cycles

 Alpha  occ. eigenvalues --  -19.15366 -19.15360 -19.14417 -10.30129 -10.29799
 Alpha  occ. eigenvalues --  -10.29490 -10.23264 -10.22835 -10.22152 -10.22015
 Alpha  occ. eigenvalues --  -10.20220 -10.20075 -10.19693 -10.18495 -10.17987
 Alpha  occ. eigenvalues --  -10.17926 -10.17538 -10.16939  -1.08490  -1.08071
 Alpha  occ. eigenvalues --   -1.07605  -0.88061  -0.87618  -0.81488  -0.79609
 Alpha  occ. eigenvalues --   -0.78150  -0.73016  -0.71458  -0.69018  -0.67386
 Alpha  occ. eigenvalues --   -0.63447  -0.62584  -0.58886  -0.56779  -0.53815
 Alpha  occ. eigenvalues --   -0.52512  -0.51282  -0.49629  -0.49106  -0.47947
 Alpha  occ. eigenvalues --   -0.46825  -0.46048  -0.45918  -0.44623  -0.43553
 Alpha  occ. eigenvalues --   -0.43355  -0.42778  -0.42056  -0.42035  -0.41664
 Alpha  occ. eigenvalues --   -0.41335  -0.40502  -0.38183  -0.36460  -0.35954
 Alpha  occ. eigenvalues --   -0.35338  -0.32267  -0.31436  -0.30536  -0.30155
 Alpha  occ. eigenvalues --   -0.27748  -0.26074  -0.25528
 Alpha virt. eigenvalues --   -0.15066  -0.08448  -0.04217  -0.02069  -0.01781
 Alpha virt. eigenvalues --   -0.00688   0.00256   0.00765   0.00959   0.01321
 Alpha virt. eigenvalues --    0.01752   0.02859   0.03024   0.03138   0.04287

  Beta  occ. eigenvalues --  -19.15366 -19.15360 -19.14417 -10.30129 -10.29799
  Beta  occ. eigenvalues --  -10.29490 -10.23264 -10.22835 -10.22152 -10.22015
  Beta  occ. eigenvalues --  -10.20220 -10.20075 -10.19693 -10.18495 -10.17987
  Beta  occ. eigenvalues --  -10.17926 -10.17538 -10.16939  -1.08490  -1.08071
  Beta  occ. eigenvalues --   -1.07605  -0.88061  -0.87618  -0.81488  -0.79609
  Beta  occ. eigenvalues --   -0.78150  -0.73016  -0.71458  -0.69018  -0.67386
  Beta  occ. eigenvalues --   -0.63447  -0.62584  -0.58886  -0.56779  -0.53815
  Beta  occ. eigenvalues --   -0.52512  -0.51282  -0.49629  -0.49106  -0.47947
  Beta  occ. eigenvalues --   -0.46825  -0.46048  -0.45918  -0.44623  -0.43553
  Beta  occ. eigenvalues --   -0.43355  -0.42778  -0.42056  -0.42035  -0.41664
  Beta  occ. eigenvalues --   -0.41335  -0.40502  -0.38183  -0.36460  -0.35954
  Beta  occ. eigenvalues --   -0.35338  -0.32267  -0.31436  -0.30536  -0.30155
  Beta  occ. eigenvalues --   -0.27748  -0.26074  -0.25528
  Beta virt. eigenvalues --   -0.15066  -0.08448  -0.04217  -0.02069  -0.01781
  Beta virt. eigenvalues --   -0.00688   0.00256   0.00765   0.00959   0.01321
  Beta virt. eigenvalues --    0.01752   0.02859   0.03024   0.03138   0.04287

 Mulliken charges and spin densities:
               1          2
     1  C   -1.205238   0.000000
     2  C   -0.192141  -0.000000
     3  C    0.227225   0.000000
     4  C   -0.550929  -0.000000
     5  C    0.410384   0.000000
     6  C    1.211885   0.000000
     7  O   -0.159731  -0.000000
     8  O   -0.270525   0.000000
     9  C    0.270172  -0.000000
    10  C    0.199133  -0.000000
    11  C    0.624906   0.000000
    12  C   -0.258063  -0.000000
    13  C   -0.336028   0.000000
    14  C   -0.264434   0.000000
    15  H    0.256787   0.000000
    16  H    0.256136   0.000000
    17  H    0.277318   0.000000
    18  H    0.171108  -0.000000
    19  H    0.174227   0.000000
    20  H    0.200319   0.000000
    21  C   -0.675286  -0.000000
    22  O   -0.202561   0.000000
    23  C   -0.761223  -0.000000
    24  H    0.187582  -0.000000
    25  H    0.183801  -0.000000
    26  H    0.175501   0.000000
    27  C   -0.504629  -0.000000
    28  H    0.192646   0.000000
    29  H    0.208745  -0.000000
    30  H    0.152913  -0.000000
 Sum of Mulliken charges =  -0.00000  -0.00000

 Dipole moment (field-independent basis, Debye):
    X=             -0.5662    Y=              3.4541    Z=              1.5978  Tot=              3.8476
 Quadrupole moment (field-independent basis, Debye-Ang):
   XX=           -104.1558   YY=           -110.9148   ZZ=           -103.4378
   XY=             -2.7624   XZ=              6.2270   YZ=             -2.8947

  Exact polarizability: 311.512  69.593 241.623 -17.889  11.316 206.712
 Approx polarizability: 354.829 102.580 302.512 -32.097   8.218 239.564

                      1                      2                      3
                      A                      A                      A
 Frequencies --     29.8387                31.1442                55.0697
 Red. masses --      4.7168                 7.5984                 5.1615
 Frc consts  --      0.0025                 0.0043                 0.0092
 IR Inten    --      2.0230                 1.7768                 2.9736

                      4                      5                      6
                      A                      A                      A
 Frequencies --     73.5671               107.6931               127.7394
 Red. masses --      6.2351                 4.1318                 1.3546
 Frc consts  --      0.0199                 0.0282                 0.0130
 IR Inten    --      7.1630                16.2025                 0.8084

                      7                      8                      9
                      A                      A                      A
 Frequencies --    130.7427               155.0962               179.0532
 Red. masses --      2.6786                 1.1055                 4.8202
 Frc consts  --      0.0270                 0.0157                 0.0910
 IR Inten    --      7.3470                 0.3265                 0.8462

                     10                     11                     12
                      A                      A                      A
 Frequencies --    193.7225               222.4855               249.3256
 Red. masses --      6.0004                 2.7782                 4.9133
 Frc consts  --      0.1327                 0.0810                 0.1800
 IR Inten    --      2.6849                 0.1478                 9.7649

                     13                     14                     15
                      A                      A                      A
 Frequencies --    259.1174               317.8000               328.6523
 Red. masses --      4.5212                 4.5035                 4.2816
 Frc consts  --      0.1789                 0.2680                 0.2725
 IR Inten    --      2.3866                 0.6654                 0.7382

                     16                     17                     18
                      A                      A                      A
 Frequencies --    383.9240               408.6115               429.6554
 Red. masses --      4.5360                 4.7514                 7.7453
 Frc consts  --      0.3939                 0.4674                 0.8424
 IR Inten    --      0.8125                34.9129                24.8569

                     19                     20                     21
                      A                      A                      A
 Frequencies --    444.5710               470.4885               523.6745
 Red. masses --      3.1591                 9.1582                 3.6970
 Frc consts  --      0.3679                 1.1944                 0.5973
 IR Inten    --      1.7306                 4.8013                11.1197

                     22                     23                     24
                      A                      A                      A
 Frequencies --    528.1307               536.2162               548.1221
 Red. masses --      3.3209                 5.2513                 4.1281
 Frc consts  --      0.5457                 0.8896                 0.7307
 IR Inten    --      1.2767                 2.9870                13.4811

                     25                     26                     27
                      A                      A                      A
 Frequencies --    581.0877               621.3122               629.4966
 Red. masses --      3.6401                 5.8349                 4.5064
 Frc consts  --      0.7242                 1.3271                 1.0521
 IR Inten    --      2.8758                 1.1823                 8.6443

                     28                     29                     30
                      A                      A                      A
 Frequencies --    724.6601               743.8737               773.2018
 Red. masses --      3.7507                 5.4687                 5.3129
 Frc consts  --      1.1605                 1.7829                 1.8714
 IR Inten    --     23.9873                14.5017                 6.2302

                     31                     32                     33
                      A                      A                      A
 Frequencies --    785.7934               788.8794               817.7134
 Red. masses --      1.2524                 3.1447                 4.3118
 Frc consts  --      0.4556                 1.1531                 1.6987
 IR Inten    --     66.7352                 3.8280                15.2909

                     34                     35                     36
                      A                      A                      A
 Frequencies --    827.3506               857.1226               913.8321
 Red. masses --      7.1354                 2.8437                 1.3030
 Frc consts  --      2.8777                 1.2309                 0.6411
 IR Inten    --      7.2955                56.1284                 0.0536

                     37                     38                     39
                      A                      A                      A
 Frequencies --    923.1932               946.5307               960.7259
 Red. masses --      2.8443                 2.4036                 2.0285
 Frc consts  --      1.4282                 1.2688                 1.1031
 IR Inten    --     49.2593                80.3948                75.9027

                     40                     41                     42
                      A                      A                      A
 Frequencies --    998.3637              1012.7685              1018.1627
 Red. masses --      1.3218                 1.5454                 1.2664
 Frc consts  --      0.7762                 0.9339                 0.7735
 IR Inten    --      0.5016                 0.1255                 0.1660

                     43                     44                     45
                      A                      A                      A
 Frequencies --   1053.0716              1054.6177              1058.2990
 Red. masses --      1.6418                 1.9233                 1.5536
 Frc consts  --      1.0727                 1.2603                 1.0252
 IR Inten    --      9.3663                 4.1357                 1.7005

                     46                     47                     48
                      A                      A                      A
 Frequencies --   1067.9199              1112.6846              1132.7073
 Red. masses --      3.1639                 1.7279                 1.6782
 Frc consts  --      2.1259                 1.2604                 1.2686
 IR Inten    --      2.0961                34.3746                68.6390

                     49                     50                     51
                      A                      A                      A
 Frequencies --   1188.0090              1212.0442              1247.8081
 Red. masses --      1.2077                 1.8356                 3.5512
 Frc consts  --      1.0043                 1.5888                 3.2578
 IR Inten    --      5.0945                10.1237               191.0124

                     52                     53                     54
                      A                      A                      A
 Frequencies --   1265.3797              1279.8855              1288.5749
 Red. masses --      3.2574                 1.8278                 3.1403
 Frc consts  --      3.0730                 1.7641                 3.0721
 IR Inten    --     27.9176                29.9272               180.6301

                     55                     56                     57
                      A                      A                      A
 Frequencies --   1308.7805              1348.0316              1391.9804
 Red. masses --      6.4214                 2.3014                 1.9384
 Frc consts  --      6.4806                 2.4640                 2.2129
 IR Inten    --      6.0188                60.0438                 2.7359

                     58                     59                     60
                      A                      A                      A
 Frequencies --   1411.2056              1416.4148              1444.5884
 Red. masses --      1.2261                 1.2263                 1.9867
 Frc consts  --      1.4386                 1.4496                 2.4427
 IR Inten    --      3.7972                 3.8185                57.4357

                     61                     62                     63
                      A                      A                      A
 Frequencies --   1476.4678              1482.9003              1489.8591
 Red. masses --      1.1387                 1.1818                 1.0973
 Frc consts  --      1.4625                 1.5312                 1.4350
 IR Inten    --      9.2516                 7.5825                17.2910

                     64                     65                     66
                      A                      A                      A
 Frequencies --   1495.8167              1500.6059              1609.3541
 Red. masses --      1.6402                 1.3110                 6.5294
 Frc consts  --      2.1623                 1.7393                 9.9639
 IR Inten    --     47.1930                 6.0409                19.0609

                     67                     68                     69
                      A                      A                      A
 Frequencies --   1625.6197              1637.1916              1665.7940
 Red. masses --      5.3236                 8.7526                 9.3621
 Frc consts  --      8.2889                13.8224                15.3062
 IR Inten    --     46.8183                 7.6716                55.3934

                     70                     71                     72
                      A                      A                      A
 Frequencies --   1697.7257              1704.6925              1716.5634
 Red. masses --     11.3653                12.3210                 9.1844
 Frc consts  --     19.3003                21.0954                15.9448
 IR Inten    --   1250.5536               210.2114                69.1820

                     73                     74                     75
                      A                      A                      A
 Frequencies --   3029.3803              3037.2764              3083.2452
 Red. masses --      1.0402                 1.0362                 1.0968
 Frc consts  --      5.6245                 5.6323                 6.1434
 IR Inten    --     43.8294                31.0526                23.2953

                     76                     77                     78
                      A                      A                      A
 Frequencies --   3091.2651              3110.6148              3110.7893
 Red. masses --      1.1005                 1.1013                 1.1018
 Frc consts  --      6.1961                 6.2786                 6.2820
 IR Inten    --     18.1238                22.2256                35.7304

                     79                     80                     81
                      A                      A                      A
 Frequencies --   3162.8249              3170.6007              3185.2343
 Red. masses --      1.0863                 1.0909                 1.0879
 Frc consts  --      6.4026                 6.4611                 6.5031
 IR Inten    --      0.0824                29.0623                 2.0747

                     82                     83                     84
                      A                      A                      A
 Frequencies --   3185.6463              3190.8293              3201.2079
 Red. masses --      1.0968                 1.0921                 1.0996
 Frc consts  --      6.5583                 6.5514                 6.6390
 IR Inten    --     32.0019                 1.3053                 1.7401

 - Thermochemistry -
 -------------------
 Temperature   298.150 Kelvin.  Pressure   1.00000 Atm.
 Atom     1 has atomic number  6 and mass  12.00000

 Molecular mass:   240.07864 amu.
 Principal axes and moments of inertia in atomic units:
                           1         2         3
     Eigenvalues --  2117.091766555.574866826.92603
           X            0.97476  -0.20865  -0.07947
           Y            0.19495   0.62183   0.75850
           Z            0.10884   0.75484  -0.64681
 This molecule is an asymmetric top.
 Rotational symmetry number  1.
 Warning -- assumption of classical behavior for rotation
           may cause significant error
 Rotational temperatures (Kelvin)      0.04091     0.01321     0.01269
 Rotational constants (GHZ):           0.85246     0.27530     0.26436
 Zero-point vibrational energy     601733.7 (Joules/Mol)
                                  143.81780 (Kcal/Mol)
 Warning -- explicit consideration of  25 degrees of freedom as
           vibrations may cause significant error
 Vibrational temperatures:     42.93    44.81    79.23   105.85   154.95
          (Kelvin)            183.79   188.11   223.15   257.62   278.72
                              320.11   358.72   372.81   457.24   472.86
                              552.38   587.90   618.18   639.64   676.93
                              753.45   759.86   771.50   788.63   836.06
                              893.93   905.71  1042.62  1070.27  1112.46
                             1130.58  1135.02  1176.51  1190.37  1233.21
                             1314.80  1328.27  1361.85  1382.27  1436.42
                             1457.15  1464.91  1515.14  1517.36  1522.66
                             1536.50  1600.90  1629.71  1709.28  1743.86
                             1795.32  1820.60  1841.47  1853.97  1883.04
                             1939.52  2002.75  2030.41  2037.91  2078.44
                             2124.31  2133.56  2143.57  2152.15  2159.04
                             2315.50  2338.90  2355.55  2396.71  2442.65
                             2452.67  2469.75  4358.60  4369.96  4436.10
                             4447.64  4475.48  4475.73  4550.60  4561.79
                             4582.84  4583.43  4590.89  4605.82

 Zero-point correction=                           0.229188 (Hartree/Particle)
 Thermal correction to Energy=                    0.245515
 Thermal correction to Enthalpy=                  0.246459
 Thermal correction to Gibbs Free Energy=         0.184155
 Sum of electronic and zero-point Energies=           -804.456137
 Sum of electronic and thermal Energies=              -804.439811
 Sum of electronic and thermal Enthalpies=            -804.438866
 Sum of electronic and thermal Free Energies=         -804.501170

                     E (Thermal)             CV                S
                      KCal/Mol        Cal/Mol-Kelvin    Cal/Mol-Kelvin
 Total                  154.063             61.114            131.130
 Electronic               0.000              0.000              0.000
 Translational            0.889              2.981             42.329
 Rotational               0.889              2.981             32.916
 Vibrational            152.286             55.152             55.886
 Vibration     1          0.594              1.984              5.840
 Vibration     2          0.594              1.983              5.755
 Vibration     3          0.596              1.976              4.626
 Vibration     4          0.599              1.966              4.056
 Vibration     5          0.606              1.943              3.310
 Vibration     6          0.611              1.925              2.980
 Vibration     7          0.612              1.923              2.935
 Vibration     8          0.620              1.897              2.609
 Vibration     9          0.629              1.868              2.338
 Vibration    10          0.635              1.849              2.192
 Vibration    11          0.648              1.807              1.939
 Vibration    12          0.662              1.764              1.735
 Vibration    13          0.668              1.747              1.668
 Vibration    14          0.704              1.640              1.321
 Vibration    15          0.712              1.618              1.267
 Vibration    16          0.753              1.504              1.024
 Vibration    17          0.773              1.452              0.932
 Vibration    18          0.791              1.406              0.860
 Vibration    19          0.804              1.373              0.812
 Vibration    20          0.828              1.316              0.736
 Vibration    21          0.879              1.198              0.601
 Vibration    22          0.883              1.188              0.591
 Vibration    23          0.891              1.170              0.573
 Vibration    24          0.903              1.144              0.548
 Vibration    25          0.938              1.072              0.483

                           ! Non-Optimized Parameters !
 Normal termination of Gaussian 16 at Sat Feb 10 11:52:29 2024.
