 Q-Chem 5.4, Q-Chem, Inc., Pleasanton, CA (2021)
 Q-Chem 5.4.0 for Intel X86 EM64T Linux

User input:
--------------------------------------------------------------
$molecule
-2 1
C                 -2.7888400000     -0.8703500000     -0.9810300000
C                 -1.4412210000     -0.4172740000     -0.4628090000
C                 -0.2894430000     -1.1236970000     -0.7697150000
C                  0.9981180000     -0.7330970000     -0.3400440000
C                  2.1666070000     -1.5410150000     -0.7029720000
O                  2.0737660000     -2.6135820000     -1.4054960000
C                  3.3979320000     -1.0301110000     -0.1997170000
C                  3.5068520000      0.1307060000      0.5760560000
C                  2.4003710000      0.9461770000      0.9517880000
O                  2.5100080000      2.0165660000      1.6551880000
C                  1.1100130000      0.4585320000      0.4547950000
C                 -0.0733590000      1.1709780000      0.7498040000
C                 -1.3277440000      0.7779480000      0.3118140000
C                 -2.5622840000      1.5673310000      0.6894810000
H                 -2.7007580000     -1.8156340000     -1.5246580000
H                 -3.5186870000     -1.0167700000     -0.1778800000
H                 -3.2450240000     -0.1365060000     -1.6689250000
H                 -0.3425040000     -2.0246400000     -1.3748690000
H                  4.2935900000     -1.6022100000     -0.4422210000
H                  4.4876810000      0.4583490000      0.9209240000
H                  0.0410850000      2.0639350000      1.3583000000
H                 -3.2610730000      0.9842570000      1.3152090000
H                 -2.2941800000      2.4666370000      1.2518070000
H                 -3.1409100000      1.8834690000     -0.1848320000
$end

$rem
BASIS  =  6-311++G(d,p)
GUI  =  2
JOB_TYPE  =  SP
METHOD  =  B3LYP
SCF_CONVERGENCE  = 8
SOLVENT_METHOD = sm12
$end

$smx
solvent dimethylformamide
charges CM5
$end

--------------------------------------------------------------

             Standard Nuclear Orientation (Angstroms)
    I     Atom           X                Y                Z
 ----------------------------------------------------------------
    1      C      -2.7888400000    -0.8703500000    -0.9810300000
    2      C      -1.4412210000    -0.4172740000    -0.4628090000
    3      C      -0.2894430000    -1.1236970000    -0.7697150000
    4      C       0.9981180000    -0.7330970000    -0.3400440000
    5      C       2.1666070000    -1.5410150000    -0.7029720000
    6      O       2.0737660000    -2.6135820000    -1.4054960000
    7      C       3.3979320000    -1.0301110000    -0.1997170000
    8      C       3.5068520000     0.1307060000     0.5760560000
    9      C       2.4003710000     0.9461770000     0.9517880000
   10      O       2.5100080000     2.0165660000     1.6551880000
   11      C       1.1100130000     0.4585320000     0.4547950000
   12      C      -0.0733590000     1.1709780000     0.7498040000
   13      C      -1.3277440000     0.7779480000     0.3118140000
   14      C      -2.5622840000     1.5673310000     0.6894810000
   15      H      -2.7007580000    -1.8156340000    -1.5246580000
   16      H      -3.5186870000    -1.0167700000    -0.1778800000
   17      H      -3.2450240000    -0.1365060000    -1.6689250000
   18      H      -0.3425040000    -2.0246400000    -1.3748690000
   19      H       4.2935900000    -1.6022100000    -0.4422210000
   20      H       4.4876810000     0.4583490000     0.9209240000
   21      H       0.0410850000     2.0639350000     1.3583000000
   22      H      -3.2610730000     0.9842570000     1.3152090000
   23      H      -2.2941800000     2.4666370000     1.2518070000
   24      H      -3.1409100000     1.8834690000    -0.1848320000
 ----------------------------------------------------------------

   21    -613.8630626400      8.55e-09  Convergence criterion met
 Total energy in the final basis set =     -614.1722325436

                    Orbital Energies (a.u.)
 --------------------------------------------------------------

 Alpha MOs
 -- Occupied --
-19.0261 -19.0260 -10.1856 -10.1856 -10.1793 -10.1789 -10.1783 -10.1783
-10.1661 -10.1660 -10.1567 -10.1563 -10.1410 -10.1405  -0.9435  -0.9407
 -0.8550  -0.7926  -0.7651  -0.7492  -0.7040  -0.6768  -0.6457  -0.5995
 -0.5800  -0.5463  -0.4842  -0.4797  -0.4569  -0.4386  -0.4292  -0.4262
 -0.4117  -0.4043  -0.3927  -0.3839  -0.3825  -0.3808  -0.3634  -0.3573
 -0.3310  -0.3271  -0.3211  -0.3211  -0.2448  -0.2347  -0.2302  -0.2033
 -0.2008  -0.1217

          Ground-State Mulliken Net Atomic Charges

     Atom                 Charge (a.u.)
  ----------------------------------------
      1 C                     2.281763
      2 C                     3.069264
      3 C                    -1.738048
      4 C                    -2.896269
      5 C                    -1.297579
      6 O                    -0.354050
      7 C                    -0.975594
      8 C                    -0.981775
      9 C                    -1.286254
     10 O                    -0.354983
     11 C                    -2.908113
     12 C                    -1.746174
     13 C                     3.062217
     14 C                     2.284020
     15 H                     0.424937
     16 H                     0.309226
     17 H                     0.290334
     18 H                    -0.104788
     19 H                     0.001698
     20 H                     0.001380
     21 H                    -0.104394
     22 H                     0.289920
     23 H                     0.424444
     24 H                     0.308819
  ----------------------------------------
  Sum of atomic charges =    -2.000000

                    Cartesian Multipole Moments
 -----------------------------------------------------------------
    Charge (ESU x 10^10)
                -9.6064
    Dipole Moment (Debye)
         X     -21.1464      Y       2.7531      Z      -1.1541
       Tot      21.3561
    Quadrupole Moments (Debye-Ang)
        XX    -153.4058     XY       3.9764     YY    -133.9344
        XZ      -5.4678     YZ     -24.2877     ZZ    -111.9217

 Total job time:  606.76s(wall), 4127.39s(cpu)
        *  Thank you very much for using Q-Chem.  Have a nice day.  *
