 Gaussian 16, Revision A.03,
 Gaussian 16:  ES64L-G16RevA.03 25-Dec-2016

 ----------------------------------------------------------------
 #P UB3LYP/6-311++G(d,p) SCRF=(PCM,Solvent=n,n-DiMethylFormamide)
 ----------------------------------------------------------------

 ------------------
 Quinone PCM in DMF
 ------------------
 Symbolic Z-matrix:
 Charge =  0 Multiplicity = 1

                         Standard orientation:
 ---------------------------------------------------------------------
 Center     Atomic      Atomic             Coordinates (Angstroms)
 Number     Number       Type             X           Y           Z
 ---------------------------------------------------------------------
      1          6           0        4.416593    1.462209    0.579747
      2          6           0        4.411253    2.762594    0.086146
      3          6           0        3.370848    3.195807   -0.739845
      4          6           0        3.375667    0.588966    0.254234
      5          6           0        2.334163    1.023012   -0.575617
      6          6           0        2.336769    2.327897   -1.074809
      7          6           0        3.378755   -0.799100    0.792744
      8          6           0        2.203521   -1.682257    0.515510
      9          6           0        1.182424   -1.241319   -0.269451
     10          6           0        1.236008    0.091637   -0.962468
     11          8           0        4.305530   -1.205657    1.477381
     12          8           0        0.433564    0.393128   -1.824792
     13          1           0        5.215277    1.103909    1.217271
     14          1           0        5.217735    3.440439    0.341730
     15          1           0        3.370410    4.209497   -1.124059
     16          1           0        1.525875    2.639949   -1.721104
     17          6           0        2.250188   -3.041409    1.148682
     18         16           0       -0.163434   -2.330410   -0.681698
     19          6           0       -1.615490   -1.276125   -0.553893
     20          6           0       -1.924246   -0.635506    0.624037
     21          6           0       -3.104472    0.143900    0.734708
     22          6           0       -3.989319    0.227383   -0.386133
     23          6           0       -3.647334   -0.465452   -1.577150
     24          6           0       -2.487650   -1.193412   -1.667321
     25          6           0       -3.444084    0.830645    1.930506
     26          6           0       -4.600811    1.568166    2.012686
     27          6           0       -5.474302    1.653722    0.902663
     28          6           0       -5.174852    0.997851   -0.267809
     29          1           0        2.739409   -3.759565    0.480683
     30          1           0        1.244623   -3.413619    1.348166
     31          1           0        2.837968   -3.010644    2.065444
     32          1           0       -1.269217   -0.721165    1.484068
     33          1           0       -4.312450   -0.399278   -2.431787
     34          1           0       -2.218775   -1.692125   -2.590107
     35          1           0       -2.773990    0.764094    2.781315
     36          1           0       -4.848947    2.088768    2.930744
     37          1           0       -6.383317    2.239381    0.980465
     38          1           0       -5.844166    1.061901   -1.119392
 ---------------------------------------------------------------------

 SCF Done:  E(UB3LYP) =  -1357.59423507     A.U. after   16 cycles

 The electronic state is 1-A.
 Alpha  occ. eigenvalues --  -88.87440 -19.13801 -19.13633 -10.29108 -10.28562
 Alpha  occ. eigenvalues --  -10.24041 -10.22387 -10.22135 -10.21056 -10.20958
 Alpha  occ. eigenvalues --  -10.20027 -10.19999 -10.19958 -10.19927 -10.19869
 Alpha  occ. eigenvalues --  -10.19709 -10.19197 -10.19002 -10.18853 -10.18601
 Alpha  occ. eigenvalues --  -10.18562 -10.18500 -10.18457 -10.17633  -7.96039
 Alpha  occ. eigenvalues --   -5.92430  -5.92029  -5.91447  -1.07468  -1.06969
 Alpha  occ. eigenvalues --   -0.89533  -0.89292  -0.86558  -0.84260  -0.79969
 Alpha  occ. eigenvalues --   -0.78902  -0.78072  -0.77797  -0.74807  -0.73323
 Alpha  occ. eigenvalues --   -0.70772  -0.68345  -0.64790  -0.63577  -0.62466
 Alpha  occ. eigenvalues --   -0.61125  -0.60792  -0.58895  -0.55449  -0.52842
 Alpha  occ. eigenvalues --   -0.52607  -0.51856  -0.50681  -0.49629  -0.47542
 Alpha  occ. eigenvalues --   -0.46643  -0.46487  -0.46099  -0.45728  -0.45392
 Alpha  occ. eigenvalues --   -0.45254  -0.43712  -0.43150  -0.43102  -0.42272
 Alpha  occ. eigenvalues --   -0.41745  -0.41455  -0.40730  -0.40111  -0.39250
 Alpha  occ. eigenvalues --   -0.38376  -0.38037  -0.37242  -0.37031  -0.35158
 Alpha  occ. eigenvalues --   -0.34623  -0.34472  -0.31138  -0.30303  -0.29422
 Alpha  occ. eigenvalues --   -0.28629  -0.28269  -0.28054  -0.26443  -0.24754
 Alpha  occ. eigenvalues --   -0.22946
 Alpha virt. eigenvalues --   -0.12748  -0.06296  -0.05916  -0.04074  -0.03165
 Alpha virt. eigenvalues --   -0.00945  -0.00438  -0.00156   0.00246   0.00628
 Alpha virt. eigenvalues --    0.01158   0.01474   0.01885   0.02183   0.02471

  Beta  occ. eigenvalues --  -88.87440 -19.13801 -19.13633 -10.29108 -10.28562
  Beta  occ. eigenvalues --  -10.24041 -10.22387 -10.22135 -10.21056 -10.20958
  Beta  occ. eigenvalues --  -10.20027 -10.19999 -10.19958 -10.19927 -10.19869
  Beta  occ. eigenvalues --  -10.19709 -10.19197 -10.19002 -10.18853 -10.18601
  Beta  occ. eigenvalues --  -10.18562 -10.18500 -10.18457 -10.17633  -7.96039
  Beta  occ. eigenvalues --   -5.92430  -5.92029  -5.91447  -1.07468  -1.06969
  Beta  occ. eigenvalues --   -0.89533  -0.89292  -0.86558  -0.84260  -0.79969
  Beta  occ. eigenvalues --   -0.78902  -0.78072  -0.77797  -0.74807  -0.73323
  Beta  occ. eigenvalues --   -0.70772  -0.68345  -0.64790  -0.63577  -0.62466
  Beta  occ. eigenvalues --   -0.61125  -0.60792  -0.58895  -0.55449  -0.52842
  Beta  occ. eigenvalues --   -0.52607  -0.51856  -0.50681  -0.49629  -0.47542
  Beta  occ. eigenvalues --   -0.46643  -0.46487  -0.46099  -0.45728  -0.45392
  Beta  occ. eigenvalues --   -0.45254  -0.43712  -0.43150  -0.43102  -0.42272
  Beta  occ. eigenvalues --   -0.41745  -0.41455  -0.40730  -0.40111  -0.39250
  Beta  occ. eigenvalues --   -0.38376  -0.38037  -0.37242  -0.37031  -0.35158
  Beta  occ. eigenvalues --   -0.34623  -0.34472  -0.31138  -0.30303  -0.29422
  Beta  occ. eigenvalues --   -0.28629  -0.28269  -0.28054  -0.26443  -0.24754
  Beta  occ. eigenvalues --   -0.22946
  Beta virt. eigenvalues --   -0.12748  -0.06296  -0.05916  -0.04074  -0.03165
  Beta virt. eigenvalues --   -0.00945  -0.00438  -0.00156   0.00246   0.00628
  Beta virt. eigenvalues --    0.01158   0.01474   0.01885   0.02183   0.02471

 Mulliken charges and spin densities:
               1          2
     1  C    0.019040  -0.000000
     2  C   -0.486082   0.000000
     3  C   -0.469735  -0.000000
     4  C    0.524821   0.000000
     5  C    0.197771  -0.000000
     6  C   -0.004741   0.000000
     7  C   -0.630920  -0.000000
     8  C    0.602197  -0.000000
     9  C    0.689141   0.000000
    10  C   -0.793097   0.000000
    11  O   -0.266511  -0.000000
    12  O   -0.183051  -0.000000
    13  H    0.191935  -0.000000
    14  H    0.209838  -0.000000
    15  H    0.208429  -0.000000
    16  H    0.204666   0.000000
    17  C   -0.370598  -0.000000
    18  S   -0.449622   0.000000
    19  C    0.931277  -0.000000
    20  C   -0.485467   0.000000
    21  C   -0.175872  -0.000000
    22  C    0.123614  -0.000000
    23  C   -0.064229   0.000000
    24  C   -0.216638   0.000000
    25  C   -0.292154  -0.000000
    26  C   -0.315749   0.000000
    27  C   -0.305588  -0.000000
    28  C   -0.301339   0.000000
    29  H    0.227209   0.000000
    30  H    0.170440  -0.000000
    31  H    0.175933   0.000000
    32  H    0.217395   0.000000
    33  H    0.190481  -0.000000
    34  H    0.210673   0.000000
    35  H    0.165891   0.000000
    36  H    0.196038  -0.000000
    37  H    0.194320  -0.000000
    38  H    0.160283  -0.000000
 Sum of Mulliken charges =  -0.00000  -0.00000

 Dipole moment (field-independent basis, Debye):
    X=             -0.8719    Y=              2.9990    Z=              0.8947  Tot=              3.2488
 Quadrupole moment (field-independent basis, Debye-Ang):
   XX=           -136.4750   YY=           -134.9017   ZZ=           -145.2563
   XY=              7.6527   XZ=             -3.7796   YZ=              2.8450

 Normal termination of Gaussian 16 at Thu Jan 25 05:50:56 2024.
