 Gaussian 16, Revision A.03,
 Gaussian 16:  ES64L-G16RevA.03 25-Dec-2016

 ----------------------------------------------------------------
 #P UB3LYP/6-311++G(d,p) SCRF=(PCM,Solvent=n,n-DiMethylFormamide)
 ----------------------------------------------------------------

 -------
 Reduced
 -------
 Symbolic Z-matrix:
 Charge = -2 Multiplicity = 1

                         Standard orientation:
 ---------------------------------------------------------------------
 Center     Atomic      Atomic             Coordinates (Angstroms)
 Number     Number       Type             X           Y           Z
 ---------------------------------------------------------------------
      1          6           0      -17.524402    2.270412   -0.387521
      2          6           0      -16.811833    1.082200    0.021306
      3          6           0      -17.262165   -0.187954   -0.225280
      4          6           0      -18.520625   -0.404569   -0.926981
      5          6           0      -19.251613    0.784666   -1.350188
      6          6           0      -18.782245    2.057523   -1.096012
      7          8           0      -17.074121    3.429017   -0.139361
      8          8           0      -18.953063   -1.575853   -1.152173
      9          6           0      -19.544597    3.282555   -1.536528
     10          6           0      -20.552825    0.563067   -2.082918
     11          1           0      -15.877703    1.247824    0.550437
     12          1           0      -19.676473    3.310622   -2.626015
     13          1           0      -18.998173    4.174737   -1.228049
     14          1           0      -20.550422    3.316433   -1.098116
     15          1           0      -20.731987   -0.507690   -2.185298
     16          1           0      -20.537636    1.015374   -3.082867
     17          1           0      -21.400973    1.011377   -1.549227
     18          6           0      -16.518406   -1.431620    0.232717
     19          6           0      -15.034339   -1.263384    0.380558
     20          6           0      -14.268089   -1.403595    1.472049
     21          6           0      -12.768102   -1.195648    1.388893
     22          6           0      -12.273455    0.117093    2.049233
     23          6           0      -10.774257    0.227634    2.064987
     24          6           0       -9.985116    1.108281    1.432498
     25          6           0       -8.479039    1.034308    1.591003
     26          6           0       -7.713304    0.637742    0.303583
     27          6           0       -6.234713    0.498421    0.541986
     28          6           0       -5.224990    1.207266    0.016531
     29          6           0       -3.792498    0.904897    0.409277
     30          6           0      -14.794075   -1.769101    2.839785
     31          6           0      -10.490986    2.225525    0.552170
     32          6           0       -5.402080    2.336877   -0.969992
     33          6           0       -2.922059    0.326762   -0.734317
     34          6           0       -1.489537    0.128662   -0.320153
     35          6           0       -0.780618   -1.007513   -0.254513
     36          6           0        0.668324   -0.980223    0.188568
     37          6           0        1.681673   -1.377026   -0.914357
     38          6           0        3.109571   -1.220947   -0.466768
     39          6           0        4.051551   -2.164167   -0.319985
     40          6           0        5.445096   -1.788280    0.141393
     41          6           0        6.554536   -2.033284   -0.912031
     42          6           0        7.903261   -1.549429   -0.453453
     43          6           0        9.012933   -2.263508   -0.213850
     44          6           0       10.283787   -1.573346    0.238535
     45          6           0       11.457342   -1.672173   -0.768068
     46          6           0       12.662947   -0.886740   -0.328824
     47          6           0       13.886858   -1.335110   -0.013037
     48          6           0       -1.327238   -2.372670   -0.597752
     49          6           0        3.831113   -3.635932   -0.577599
     50          6           0        9.105914   -3.764878   -0.351017
     51          6           0       14.290097   -2.790735   -0.025370
     52          6           0       14.974065   -0.364159    0.400776
     53          6           0       16.171412   -0.289793   -0.579501
     54          6           0       17.171266    0.764576   -0.190216
     55          6           0       18.456780    0.614298    0.161756
     56          6           0       19.165949   -0.716155    0.253630
     57          6           0       19.298277    1.823875    0.514022
     58          6           0       20.477411    2.088384   -0.455774
     59          6           0       21.208063    3.362516   -0.132047
     60          6           0       22.484530    3.526683    0.241489
     61          6           0       23.487733    2.413406    0.413990
     62          6           0       23.032501    4.902518    0.536888
     63          1           0      -16.724692   -2.211945   -0.509596
     64          1           0      -16.973646   -1.803004    1.157809
     65          1           0      -14.525819   -0.986218   -0.543244
     66          1           0      -12.454888   -1.193074    0.340530
     67          1           0      -12.251986   -2.040814    1.867512
     68          1           0      -12.633332    0.150428    3.084993
     69          1           0      -12.738950    0.960728    1.536357
     70          1           0      -10.275939   -0.529346    2.672789
     71          1           0       -8.232750    0.315846    2.379734
     72          1           0       -8.098094    2.008461    1.926318
     73          1           0       -7.919063    1.359225   -0.489194
     74          1           0       -8.112486   -0.323763   -0.044092
     75          1           0       -5.968499   -0.281160    1.256595
     76          1           0       -3.782144    0.198895    1.244800
     77          1           0       -3.316101    1.826165    0.772796
     78          1           0      -15.878846   -1.869232    2.855819
     79          1           0      -14.522192   -1.014853    3.587260
     80          1           0      -14.360967   -2.719003    3.180704
     81          1           0      -11.577819    2.290090    0.528923
     82          1           0      -10.147612    2.103647   -0.481175
     83          1           0      -10.103727    3.191336    0.899025
     84          1           0       -6.446359    2.610374   -1.118255
     85          1           0       -4.985848    2.080297   -1.950540
     86          1           0       -4.866170    3.229687   -0.626813
     87          1           0       -2.944426    1.019696   -1.584832
     88          1           0       -3.373484   -0.603622   -1.086472
     89          1           0       -0.977130    1.046916   -0.030945
     90          1           0        0.804380   -1.663304    1.037471
     91          1           0        0.917491    0.021977    0.551997
     92          1           0        1.507289   -0.728054   -1.783114
     93          1           0        1.485647   -2.397109   -1.250004
     94          1           0        3.396249   -0.195674   -0.230747
     95          1           0        5.698318   -2.363501    1.041905
     96          1           0        5.459447   -0.732372    0.430880
     97          1           0        6.275556   -1.496031   -1.828519
     98          1           0        6.587997   -3.091790   -1.176345
     99          1           0        7.965692   -0.471947   -0.297822
    100          1           0       10.615466   -2.008222    1.190855
    101          1           0       10.073620   -0.516541    0.433932
    102          1           0       11.108923   -1.280721   -1.733381
    103          1           0       11.713019   -2.719658   -0.937550
    104          1           0       12.498546    0.189165   -0.261133
    105          1           0       -2.405177   -2.371207   -0.759305
    106          1           0       -1.107884   -3.083495    0.207522
    107          1           0       -0.857278   -2.773579   -1.502903
    108          1           0        2.783613   -3.888818   -0.745069
    109          1           0        4.187055   -4.228843    0.273655
    110          1           0        4.397257   -3.978105   -1.451417
    111          1           0        8.137399   -4.241662   -0.506310
    112          1           0        9.552646   -4.202764    0.550058
    113          1           0        9.752656   -4.051465   -1.188285
    114          1           0       13.445602   -3.467683   -0.159286
    115          1           0       14.785305   -3.056609    0.916546
    116          1           0       15.010807   -2.999901   -0.824297
    117          1           0       15.360690   -0.648366    1.388578
    118          1           0       14.544331    0.637169    0.509799
    119          1           0       15.776633   -0.056169   -1.577719
    120          1           0       16.646431   -1.269164   -0.660204
    121          1           0       16.777882    1.781677   -0.199560
    122          1           0       18.491319   -1.568239    0.161558
    123          1           0       19.687556   -0.804693    1.214601
    124          1           0       19.932350   -0.816134   -0.523696
    125          1           0       19.711050    1.699842    1.524138
    126          1           0       18.659738    2.713127    0.544330
    127          1           0       20.070566    2.156022   -1.473834
    128          1           0       21.157804    1.235157   -0.451704
    129          1           0       20.597367    4.262685   -0.207454
    130          1           0       23.080958    1.421716    0.211971
    131          1           0       23.884532    2.410251    1.437695
    132          1           0       24.348804    2.565837   -0.249665
    133          1           0       22.278046    5.681881    0.398953
    134          1           0       23.886452    5.133279   -0.112469
    135          1           0       23.402936    4.963042    1.568522
 ---------------------------------------------------------------------

 SCF Done:  E(UB3LYP) =  -2218.99366577     A.U. after   25 cycles

 Alpha virt. eigenvalues --    0.24103   0.24230   0.24339   0.24448   0.24510
 Alpha virt. eigenvalues --    0.24549   0.24750   0.24987   0.25035   0.25070
 Alpha virt. eigenvalues --    0.25175   0.25196   0.25295   0.25381   0.25515

  Beta  occ. eigenvalues --  -18.99885 -18.99856 -10.17700 -10.17524 -10.17519
  Beta  occ. eigenvalues --  -10.17504 -10.17475 -10.17400 -10.17380 -10.17159
  Beta  occ. eigenvalues --  -10.16766 -10.16757 -10.16753 -10.16735 -10.16714
  Beta  occ. eigenvalues --  -10.16708 -10.16708 -10.16703 -10.16682 -10.16681
  Beta  occ. eigenvalues --  -10.16643 -10.16616 -10.16568 -10.16492 -10.16217
  Beta  occ. eigenvalues --  -10.16197 -10.16147 -10.16135 -10.16122 -10.16092
  Beta  occ. eigenvalues --  -10.16092 -10.16083 -10.16075 -10.16065 -10.16058
  Beta  occ. eigenvalues --  -10.16040 -10.16033 -10.16016 -10.16007 -10.15996
  Beta  occ. eigenvalues --  -10.15974 -10.15930 -10.15764 -10.15745 -10.15310
  Beta  occ. eigenvalues --  -10.14846 -10.14719 -10.14695 -10.13959 -10.12770
  Beta  occ. eigenvalues --  -10.12766 -10.11064 -10.10924 -10.10744 -10.09801
  Beta  occ. eigenvalues --   -0.92776  -0.92479  -0.83187  -0.82997  -0.82732
  Beta  occ. eigenvalues --   -0.82385  -0.81974  -0.81505  -0.81000  -0.80539
  Beta  occ. eigenvalues --   -0.80264  -0.77749  -0.77446  -0.76921  -0.76173
  Beta  occ. eigenvalues --   -0.75407  -0.74630  -0.73831  -0.73071  -0.72443
  Beta  occ. eigenvalues --   -0.72048  -0.69332  -0.69151  -0.68780  -0.68726
  Beta  occ. eigenvalues --   -0.68643  -0.68621  -0.68473  -0.68256  -0.67907
  Beta  occ. eigenvalues --   -0.67388  -0.66851  -0.65055  -0.64259  -0.63189
  Beta  occ. eigenvalues --   -0.62109  -0.61495  -0.60950  -0.60030  -0.59227
  Beta  occ. eigenvalues --   -0.58598  -0.58177  -0.57715  -0.52583  -0.52432
  Beta  occ. eigenvalues --   -0.52239  -0.52042  -0.51787  -0.51666  -0.51304
  Beta  occ. eigenvalues --   -0.51018  -0.50834  -0.49838  -0.49192  -0.48158
  Beta  occ. eigenvalues --   -0.47951  -0.47616  -0.47320  -0.47047  -0.46929
  Beta  occ. eigenvalues --   -0.46756  -0.46666  -0.45771  -0.44971  -0.44863
  Beta  occ. eigenvalues --   -0.44583  -0.44459  -0.44331  -0.43777  -0.43631
  Beta  occ. eigenvalues --   -0.43388  -0.43089  -0.42911  -0.42309  -0.42039
  Beta  occ. eigenvalues --   -0.41953  -0.41722  -0.41461  -0.41158  -0.40877
  Beta  occ. eigenvalues --   -0.40805  -0.40687  -0.40442  -0.40281  -0.39991
  Beta  occ. eigenvalues --   -0.39941  -0.39699  -0.39559  -0.39421  -0.39110
  Beta  occ. eigenvalues --   -0.39014  -0.38652  -0.38395  -0.37694  -0.37450
  Beta  occ. eigenvalues --   -0.37403  -0.37338  -0.37297  -0.37233  -0.37172
  Beta  occ. eigenvalues --   -0.37110  -0.37017  -0.36979  -0.36923  -0.36731
  Beta  occ. eigenvalues --   -0.36688  -0.36670  -0.36545  -0.36507  -0.36384
  Beta  occ. eigenvalues --   -0.36239  -0.36172  -0.35833  -0.35613  -0.35560
  Beta  occ. eigenvalues --   -0.35063  -0.34654  -0.34529  -0.34415  -0.34138
  Beta  occ. eigenvalues --   -0.33906  -0.33727  -0.33507  -0.33291  -0.33157
  Beta  occ. eigenvalues --   -0.33056  -0.33021  -0.32870  -0.32637  -0.32464
  Beta  occ. eigenvalues --   -0.32263  -0.32005  -0.31722  -0.31327  -0.30988
  Beta  occ. eigenvalues --   -0.30732  -0.29929  -0.29530  -0.28965  -0.25131
  Beta  occ. eigenvalues --   -0.24846  -0.24419  -0.24033  -0.23736  -0.23373
  Beta  occ. eigenvalues --   -0.23086  -0.22885  -0.22285  -0.20876  -0.18809
  Beta  occ. eigenvalues --   -0.18329  -0.17334  -0.09039
  Beta virt. eigenvalues --   -0.01106  -0.00895  -0.00642  -0.00338  -0.00075
  Beta virt. eigenvalues --    0.00251   0.00364   0.00434   0.00560   0.00588
  Beta virt. eigenvalues --    0.00652   0.00691   0.00728   0.00761   0.00819

 Mulliken charges and spin densities:
               1          2
     1  C   -1.032224  -0.000000
     2  C   -0.683089   0.000000
     3  C    0.823282  -0.000000
     4  C   -0.912620  -0.000000
     5  C    0.222812  -0.000000
     6  C    0.795366   0.000000
     7  O   -0.704858   0.000000
     8  O   -0.683257   0.000000
     9  C   -0.471039  -0.000000
    10  C   -0.469061   0.000000
    11  H    0.097327   0.000000
    12  H    0.120978  -0.000000
    13  H    0.166240   0.000000
    14  H    0.120701  -0.000000
    15  H    0.172745   0.000000
    16  H    0.119986  -0.000000
    17  H    0.121602  -0.000000
    18  C   -0.143464   0.000000
    19  C   -0.297269  -0.000000
    20  C    0.633131  -0.000000
    21  C   -0.709296   0.000000
    22  C   -0.171904  -0.000000
    23  C   -0.225007   0.000000
    24  C    0.602294   0.000000
    25  C   -0.653395   0.000000
    26  C   -0.378755  -0.000000
    27  C   -0.384810  -0.000000
    28  C    0.919101  -0.000000
    29  C   -0.643507   0.000000
    30  C   -0.628874  -0.000000
    31  C   -0.760792   0.000000
    32  C   -0.725080   0.000000
    33  C   -0.312706  -0.000000
    34  C   -0.345003   0.000000
    35  C    0.823729  -0.000000
    36  C   -0.725820  -0.000000
    37  C   -0.381447   0.000000
    38  C   -0.301813   0.000000
    39  C    0.975362   0.000000
    40  C   -0.834151  -0.000000
    41  C   -0.388967   0.000000
    42  C   -0.279417  -0.000000
    43  C    0.966288  -0.000000
    44  C   -0.827675   0.000000
    45  C   -0.404823  -0.000000
    46  C   -0.228797   0.000000
    47  C    0.956165   0.000000
    48  C   -0.716054  -0.000000
    49  C   -0.752249  -0.000000
    50  C   -0.753380   0.000000
    51  C   -0.751884  -0.000000
    52  C   -0.847296  -0.000000
    53  C   -0.422714   0.000000
    54  C   -0.076849  -0.000000
    55  C    0.909538   0.000000
    56  C   -0.789255   0.000000
    57  C   -0.941535   0.000000
    58  C   -0.258827   0.000000
    59  C   -0.101100  -0.000000
    60  C    0.450663   0.000000
    61  C   -0.679500  -0.000000
    62  C   -0.629689  -0.000000
    63  H    0.177209  -0.000000
    64  H    0.116694   0.000000
    65  H    0.147678   0.000000
    66  H    0.187048   0.000000
    67  H    0.130264   0.000000
    68  H    0.126137   0.000000
    69  H    0.162813  -0.000000
    70  H    0.195386  -0.000000
    71  H    0.151733   0.000000
    72  H    0.164667   0.000000
    73  H    0.114398  -0.000000
    74  H    0.176580   0.000000
    75  H    0.174106  -0.000000
    76  H    0.157523   0.000000
    77  H    0.157086   0.000000
    78  H    0.131075   0.000000
    79  H    0.161486   0.000000
    80  H    0.155814   0.000000
    81  H    0.120905   0.000000
    82  H    0.168305  -0.000000
    83  H    0.155545  -0.000000
    84  H    0.133334   0.000000
    85  H    0.171846  -0.000000
    86  H    0.163557  -0.000000
    87  H    0.144242   0.000000
    88  H    0.137034  -0.000000
    89  H    0.196742  -0.000000
    90  H    0.180174  -0.000000
    91  H    0.145971  -0.000000
    92  H    0.179029  -0.000000
    93  H    0.127801   0.000000
    94  H    0.179785   0.000000
    95  H    0.180960   0.000000
    96  H    0.143190  -0.000000
    97  H    0.182035   0.000000
    98  H    0.134981   0.000000
    99  H    0.181917  -0.000000
   100  H    0.181213  -0.000000
   101  H    0.143827   0.000000
   102  H    0.182366  -0.000000
   103  H    0.135603  -0.000000
   104  H    0.183521   0.000000
   105  H    0.127468  -0.000000
   106  H    0.156545   0.000000
   107  H    0.171498  -0.000000
   108  H    0.128209   0.000000
   109  H    0.158798   0.000000
   110  H    0.170683   0.000000
   111  H    0.128453  -0.000000
   112  H    0.158980  -0.000000
   113  H    0.171219   0.000000
   114  H    0.126733   0.000000
   115  H    0.158932  -0.000000
   116  H    0.171569   0.000000
   117  H    0.181922   0.000000
   118  H    0.144028  -0.000000
   119  H    0.180918   0.000000
   120  H    0.138460  -0.000000
   121  H    0.186896   0.000000
   122  H    0.121873   0.000000
   123  H    0.161836  -0.000000
   124  H    0.174197   0.000000
   125  H    0.181219  -0.000000
   126  H    0.142217   0.000000
   127  H    0.174697   0.000000
   128  H    0.120754  -0.000000
   129  H    0.164589  -0.000000
   130  H    0.135565  -0.000000
   131  H    0.152041   0.000000
   132  H    0.146984  -0.000000
   133  H    0.157627   0.000000
   134  H    0.144636   0.000000
   135  H    0.150810   0.000000
 Sum of Mulliken charges =  -2.00000  -0.00000

 Dipole moment (field-independent basis, Debye):
    X=            173.2753    Y=            -10.3238    Z=              5.5438  Tot=            173.6711
 Quadrupole moment (field-independent basis, Debye-Ang):
   XX=          -3415.9839   YY=           -408.3559   ZZ=           -371.8120
   XY=            127.7136   XZ=           -105.5036   YZ=             -4.8755

 Normal termination of Gaussian 16 at Tue Jan 23 23:52:42 2024.
