 Gaussian 16, Revision A.03,
 Gaussian 16:  ES64L-G16RevA.03 25-Dec-2016

 --------------------------------------
 #P UB3LYP/6-311++G(d,p) nosym opt freq
 --------------------------------------

 -------
 Radical
 -------
 Symbolic Z-matrix:
 Charge = -1 Multiplicity = 2

 SCF Done:  E(UB3LYP) =  -706.258644366     A.U. after   21 cycles
 SCF Done:  E(UB3LYP) =  -706.266509814     A.U. after   18 cycles
 SCF Done:  E(UB3LYP) =  -706.267252006     A.U. after   17 cycles
 SCF Done:  E(UB3LYP) =  -706.267309203     A.U. after   16 cycles
 SCF Done:  E(UB3LYP) =  -706.267318812     A.U. after   14 cycles
 SCF Done:  E(UB3LYP) =  -706.267320026     A.U. after   12 cycles
 SCF Done:  E(UB3LYP) =  -706.267320337     A.U. after   12 cycles
 SCF Done:  E(UB3LYP) =  -706.267320825     A.U. after   11 cycles
 Optimization completed.
    -- Stationary point found.
 Normal termination of Gaussian 16 at Tue Dec 26 20:47:21 2023.

 ----------------------------------------------------------------------
 #P Geom=AllCheck Guess=TCheck SCRF=Check GenChk UB3LYP/6-311++G(d,p) F
 req
 ----------------------------------------------------------------------

 Structure from the checkpoint file:  "228-rad.chk"
 -------
 Radical
 -------
 Charge = -1 Multiplicity = 2

                          Input orientation:
 ---------------------------------------------------------------------
 Center     Atomic      Atomic             Coordinates (Angstroms)
 Number     Number       Type             X           Y           Z
 ---------------------------------------------------------------------
      1          6           0        5.779674   -5.133033    1.235203
      2          6           0        6.783579   -5.045671    0.296934
      3          6           0        6.685502   -4.088958   -0.750529
      4          6           0        4.648364   -4.290115    1.181541
      5          6           0        4.551446   -3.334281    0.134268
      6          6           0        5.575695   -3.249141   -0.818278
      7          6           0        3.600365   -4.410755    2.195528
      8          6           0        2.462933   -3.507988    2.076084
      9          6           0        2.368325   -2.576051    1.055284
     10          6           0        3.393364   -2.434969    0.036385
     11          8           0        3.691689   -5.261351    3.123092
     12          8           0        3.297386   -1.585784   -0.885237
     13          6           0        7.724415   -3.996316   -1.724298
     14          7           0        8.578376   -3.935861   -2.506213
     15          1           0        5.828380   -5.852619    2.043880
     16          1           0        7.649232   -5.696445    0.344795
     17          1           0        5.477562   -2.512187   -1.606300
     18          6           0        1.392269   -3.649579    3.133605
     19          6           0        1.199546   -1.633300    0.915156
     20          1           0        1.680154   -4.440812    3.825505
     21          1           0        0.420144   -3.905199    2.696529
     22          1           0        1.256663   -2.722059    3.701748
     23          1           0        0.453460   -1.771966    1.697494
     24          1           0        0.717481   -1.764340   -0.059551
     25          1           0        1.542695   -0.593350    0.935134
 ---------------------------------------------------------------------

 SCF Done:  E(UB3LYP) =  -706.267320825     A.U. after    1 cycles

 Alpha  occ. eigenvalues --  -18.95685 -18.95552 -14.20532 -10.10583 -10.10480
 Alpha  occ. eigenvalues --  -10.10276 -10.10070 -10.07874 -10.07676 -10.06661
 Alpha  occ. eigenvalues --  -10.06496 -10.06407 -10.06098 -10.05823 -10.05242
 Alpha  occ. eigenvalues --  -10.05102  -0.88321  -0.87927  -0.80665  -0.75803
 Alpha  occ. eigenvalues --   -0.70974  -0.66692  -0.65144  -0.61874  -0.57858
 Alpha  occ. eigenvalues --   -0.55457  -0.51191  -0.49177  -0.45281  -0.42557
 Alpha  occ. eigenvalues --   -0.39956  -0.36619  -0.35795  -0.32641  -0.32408
 Alpha  occ. eigenvalues --   -0.31412  -0.30720  -0.29785  -0.29498  -0.28512
 Alpha  occ. eigenvalues --   -0.27939  -0.27730  -0.26940  -0.26610  -0.26030
 Alpha  occ. eigenvalues --   -0.25067  -0.23718  -0.23568  -0.22482  -0.22378
 Alpha  occ. eigenvalues --   -0.15617  -0.15200  -0.13353  -0.12611  -0.11650
 Alpha  occ. eigenvalues --   -0.03488
 Alpha virt. eigenvalues --    0.05734   0.07994   0.08157   0.08944   0.10147
 Alpha virt. eigenvalues --    0.11183   0.11285   0.11697   0.13241   0.13366
 Alpha virt. eigenvalues --    0.13731   0.13851   0.14641   0.14760   0.15660

  Beta  occ. eigenvalues --  -18.95087 -18.94854 -14.20489 -10.10594 -10.10375
  Beta  occ. eigenvalues --  -10.10152 -10.10009 -10.07799 -10.07715 -10.06679
  Beta  occ. eigenvalues --  -10.06373 -10.06318 -10.06008 -10.05694 -10.05252
  Beta  occ. eigenvalues --  -10.05111  -0.87285  -0.86734  -0.80598  -0.75606
  Beta  occ. eigenvalues --   -0.70550  -0.66468  -0.64978  -0.61617  -0.57657
  Beta  occ. eigenvalues --   -0.54906  -0.51010  -0.48858  -0.45109  -0.42283
  Beta  occ. eigenvalues --   -0.39755  -0.36419  -0.35650  -0.32388  -0.32074
  Beta  occ. eigenvalues --   -0.31076  -0.30477  -0.29461  -0.29167  -0.28210
  Beta  occ. eigenvalues --   -0.27742  -0.27479  -0.26511  -0.25996  -0.25961
  Beta  occ. eigenvalues --   -0.23596  -0.23360  -0.22773  -0.22330  -0.21435
  Beta  occ. eigenvalues --   -0.14676  -0.13379  -0.12026  -0.12008  -0.11052
  Beta virt. eigenvalues --    0.02849   0.06504   0.07997   0.08942   0.09124
  Beta virt. eigenvalues --    0.10150   0.11199   0.11283   0.11703   0.13256
  Beta virt. eigenvalues --    0.13367   0.13735   0.13988   0.14705   0.14770

 Mulliken charges and spin densities:
               1          2
     1  C    0.175471   0.016334
     2  C   -0.677837   0.065255
     3  C    1.625360   0.040787
     4  C    0.517247   0.085832
     5  C    0.046527   0.060275
     6  C    0.168026  -0.015508
     7  C   -0.978791   0.070645
     8  C    0.220863   0.042088
     9  C    0.618554   0.083870
    10  C   -0.728114   0.052083
    11  O   -0.372342   0.257875
    12  O   -0.353880   0.223146
    13  C   -1.516266  -0.016670
    14  N   -0.246432   0.022459
    15  H    0.160054  -0.001442
    16  H    0.151065  -0.004371
    17  H    0.184968   0.000174
    18  C   -0.501149   0.001886
    19  C   -0.414239   0.000646
    20  H    0.208062  -0.002592
    21  H    0.128963   0.003451
    22  H    0.129169   0.003462
    23  H    0.131874   0.000068
    24  H    0.161457   0.005113
    25  H    0.161390   0.005136
 Sum of Mulliken charges =  -1.00000   1.00000

 Dipole moment (field-independent basis, Debye):
    X=            -23.4862    Y=             17.0982    Z=             -0.5706  Tot=             29.0564
 Quadrupole moment (field-independent basis, Debye-Ang):
   XX=           -241.5172   YY=           -171.3190   ZZ=           -129.6415
   XY=             86.7822   XZ=             17.8026   YZ=             14.7661

  Exact polarizability: 256.424 -51.176 158.018 -75.398 -33.893 195.918
 Approx polarizability: 374.257 -75.383 271.850 -99.812 -84.188 329.715

 ******    1 imaginary frequencies (negative Signs) ******

                      1                      2                      3
                      A                      A                      A
 Frequencies --    -74.7685                54.4583                90.0718
 Red. masses --      1.0265                 6.0182                 4.2352
 Frc consts  --      0.0034                 0.0105                 0.0202
 IR Inten    --      0.0013                 0.4136                 9.5279

                      4                      5                      6
                      A                      A                      A
 Frequencies --    106.7687               122.6140               140.6402
 Red. masses --      2.0559                 9.6802                 1.4783
 Frc consts  --      0.0138                 0.0857                 0.0172
 IR Inten    --      3.0612                 2.4962                 0.6903

                      7                      8                      9
                      A                      A                      A
 Frequencies --    157.4933               204.6855               259.6976
 Red. masses --      5.4141                 5.9495                 5.1900
 Frc consts  --      0.0791                 0.1469                 0.2062
 IR Inten    --      2.3436                 0.1176                 8.1637

                     10                     11                     12
                      A                      A                      A
 Frequencies --    296.7732               320.9228               329.9391
 Red. masses --      4.3450                 3.9738                 4.7457
 Frc consts  --      0.2255                 0.2411                 0.3044
 IR Inten    --      0.0330                 0.2124                 1.0287

                     13                     14                     15
                      A                      A                      A
 Frequencies --    351.8619               404.8651               409.3591
 Red. masses --      4.0008                 6.4056                 7.8787
 Frc consts  --      0.2918                 0.6186                 0.7779
 IR Inten    --      1.2835                 0.0423                 3.2203

                     16                     17                     18
                      A                      A                      A
 Frequencies --    429.5984               443.4201               489.7278
 Red. masses --      6.5044                 3.3989                 5.1902
 Frc consts  --      0.7073                 0.3937                 0.7334
 IR Inten    --      7.0186                 0.7072                 0.9027

                     19                     20                     21
                      A                      A                      A
 Frequencies --    500.0890               556.5743               580.9933
 Red. masses --     10.1548                 6.6904                 7.3340
 Frc consts  --      1.4963                 1.2211                 1.4586
 IR Inten    --      0.6863                 5.7801                 2.8654

                     22                     23                     24
                      A                      A                      A
 Frequencies --    592.8411               663.0758               682.5011
 Red. masses --      5.6214                 4.9469                 3.9512
 Frc consts  --      1.1640                 1.2815                 1.0844
 IR Inten    --     10.5296                 6.3434                10.7415

                     25                     26                     27
                      A                      A                      A
 Frequencies --    687.9683               723.4684               734.3444
 Red. masses --      6.7420                 6.2250                 4.5948
 Frc consts  --      1.8801                 1.9197                 1.4599
 IR Inten    --      3.3515                 9.5253                10.4823

                     28                     29                     30
                      A                      A                      A
 Frequencies --    790.8390               832.6789               873.4841
 Red. masses --      3.6688                 1.7074                 3.9398
 Frc consts  --      1.3519                 0.6975                 1.7711
 IR Inten    --      1.4412                20.3378                 1.8203

                     31                     32                     33
                      A                      A                      A
 Frequencies --    913.6209               951.4225               987.8212
 Red. masses --      2.8326                 1.3992                 1.3074
 Frc consts  --      1.3931                 0.7462                 0.7516
 IR Inten    --      3.7002                 8.9957                 1.1858

                     34                     35                     36
                      A                      A                      A
 Frequencies --    994.1636              1026.7626              1030.4488
 Red. masses --      2.6735                 2.0084                 1.4360
 Frc consts  --      1.5569                 1.2475                 0.8984
 IR Inten    --      5.4187                10.9154                 0.1646

                     37                     38                     39
                      A                      A                      A
 Frequencies --   1052.9892              1103.1826              1127.0132
 Red. masses --      1.5369                 2.7182                 1.9564
 Frc consts  --      1.0040                 1.9491                 1.4641
 IR Inten    --      0.0143                44.3619                25.6186

                     40                     41                     42
                      A                      A                      A
 Frequencies --   1143.9001              1193.9195              1217.6186
 Red. masses --      1.7338                 4.4755                 3.5170
 Frc consts  --      1.3367                 3.7587                 3.0722
 IR Inten    --      3.5482                31.9196                71.0893

                     43                     44                     45
                      A                      A                      A
 Frequencies --   1229.0265              1271.9822              1350.8920
 Red. masses --      3.4714                 1.8711                 5.5255
 Frc consts  --      3.0894                 1.7836                 5.9411
 IR Inten    --     87.5102                15.4529                55.8096

                     46                     47                     48
                      A                      A                      A
 Frequencies --   1372.3502              1387.9335              1401.9128
 Red. masses --      1.8930                 2.1936                 1.3337
 Frc consts  --      2.1005                 2.4897                 1.5444
 IR Inten    --     18.8756                68.6255                27.8088

                     49                     50                     51
                      A                      A                      A
 Frequencies --   1445.2583              1462.2972              1471.1698
 Red. masses --      3.2337                 1.5576                 1.0457
 Frc consts  --      3.9796                 1.9623                 1.3334
 IR Inten    --     20.7795                30.1102                 6.2694

                     52                     53                     54
                      A                      A                      A
 Frequencies --   1487.3921              1490.1773              1505.0423
 Red. masses --      2.3159                 1.1310                 8.2541
 Frc consts  --      3.0187                 1.4797                11.0158
 IR Inten    --     31.9420                23.0504               235.2699

                     55                     56                     57
                      A                      A                      A
 Frequencies --   1507.5015              1533.9003              1540.1312
 Red. masses --      1.0474                 7.0496                 4.1428
 Frc consts  --      1.4024                 9.7726                 5.7898
 IR Inten    --      3.6259               213.3798                74.9882

                     58                     59                     60
                      A                      A                      A
 Frequencies --   1594.0846              1628.0933              2292.3042
 Red. masses --      7.2882                 7.0106                12.6778
 Frc consts  --     10.9117                10.9488                39.2498
 IR Inten    --     58.9994                58.2987               378.7887

                     61                     62                     63
                      A                      A                      A
 Frequencies --   3001.7008              3017.6937              3040.2613
 Red. masses --      1.0405                 1.0392                 1.0995
 Frc consts  --      5.5238                 5.5759                 5.9877
 IR Inten    --     93.0301                80.0853                42.0024

                     64                     65                     66
                      A                      A                      A
 Frequencies --   3051.7420              3114.3207              3117.0366
 Red. masses --      1.0982                 1.0965                 1.0956
 Frc consts  --      6.0262                 6.2661                 6.2717
 IR Inten    --     23.2075                35.2247                 3.6721

                     67                     68                     69
                      A                      A                      A
 Frequencies --   3169.5906              3190.9935              3192.9641
 Red. masses --      1.0876                 1.0930                 1.0911
 Frc consts  --      6.4379                 6.5574                 6.5542
 IR Inten    --      5.9683                 8.9503                 6.4839

 - Thermochemistry -
 -------------------
 Temperature   298.150 Kelvin.  Pressure   1.00000 Atm.
 Atom     1 has atomic number  6 and mass  12.00000

 Molecular mass:   211.06333 amu.
 Principal axes and moments of inertia in atomic units:
                           1         2         3
     Eigenvalues --  1744.587194926.318156648.76549
           X            0.84043  -0.26329   0.47366
           Y           -0.15153   0.72501   0.67187
           Z           -0.52030  -0.63643   0.56942
 This molecule is an asymmetric top.
 Rotational symmetry number  1.
 Warning -- assumption of classical behavior for rotation
           may cause significant error
 Rotational temperatures (Kelvin)      0.04965     0.01758     0.01303
 Rotational constants (GHZ):           1.03448     0.36635     0.27144
    1 imaginary frequencies ignored.
 Zero-point vibrational energy     481152.2 (Joules/Mol)
                                  114.99814 (Kcal/Mol)
 Warning -- explicit consideration of  21 degrees of freedom as
           vibrations may cause significant error
 Vibrational temperatures:     78.35   129.59   153.62   176.41   202.35
          (Kelvin)            226.60   294.50   373.65   426.99   461.74
                              474.71   506.25   582.51   588.98   618.10
                              637.98   704.61   719.52   800.79   835.92
                              852.97   954.02   981.97   989.83  1040.91
                             1056.56  1137.84  1198.04  1256.75  1314.50
                             1368.88  1421.25  1430.38  1477.28  1482.59
                             1515.02  1587.23  1621.52  1645.82  1717.78
                             1751.88  1768.29  1830.10  1943.63  1974.51
                             1996.93  2017.04  2079.40  2103.92  2116.69
                             2140.03  2144.03  2165.42  2168.96  2206.94
                             2215.91  2293.53  2342.46  3298.11  4318.78
                             4341.79  4374.26  4390.78  4480.81  4484.72
                             4560.33  4591.13  4593.96

 Zero-point correction=                           0.183261 (Hartree/Particle)
 Thermal correction to Energy=                    0.196358
 Thermal correction to Enthalpy=                  0.197302
 Thermal correction to Gibbs Free Energy=         0.142953
 Sum of electronic and zero-point Energies=           -706.084060
 Sum of electronic and thermal Energies=              -706.070963
 Sum of electronic and thermal Enthalpies=            -706.070018
 Sum of electronic and thermal Free Energies=         -706.124368

                     E (Thermal)             CV                S
                      KCal/Mol        Cal/Mol-Kelvin    Cal/Mol-Kelvin
 Total                  123.217             50.574            114.389
 Electronic               0.000              0.000              1.377
 Translational            0.889              2.981             41.945
 Rotational               0.889              2.981             32.413
 Vibrational            121.439             44.612             38.653
 Vibration     1          0.596              1.976              4.649
 Vibration     2          0.602              1.956              3.659
 Vibration     3          0.606              1.944              3.327
 Vibration     4          0.610              1.930              3.059
 Vibration     5          0.615              1.913              2.795
 Vibration     6          0.621              1.894              2.580
 Vibration     7          0.640              1.833              2.091
 Vibration     8          0.668              1.746              1.664
 Vibration     9          0.690              1.680              1.435
 Vibration    10          0.706              1.633              1.305
 Vibration    11          0.713              1.616              1.260
 Vibration    12          0.728              1.571              1.158
 Vibration    13          0.770              1.460              0.945
 Vibration    14          0.774              1.450              0.929
 Vibration    15          0.791              1.406              0.860
 Vibration    16          0.803              1.375              0.816
 Vibration    17          0.846              1.273              0.684
 Vibration    18          0.855              1.250              0.658
 Vibration    19          0.912              1.125              0.531
 Vibration    20          0.938              1.072              0.484
 Vibration    21          0.950              1.047              0.462

                           ! Non-Optimized Parameters !
 Normal termination of Gaussian 16 at Tue Dec 26 21:29:58 2023.
