 Gaussian 16, Revision A.03,
 Gaussian 16:  ES64L-G16RevA.03 25-Dec-2016

 ----------------------------------------------------------------------
 #P UB3LYP/6-311++G(d,p) nosym opt freq SCRF=(PCM,Solvent=n,n-DiMethylF
 ormamide)
 ----------------------------------------------------------------------

 -------
 Reduced
 -------
 Symbolic Z-matrix:
 Charge = -2 Multiplicity = 1

 SCF Done:  E(UB3LYP) =  -996.535069799     A.U. after   16 cycles
 SCF Done:  E(UB3LYP) =  -996.536095375     A.U. after   13 cycles
 SCF Done:  E(UB3LYP) =  -996.536246806     A.U. after   12 cycles
 SCF Done:  E(UB3LYP) =  -996.536249830     A.U. after   11 cycles
 SCF Done:  E(UB3LYP) =  -996.536252040     A.U. after   11 cycles
 SCF Done:  E(UB3LYP) =  -996.536252123     A.U. after    9 cycles
 Optimization completed.
    -- Stationary point found.
 Normal termination of Gaussian 16 at Sat Feb 10 18:35:30 2024.

 ----------------------------------------------------------------------
 #P Geom=AllCheck Guess=TCheck SCRF=Check GenChk UB3LYP/6-311++G(d,p) F
 req
 ----------------------------------------------------------------------

 Structure from the checkpoint file:  "136-an.chk"
 -------
 Reduced
 -------
 Charge = -2 Multiplicity = 1

                          Input orientation:
 ---------------------------------------------------------------------
 Center     Atomic      Atomic             Coordinates (Angstroms)
 Number     Number       Type             X           Y           Z
 ---------------------------------------------------------------------
      1          8           0       -0.052628   -1.560490   -2.395861
      2          6           0       -0.027742   -0.837386   -1.316615
      3          6           0        1.204120   -0.464528   -0.668995
      4          6           0        2.433250   -0.888257   -1.210845
      5          6           0        3.666438   -0.564885   -0.646973
      6          6           0        4.915190   -0.994568   -1.205241
      7          6           0        6.107849   -0.656106   -0.626237
      8          6           0        6.133466    0.143008    0.563895
      9          6           0        4.965345    0.574224    1.130978
     10          6           0        3.692622    0.244982    0.558955
     11          6           0        2.483728    0.668884    1.108204
     12          6           0        1.230787    0.353043    0.548526
     13          6           0        0.027694    0.836362    1.177263
     14          8           0        0.052613    1.560149    2.256093
     15          6           0       -1.204141    0.463857    0.529431
     16          6           0       -2.433270    0.887934    1.071041
     17          6           0       -3.666434    0.564866    0.506956
     18          6           0       -4.915184    0.994876    1.064993
     19          6           0       -6.107822    0.656713    0.485774
     20          6           0       -6.133440   -0.142415   -0.704347
     21          6           0       -4.965322   -0.573942   -1.271208
     22          6           0       -3.692628   -0.245011   -0.698965
     23          6           0       -2.483734   -0.669219   -1.248000
     24          6           0       -1.230831   -0.353714   -0.688089
     25          1           0        2.400124   -1.494239   -2.110435
     26          1           0        4.896415   -1.599760   -2.107229
     27          1           0        7.042693   -0.989713   -1.063964
     28          1           0        7.087206    0.403158    1.010608
     29          1           0        4.984761    1.180234    2.032431
     30          1           0        2.489684    1.273636    2.008915
     31          1           0       -2.400150    1.493919    1.970628
     32          1           0       -4.896422    1.600082    1.966971
     33          1           0       -7.042657    0.990571    0.923330
     34          1           0       -7.087166   -0.402322   -1.151229
     35          1           0       -4.984728   -1.179961   -2.172654
     36          1           0       -2.489687   -1.273981   -2.148705
 ---------------------------------------------------------------------

 SCF Done:  E(UB3LYP) =  -996.536252123     A.U. after    1 cycles

 Alpha  occ. eigenvalues --  -19.02276 -19.02274 -10.17700 -10.17698 -10.16508
 Alpha  occ. eigenvalues --  -10.16508 -10.16507 -10.16507 -10.16335 -10.16335
 Alpha  occ. eigenvalues --  -10.16298 -10.16298 -10.16278 -10.16278 -10.16238
 Alpha  occ. eigenvalues --  -10.16238 -10.14995 -10.14995 -10.14983 -10.14983
 Alpha  occ. eigenvalues --  -10.14360 -10.14358 -10.14326 -10.14326  -0.93661
 Alpha  occ. eigenvalues --   -0.93258  -0.85517  -0.85476  -0.80909  -0.79742
 Alpha  occ. eigenvalues --   -0.75884  -0.75844  -0.74798  -0.71379  -0.70828
 Alpha  occ. eigenvalues --   -0.70418  -0.64123  -0.63818  -0.60066  -0.59938
 Alpha  occ. eigenvalues --   -0.58006  -0.57116  -0.54774  -0.52436  -0.50352
 Alpha  occ. eigenvalues --   -0.49871  -0.49529  -0.45913  -0.44837  -0.44491
 Alpha  occ. eigenvalues --   -0.43221  -0.43084  -0.41808  -0.41503  -0.40140
 Alpha  occ. eigenvalues --   -0.39812  -0.39154  -0.38754  -0.38272  -0.37676
 Alpha  occ. eigenvalues --   -0.37272  -0.36418  -0.35783  -0.35432  -0.34368
 Alpha  occ. eigenvalues --   -0.33533  -0.32806  -0.31795  -0.31221  -0.30831
 Alpha  occ. eigenvalues --   -0.29853  -0.28149  -0.27739  -0.27088  -0.22511
 Alpha  occ. eigenvalues --   -0.22024  -0.20600  -0.20423  -0.20214  -0.19899
 Alpha  occ. eigenvalues --   -0.10345
 Alpha virt. eigenvalues --   -0.06180  -0.02723  -0.00895  -0.00075   0.00282
 Alpha virt. eigenvalues --    0.01154   0.01212   0.01407   0.01794   0.02684
 Alpha virt. eigenvalues --    0.02999   0.03261   0.03459   0.04399   0.04659

  Beta  occ. eigenvalues --  -19.02276 -19.02274 -10.17700 -10.17698 -10.16508
  Beta  occ. eigenvalues --  -10.16508 -10.16507 -10.16507 -10.16335 -10.16335
  Beta  occ. eigenvalues --  -10.16298 -10.16298 -10.16278 -10.16278 -10.16238
  Beta  occ. eigenvalues --  -10.16238 -10.14995 -10.14995 -10.14983 -10.14983
  Beta  occ. eigenvalues --  -10.14360 -10.14358 -10.14326 -10.14326  -0.93661
  Beta  occ. eigenvalues --   -0.93258  -0.85517  -0.85476  -0.80909  -0.79742
  Beta  occ. eigenvalues --   -0.75884  -0.75844  -0.74798  -0.71379  -0.70828
  Beta  occ. eigenvalues --   -0.70418  -0.64123  -0.63818  -0.60066  -0.59938
  Beta  occ. eigenvalues --   -0.58006  -0.57116  -0.54774  -0.52436  -0.50352
  Beta  occ. eigenvalues --   -0.49871  -0.49529  -0.45913  -0.44837  -0.44491
  Beta  occ. eigenvalues --   -0.43221  -0.43084  -0.41808  -0.41503  -0.40140
  Beta  occ. eigenvalues --   -0.39812  -0.39154  -0.38754  -0.38272  -0.37676
  Beta  occ. eigenvalues --   -0.37272  -0.36418  -0.35783  -0.35432  -0.34368
  Beta  occ. eigenvalues --   -0.33533  -0.32806  -0.31795  -0.31221  -0.30831
  Beta  occ. eigenvalues --   -0.29853  -0.28149  -0.27739  -0.27088  -0.22511
  Beta  occ. eigenvalues --   -0.22024  -0.20600  -0.20423  -0.20214  -0.19899
  Beta  occ. eigenvalues --   -0.10345
  Beta virt. eigenvalues --   -0.06180  -0.02723  -0.00895  -0.00075   0.00282
  Beta virt. eigenvalues --    0.01154   0.01212   0.01407   0.01794   0.02684
  Beta virt. eigenvalues --    0.02999   0.03261   0.03459   0.04399   0.04659

 Mulliken charges and spin densities:
               1          2
     1  O   -0.639070  -0.000000
     2  C   -0.663108   0.000000
     3  C    0.298744  -0.000000
     4  C   -0.019038   0.000000
     5  C    0.064028   0.000000
     6  C   -0.265420  -0.000000
     7  C   -0.375465   0.000000
     8  C   -0.375406   0.000000
     9  C   -0.264862   0.000000
    10  C    0.066560  -0.000000
    11  C   -0.018103  -0.000000
    12  C    0.298910  -0.000000
    13  C   -0.663053   0.000000
    14  O   -0.639155  -0.000000
    15  C    0.298754  -0.000000
    16  C   -0.019050   0.000000
    17  C    0.064058  -0.000000
    18  C   -0.265458   0.000000
    19  C   -0.375453   0.000000
    20  C   -0.375427   0.000000
    21  C   -0.264807  -0.000000
    22  C    0.066501   0.000000
    23  C   -0.018072   0.000000
    24  C    0.298986  -0.000000
    25  H    0.126830   0.000000
    26  H    0.144948  -0.000000
    27  H    0.174125   0.000000
    28  H    0.174122  -0.000000
    29  H    0.144980   0.000000
    30  H    0.127198   0.000000
    31  H    0.126832  -0.000000
    32  H    0.144947   0.000000
    33  H    0.174126  -0.000000
    34  H    0.174121   0.000000
    35  H    0.144982  -0.000000
    36  H    0.127197  -0.000000
 Sum of Mulliken charges =  -2.00000  -0.00000

 Dipole moment (field-independent basis, Debye):
    X=              0.0001    Y=              0.0008    Z=              0.6703  Tot=              0.6703
 Quadrupole moment (field-independent basis, Debye-Ang):
   XX=           -184.4490   YY=           -167.1855   ZZ=           -182.3002
   XY=              0.9378   XZ=             -0.8666   YZ=            -18.3778

  Exact polarizability:1172.570 -37.292 332.749  12.035 184.476 482.535
 Approx polarizability:1216.518 -36.840 395.692  13.783 236.813 588.093

                      1                      2                      3
                      A                      A                      A
 Frequencies --     27.9895                57.3258                86.7200
 Red. masses --      7.1191                 3.9129                 5.5044
 Frc consts  --      0.0033                 0.0076                 0.0244
 IR Inten    --     13.9693                 0.0378                 0.0000

                      4                      5                      6
                      A                      A                      A
 Frequencies --    101.5593               114.8786               117.3883
 Red. masses --      5.8506                 7.3613                 6.7123
 Frc consts  --      0.0356                 0.0572                 0.0545
 IR Inten    --      0.0000                19.5362                21.5343

                      7                      8                      9
                      A                      A                      A
 Frequencies --    198.5560               224.9951               238.2122
 Red. masses --      6.7604                 7.1336                 4.1164
 Frc consts  --      0.1570                 0.2128                 0.1376
 IR Inten    --      0.0000                 9.5663                 0.0636

                     10                     11                     12
                      A                      A                      A
 Frequencies --    252.1455               256.6475               302.2549
 Red. masses --      4.5837                 7.1238                 5.6182
 Frc consts  --      0.1717                 0.2765                 0.3024
 IR Inten    --      0.0000                 0.0000                 0.0000

                     13                     14                     15
                      A                      A                      A
 Frequencies --    328.0302               332.3878               343.1087
 Red. masses --      7.3827                11.9785                 5.1302
 Frc consts  --      0.4680                 0.7797                 0.3558
 IR Inten    --      0.0000                 0.0173                 1.0484

                     16                     17                     18
                      A                      A                      A
 Frequencies --    407.1770               422.9370               465.3680
 Red. masses --      3.3604                 7.8093                 2.6263
 Frc consts  --      0.3283                 0.8230                 0.3351
 IR Inten    --      0.1187                 0.0003                 0.0063

                     19                     20                     21
                      A                      A                      A
 Frequencies --    466.4590               471.2516               484.7437
 Red. masses --      2.5476                 3.2349                13.5787
 Frc consts  --      0.3266                 0.4233                 1.8799
 IR Inten    --     74.7428                 0.0000                 0.0000

                     22                     23                     24
                      A                      A                      A
 Frequencies --    497.8024               526.1845               528.9853
 Red. masses --      6.0118                 4.1119                 7.6193
 Frc consts  --      0.8777                 0.6708                 1.2562
 IR Inten    --      0.0000                 0.0100                 4.3844

                     25                     26                     27
                      A                      A                      A
 Frequencies --    574.4319               574.4774               587.6635
 Red. masses --      6.4235                 4.0072                 6.4897
 Frc consts  --      1.2488                 0.7792                 1.3205
 IR Inten    --    101.1453                 8.9452                 0.0000

                     28                     29                     30
                      A                      A                      A
 Frequencies --    618.3093               636.2141               675.5301
 Red. masses --      6.6725                 6.7948                 5.4232
 Frc consts  --      1.5030                 1.6205                 1.4581
 IR Inten    --      0.0000                34.5989                 0.0440

                     31                     32                     33
                      A                      A                      A
 Frequencies --    691.3788               702.7675               704.0525
 Red. masses --      6.5465                 3.5141                 5.2401
 Frc consts  --      1.8437                 1.0226                 1.5304
 IR Inten    --      0.0000                46.7786               176.8822

                     34                     35                     36
                      A                      A                      A
 Frequencies --    745.3150               746.6224               752.2307
 Red. masses --      1.2837                 4.3115                 1.5747
 Frc consts  --      0.4202                 1.4160                 0.5250
 IR Inten    --      0.0000                 0.0002               211.1230

                     37                     38                     39
                      A                      A                      A
 Frequencies --    755.3786               756.2669               773.3243
 Red. masses --      4.0278                 4.2988                 8.0440
 Frc consts  --      1.3541                 1.4486                 2.8343
 IR Inten    --     60.9945                79.1776                 0.0000

                     40                     41                     42
                      A                      A                      A
 Frequencies --    779.8925               811.3989               837.5575
 Red. masses --      4.0664                 3.2978                 1.3922
 Frc consts  --      1.4572                 1.2792                 0.5754
 IR Inten    --      0.0000                 0.0010                 0.1125

                     43                     44                     45
                      A                      A                      A
 Frequencies --    838.0397               909.6201               911.3752
 Red. masses --      1.4583                 1.5005                 1.4403
 Frc consts  --      0.6034                 0.7315                 0.7048
 IR Inten    --      0.0001                 0.5684                 0.0000

                     46                     47                     48
                      A                      A                      A
 Frequencies --    913.6823               917.0400               917.6063
 Red. masses --      5.3711                 1.7087                 1.5360
 Frc consts  --      2.6418                 0.8466                 0.7620
 IR Inten    --     29.9036                 0.0337               108.2999

                     49                     50                     51
                      A                      A                      A
 Frequencies --    941.3588               965.4817               970.6545
 Red. masses --      4.8663                 2.9496                 1.3723
 Frc consts  --      2.5407                 1.6199                 0.7618
 IR Inten    --      0.0000                 0.2812                 0.0007

                     52                     53                     54
                      A                      A                      A
 Frequencies --    970.9202               978.0243               978.2543
 Red. masses --      1.3794                 1.2665                 1.2680
 Frc consts  --      0.7661                 0.7137                 0.7149
 IR Inten    --     19.8953                 0.0000                 0.0368

                     55                     56                     57
                      A                      A                      A
 Frequencies --   1002.1733              1007.4470              1048.9157
 Red. masses --      2.4462                 2.4203                 4.2348
 Frc consts  --      1.4475                 1.4473                 2.7452
 IR Inten    --    434.0535                 0.0001              1061.2117

                     58                     59                     60
                      A                      A                      A
 Frequencies --   1088.3744              1120.8708              1131.4045
 Red. masses --      6.1319                 2.4513                 1.8038
 Frc consts  --      4.2796                 1.8145                 1.3604
 IR Inten    --   7883.8124               677.7590                 0.0019

                     61                     62                     63
                      A                      A                      A
 Frequencies --   1148.0027              1160.2781              1169.6997
 Red. masses --      1.6379                 1.4528                 1.0906
 Frc consts  --      1.2718                 1.1523                 0.8791
 IR Inten    --      0.0000                13.9326                 0.0000

                     64                     65                     66
                      A                      A                      A
 Frequencies --   1174.0948              1202.0301              1218.9460
 Red. masses --      1.2251                 1.5033                 3.0118
 Frc consts  --      0.9950                 1.2798                 2.6366
 IR Inten    --      9.7607                 0.0000                 0.0000

                     67                     68                     69
                      A                      A                      A
 Frequencies --   1242.2447              1265.1932              1274.4183
 Red. masses --      3.7194                 1.5690                 2.8056
 Frc consts  --      3.3817                 1.4797                 2.6847
 IR Inten    --      0.0000               508.9881              1288.3909

                     70                     71                     72
                      A                      A                      A
 Frequencies --   1278.3374              1278.7617              1337.9098
 Red. masses --      2.1307                 2.5675                 5.3149
 Frc consts  --      2.0515                 2.4736                 5.6053
 IR Inten    --   1285.5192                 0.0079                 0.0001

                     73                     74                     75
                      A                      A                      A
 Frequencies --   1357.4772              1373.0135              1389.2050
 Red. masses --      7.9998                 3.1028                 1.9294
 Frc consts  --      8.6854                 3.4463                 2.1938
 IR Inten    --    788.1496               907.1300                 0.0003

                     76                     77                     78
                      A                      A                      A
 Frequencies --   1398.5153              1406.8242              1434.2723
 Red. masses --      2.9096                 4.4327                 6.2899
 Frc consts  --      3.3528                 5.1689                 7.6235
 IR Inten    --     14.3103                 0.0000                 0.0001

                     79                     80                     81
                      A                      A                      A
 Frequencies --   1443.4862              1452.8110              1481.0495
 Red. masses --      4.1055                 2.9116                 4.5608
 Frc consts  --      5.0402                 3.6207                 5.8942
 IR Inten    --    594.0780                32.0122                 0.0002

                     82                     83                     84
                      A                      A                      A
 Frequencies --   1488.0226              1502.2783              1535.3377
 Red. masses --      2.5683                 3.0621                 5.6695
 Frc consts  --      3.3505                 4.0717                 7.8742
 IR Inten    --      0.0000                26.7788                 0.0000

                     85                     86                     87
                      A                      A                      A
 Frequencies --   1556.0756              1565.5057              1569.2249
 Red. masses --      6.2088                 7.7101                 5.8283
 Frc consts  --      8.8576                11.1332                 8.4559
 IR Inten    --    106.6482                 0.0003                 0.0004

                     88                     89                     90
                      A                      A                      A
 Frequencies --   1573.1003              1629.1342              1634.0901
 Red. masses --      6.7034                 5.1935                 5.4134
 Frc consts  --      9.7737                 8.1212                 8.5167
 IR Inten    --     23.8573                16.7192                 0.0000

                     91                     92                     93
                      A                      A                      A
 Frequencies --   3142.9656              3143.0592              3146.3316
 Red. masses --      1.0854                 1.0855                 1.0874
 Frc consts  --      6.3173                 6.3182                 6.3421
 IR Inten    --     12.8788                 0.0000                19.9896

                     94                     95                     96
                      A                      A                      A
 Frequencies --   3146.4910              3157.3898              3157.5408
 Red. masses --      1.0874                 1.0890                 1.0889
 Frc consts  --      6.3432                 6.3966                 6.3966
 IR Inten    --      0.0000                38.1734                 0.0224

                     97                     98                     99
                      A                      A                      A
 Frequencies --   3162.7250              3162.8096              3164.5714
 Red. masses --      1.0925                 1.0927                 1.0881
 Frc consts  --      6.4388                 6.4402                 6.4204
 IR Inten    --    155.2092                 0.0000                82.3222

                    100                    101                    102
                      A                      A                      A
 Frequencies --   3165.0117              3176.7478              3176.8820
 Red. masses --      1.0881                 1.0966                 1.0966
 Frc consts  --      6.4223                 6.5205                 6.5206
 IR Inten    --      0.0014               195.9756                 0.0000

 - Thermochemistry -
 -------------------
 Temperature   298.150 Kelvin.  Pressure   1.00000 Atm.
 Atom     1 has atomic number  8 and mass  15.99491

 Molecular mass:   308.08373 amu.
 Principal axes and moments of inertia in atomic units:
                           1         2         3
     Eigenvalues --  2235.19707********************
           X            0.99907   0.01818   0.03905
           Y           -0.04255   0.55723   0.82927
           Z            0.00668   0.83016  -0.55748
 This molecule is an asymmetric top.
 Rotational symmetry number  1.
 Warning -- assumption of classical behavior for rotation
           may cause significant error
 Rotational temperatures (Kelvin)      0.03875     0.00562     0.00491
 Rotational constants (GHZ):           0.80742     0.11719     0.10234
 Zero-point vibrational energy     699989.0 (Joules/Mol)
                                  167.30140 (Kcal/Mol)
 Warning -- explicit consideration of  28 degrees of freedom as
           vibrations may cause significant error
 Vibrational temperatures:     40.27    82.48   124.77   146.12   165.28
          (Kelvin)            168.90   285.68   323.72   342.73   362.78
                              369.26   434.88   471.96   478.23   493.66
                              585.84   608.51   669.56   671.13   678.03
                              697.44   716.23   757.06   761.09   826.48
                              826.54   845.52   889.61   915.37   971.94
                              994.74  1011.13  1012.97  1072.34  1074.22
                             1082.29  1086.82  1088.10  1112.64  1122.09
                             1167.42  1205.06  1205.75  1308.74  1311.27
                             1314.59  1319.42  1320.23  1354.41  1389.11
                             1396.56  1396.94  1407.16  1407.49  1441.90
                             1449.49  1509.16  1565.93  1612.68  1627.84
                             1651.72  1669.38  1682.94  1689.26  1729.45
                             1753.79  1787.31  1820.33  1833.60  1839.24
                             1839.85  1924.95  1953.11  1975.46  1998.76
                             2012.15  2024.11  2063.60  2076.85  2090.27
                             2130.90  2140.93  2161.44  2209.01  2238.85
                             2252.41  2257.76  2263.34  2343.96  2351.09
                             4522.03  4522.16  4526.87  4527.10  4542.78
                             4543.00  4550.46  4550.58  4553.11  4553.75
                             4570.63  4570.82

 Zero-point correction=                           0.266612 (Hartree/Particle)
 Thermal correction to Energy=                    0.283440
 Thermal correction to Enthalpy=                  0.284384
 Thermal correction to Gibbs Free Energy=         0.222117
 Sum of electronic and zero-point Energies=           -996.269640
 Sum of electronic and thermal Energies=              -996.252812
 Sum of electronic and thermal Enthalpies=            -996.251868
 Sum of electronic and thermal Free Energies=         -996.314136

                     E (Thermal)             CV                S
                      KCal/Mol        Cal/Mol-Kelvin    Cal/Mol-Kelvin
 Total                  177.861             70.803            131.053
 Electronic               0.000              0.000              0.000
 Translational            0.889              2.981             43.072
 Rotational               0.889              2.981             34.761
 Vibrational            176.084             64.841             53.220
 Vibration     1          0.593              1.984              5.967
 Vibration     2          0.596              1.975              4.547
 Vibration     3          0.601              1.958              3.733
 Vibration     4          0.604              1.948              3.424
 Vibration     5          0.608              1.937              3.185
 Vibration     6          0.608              1.935              3.143
 Vibration     7          0.637              1.842              2.146
 Vibration     8          0.650              1.803              1.919
 Vibration     9          0.656              1.782              1.816
 Vibration    10          0.664              1.759              1.716
 Vibration    11          0.666              1.752              1.684
 Vibration    12          0.694              1.669              1.404
 Vibration    13          0.711              1.619              1.270
 Vibration    14          0.714              1.611              1.248
 Vibration    15          0.722              1.589              1.198
 Vibration    16          0.772              1.455              0.937
 Vibration    17          0.785              1.420              0.882
 Vibration    18          0.823              1.327              0.751
 Vibration    19          0.824              1.324              0.748
 Vibration    20          0.828              1.314              0.734
 Vibration    21          0.841              1.284              0.697
 Vibration    22          0.853              1.255              0.664
 Vibration    23          0.881              1.192              0.596
 Vibration    24          0.884              1.186              0.589
 Vibration    25          0.931              1.087              0.496
 Vibration    26          0.931              1.086              0.496
 Vibration    27          0.945              1.058              0.471
 Vibration    28          0.978              0.993              0.419

 Optimization completed.
    -- Stationary point found.
 Normal termination of Gaussian 16 at Sat Feb 10 22:57:06 2024.
