 Q-Chem 5.4, Q-Chem, Inc., Pleasanton, CA (2021)
 Q-Chem 5.4.0 for Intel X86 EM64T Linux

User input:
--------------------------------------------------------------
$molecule
-2 1
C                 -1.0230010000      2.0353060000     -0.2855770000
C                 -1.4797750000      2.1318030000      1.0156130000
C                 -0.8508520000      1.3916970000      2.0416320000
C                  0.0713600000      1.2032640000     -0.6166520000
C                  0.7107270000      0.4522040000      0.4232440000
C                  0.2245450000      0.5707900000      1.7361710000
C                  0.5414330000      1.1060830000     -1.9755150000
C                  1.6632080000      0.2307620000     -2.2023100000
C                  2.3025810000     -0.5141900000     -1.2271840000
C                  1.8571990000     -0.4341890000      0.1469840000
O                  0.0454200000      1.7257610000     -2.9828980000
O                  2.4133510000     -1.0927190000      1.0710870000
H                 -1.4895880000      2.5939960000     -1.0898600000
H                 -2.3222260000      2.7775940000      1.2501140000
H                 -1.2080040000      1.4668600000      3.0650550000
H                  0.7281950000     -0.0081350000      2.5029080000
O                  2.0545600000      0.1868480000     -3.5135570000
C                  3.4645050000     -1.4135950000     -1.5626700000
C                  4.8410180000     -0.7336210000     -1.4107400000
C                  6.0131150000     -1.6660120000     -1.7422930000
C                  7.3928030000     -1.0084010000     -1.6091970000
C                  8.5639190000     -1.9387470000     -1.9535790000
C                  9.9438520000     -1.2794230000     -1.8248510000
C                 11.1166400000     -2.2057540000     -2.1733410000
C                 12.4936330000     -1.5370790000     -2.0473400000
C                 13.6771170000     -2.4823360000     -2.4054900000
C                 15.0260190000     -1.8706720000     -2.2972490000
Br                16.8209850000     -3.8601290000     -3.0177440000
H                  1.4072940000      0.8037090000     -3.9259450000
H                  3.3617970000     -1.7757660000     -2.5915300000
H                  3.4315250000     -2.2757710000     -0.8883720000
H                  4.9371440000     -0.3718940000     -0.3812320000
H                  4.8780630000      0.1465730000     -2.0638370000
H                  5.8941090000     -2.0447620000     -2.7670800000
H                  5.9687790000     -2.5458830000     -1.0862510000
H                  7.5166160000     -0.6364050000     -0.5835620000
H                  7.4336020000     -0.1234300000     -2.2583080000
H                  8.4378250000     -2.3122480000     -2.9787510000
H                  8.5250690000     -2.8231980000     -1.3036490000
H                 10.0704350000     -0.9076280000     -0.7993630000
H                  9.9802580000     -0.3932890000     -2.4725220000
H                 10.9902870000     -2.5796000000     -3.1981770000
H                 11.0847340000     -3.0906240000     -1.5237900000
H                 12.6316510000     -1.1676980000     -1.0237850000
H                 12.5353140000     -0.6546200000     -2.6975140000
H                 13.5212560000     -2.8478690000     -3.4289230000
H                 13.6193570000     -3.3615400000     -1.7505940000
H                 15.5111310000     -1.7850400000     -1.3348580000
H                 15.4066160000     -1.2440160000     -3.0918120000
$end
$rem
MAX_SCF_CYCLES=200
BASIS  =  6-311++G(d,p)
GUI  =  2
JOB_TYPE  =  SP
METHOD  =  B3LYP
SCF_ALGORITHM = DIIS_GDM
THRESH = 14
SOLVENT_METHOD = PCM
$end
$pcm
theory = CPCM
$end
$solvent
dielectric 37.219
opticaldielectric 1.43
$end

--------------------------------------------------------------

             Standard Nuclear Orientation (Angstroms)
    I     Atom           X                Y                Z
 ----------------------------------------------------------------
    1      C      -1.0230010000     2.0353060000    -0.2855770000
    2      C      -1.4797750000     2.1318030000     1.0156130000
    3      C      -0.8508520000     1.3916970000     2.0416320000
    4      C       0.0713600000     1.2032640000    -0.6166520000
    5      C       0.7107270000     0.4522040000     0.4232440000
    6      C       0.2245450000     0.5707900000     1.7361710000
    7      C       0.5414330000     1.1060830000    -1.9755150000
    8      C       1.6632080000     0.2307620000    -2.2023100000
    9      C       2.3025810000    -0.5141900000    -1.2271840000
   10      C       1.8571990000    -0.4341890000     0.1469840000
   11      O       0.0454200000     1.7257610000    -2.9828980000
   12      O       2.4133510000    -1.0927190000     1.0710870000
   13      H      -1.4895880000     2.5939960000    -1.0898600000
   14      H      -2.3222260000     2.7775940000     1.2501140000
   15      H      -1.2080040000     1.4668600000     3.0650550000
   16      H       0.7281950000    -0.0081350000     2.5029080000
   17      O       2.0545600000     0.1868480000    -3.5135570000
   18      C       3.4645050000    -1.4135950000    -1.5626700000
   19      C       4.8410180000    -0.7336210000    -1.4107400000
   20      C       6.0131150000    -1.6660120000    -1.7422930000
   21      C       7.3928030000    -1.0084010000    -1.6091970000
   22      C       8.5639190000    -1.9387470000    -1.9535790000
   23      C       9.9438520000    -1.2794230000    -1.8248510000
   24      C      11.1166400000    -2.2057540000    -2.1733410000
   25      C      12.4936330000    -1.5370790000    -2.0473400000
   26      C      13.6771170000    -2.4823360000    -2.4054900000
   27      C      15.0260190000    -1.8706720000    -2.2972490000
   28      Br     16.8209850000    -3.8601290000    -3.0177440000
   29      H       1.4072940000     0.8037090000    -3.9259450000
   30      H       3.3617970000    -1.7757660000    -2.5915300000
   31      H       3.4315250000    -2.2757710000    -0.8883720000
   32      H       4.9371440000    -0.3718940000    -0.3812320000
   33      H       4.8780630000     0.1465730000    -2.0638370000
   34      H       5.8941090000    -2.0447620000    -2.7670800000
   35      H       5.9687790000    -2.5458830000    -1.0862510000
   36      H       7.5166160000    -0.6364050000    -0.5835620000
   37      H       7.4336020000    -0.1234300000    -2.2583080000
   38      H       8.4378250000    -2.3122480000    -2.9787510000
   39      H       8.5250690000    -2.8231980000    -1.3036490000
   40      H      10.0704350000    -0.9076280000    -0.7993630000
   41      H       9.9802580000    -0.3932890000    -2.4725220000
   42      H      10.9902870000    -2.5796000000    -3.1981770000
   43      H      11.0847340000    -3.0906240000    -1.5237900000
   44      H      12.6316510000    -1.1676980000    -1.0237850000
   45      H      12.5353140000    -0.6546200000    -2.6975140000
   46      H      13.5212560000    -2.8478690000    -3.4289230000
   47      H      13.6193570000    -3.3615400000    -1.7505940000
   48      H      15.5111310000    -1.7850400000    -1.3348580000
   49      H      15.4066160000    -1.2440160000    -3.0918120000
 ----------------------------------------------------------------

   31   -3577.5337010669      8.04e-06  Convergence criterion met
 Total energy in the final basis set =    -3577.5337010669

                    Orbital Energies (a.u.)
 --------------------------------------------------------------

 Alpha MOs
 -- Occupied --
******** -62.4103 -56.2290 -56.2278 -56.2278 -19.1274 -19.0551 -19.0464
-10.2053 -10.1986 -10.1974 -10.1918 -10.1723 -10.1671 -10.1591 -10.1588
-10.1569 -10.1566 -10.1560 -10.1558 -10.1541 -10.1540 -10.1527 -10.1512
-10.1509 -10.1498 -10.1483 -10.1425  -8.6181  -6.4435  -6.4396  -6.4396
 -2.5554  -2.5543  -2.5543  -2.5512  -2.5512  -1.0445  -0.9713  -0.9642
 -0.8400  -0.8090  -0.7984  -0.7850  -0.7646  -0.7406  -0.7349  -0.7154
 -0.6924  -0.6808  -0.6528  -0.6340  -0.6061  -0.5960  -0.5792  -0.5727
 -0.5665  -0.5621  -0.5505  -0.5186  -0.4866  -0.4832  -0.4712  -0.4636
 -0.4501  -0.4390  -0.4379  -0.4276  -0.4218  -0.4166  -0.4124  -0.4116
 -0.3987  -0.3948  -0.3926  -0.3869  -0.3777  -0.3696  -0.3658  -0.3632
 -0.3566  -0.3532  -0.3447  -0.3374  -0.3341  -0.3290  -0.3243  -0.3215
 -0.3192  -0.3183  -0.3148  -0.3138  -0.3101  -0.3000  -0.2616  -0.2494
 -0.2494  -0.2423  -0.2407  -0.2369  -0.2182  -0.2075  -0.1139

          Ground-State Mulliken Net Atomic Charges

     Atom                 Charge (a.u.)
  ----------------------------------------
      1 C                    -0.051243
      2 C                    -0.398219
      3 C                    -0.494237
      4 C                     0.506628
      5 C                    -0.139662
      6 C                     0.025517
      7 C                    -0.883498
      8 C                    -0.619576
      9 C                     1.967494
     10 C                    -0.631473
     11 O                    -0.643625
     12 O                    -0.574019
     13 H                     0.158988
     14 H                     0.185102
     15 H                     0.179987
     16 H                     0.159032
     17 O                    -0.321957
     18 C                    -0.401777
     19 C                    -0.840601
     20 C                    -0.321806
     21 C                    -0.036847
     22 C                     0.006033
     23 C                     0.007223
     24 C                    -0.103949
     25 C                    -0.283799
     26 C                    -0.365588
     27 C                    -0.710600
     28 Br                   -0.746359
     29 H                     0.295213
     30 H                     0.209742
     31 H                     0.187939
     32 H                     0.177135
     33 H                     0.165033
     34 H                     0.116780
     35 H                     0.120435
     36 H                     0.130640
     37 H                     0.130940
     38 H                     0.137014
     39 H                     0.138287
     40 H                     0.136685
     41 H                     0.136676
     42 H                     0.139148
     43 H                     0.140757
     44 H                     0.148771
     45 H                     0.146795
     46 H                     0.161833
     47 H                     0.158026
     48 H                     0.198465
     49 H                     0.196516
  ----------------------------------------
  Sum of atomic charges =    -2.000000

                    Cartesian Multipole Moments
 -----------------------------------------------------------------
    Charge (ESU x 10^10)
                -9.6064
    Dipole Moment (Debye)
         X     -53.5895      Y       9.7513      Z      14.7729
       Tot      56.4372
    Quadrupole Moments (Debye-Ang)
        XX    -988.7227     XY     213.6646     YY    -234.9140
        XZ     146.5889     YZ     -23.5423     ZZ    -227.8706

 Total job time:  769.27s(wall), 5410.09s(cpu)
        *  Thank you very much for using Q-Chem.  Have a nice day.  *
