 Q-Chem 5.4, Q-Chem, Inc., Pleasanton, CA (2021)
 Q-Chem 5.4.0 for Intel X86 EM64T Linux

User input:
--------------------------------------------------------------
$molecule
0 1
N                 -4.5250980000      1.0190300000     -0.5046900000
C                 -3.2994860000      0.4424730000     -0.4037560000
C                 -3.1613840000     -0.9638270000     -0.4177580000
Cl                -4.6034730000     -1.9510390000     -0.6085540000
C                 -1.9389620000     -1.5775300000     -0.2901160000
C                 -0.7792080000     -0.8167560000     -0.1389950000
C                  0.4962620000     -1.5699090000     -0.0112990000
O                  0.5136880000     -2.7922130000     -0.0322690000
C                  1.7473310000     -0.7851460000      0.1390390000
C                  2.9705410000     -1.4531160000      0.2518670000
C                  4.1476010000     -0.7288260000      0.3922900000
C                  4.1096830000      0.6683980000      0.4220570000
C                  2.8968050000      1.3372210000      0.3118270000
C                  1.7062440000      0.6157580000      0.1686560000
C                  0.4240410000      1.3785140000      0.0557610000
O                  0.4440690000      2.5941600000      0.1092790000
C                 -0.8497940000      0.5971460000     -0.1179390000
C                 -2.1085260000      1.2022730000     -0.2543780000
Br                -2.3685500000      3.1042600000     -0.2672750000
H                 -4.5910170000      2.0182480000     -0.6120190000
H                 -5.3207480000      0.4484990000     -0.7363020000
H                 -1.8530170000     -2.6558380000     -0.3044860000
H                  2.9716660000     -2.5356640000      0.2266450000
H                  5.0955040000     -1.2476290000      0.4790940000
H                  5.0285300000      1.2331170000      0.5318060000
H                  2.8472970000      2.4183960000      0.3341040000
$end
$rem
MAX_SCF_CYCLES=200
BASIS  =  6-311++G(d,p)
GUI  =  2
JOB_TYPE  =  SP
METHOD  =  B3LYP
SOLVENT_METHOD = PCM
$end
$pcm
theory = CPCM
$end
$solvent
dielectric 37.219
opticaldielectric 1.43
$end

--------------------------------------------------------------

             Standard Nuclear Orientation (Angstroms)
    I     Atom           X                Y                Z
 ----------------------------------------------------------------
    1      N      -4.5250980000     1.0190300000    -0.5046900000
    2      C      -3.2994860000     0.4424730000    -0.4037560000
    3      C      -3.1613840000    -0.9638270000    -0.4177580000
    4      Cl     -4.6034730000    -1.9510390000    -0.6085540000
    5      C      -1.9389620000    -1.5775300000    -0.2901160000
    6      C      -0.7792080000    -0.8167560000    -0.1389950000
    7      C       0.4962620000    -1.5699090000    -0.0112990000
    8      O       0.5136880000    -2.7922130000    -0.0322690000
    9      C       1.7473310000    -0.7851460000     0.1390390000
   10      C       2.9705410000    -1.4531160000     0.2518670000
   11      C       4.1476010000    -0.7288260000     0.3922900000
   12      C       4.1096830000     0.6683980000     0.4220570000
   13      C       2.8968050000     1.3372210000     0.3118270000
   14      C       1.7062440000     0.6157580000     0.1686560000
   15      C       0.4240410000     1.3785140000     0.0557610000
   16      O       0.4440690000     2.5941600000     0.1092790000
   17      C      -0.8497940000     0.5971460000    -0.1179390000
   18      C      -2.1085260000     1.2022730000    -0.2543780000
   19      Br     -2.3685500000     3.1042600000    -0.2672750000
   20      H      -4.5910170000     2.0182480000    -0.6120190000
   21      H      -5.3207480000     0.4484990000    -0.7363020000
   22      H      -1.8530170000    -2.6558380000    -0.3044860000
   23      H       2.9716660000    -2.5356640000     0.2266450000
   24      H       5.0955040000    -1.2476290000     0.4790940000
   25      H       5.0285300000     1.2331170000     0.5318060000
   26      H       2.8472970000     2.4183960000     0.3341040000
 ----------------------------------------------------------------

    9   -3777.5000434319      2.49e-06  Convergence criterion met
 Total energy in the final basis set =    -3777.5000434319

                    Orbital Energies (a.u.)
 --------------------------------------------------------------

 Alpha MOs
 -- Occupied --
********-101.5747 -62.4985 -56.3191 -56.3152 -56.3148 -19.1337 -19.1273
-14.3466 -10.2901 -10.2812 -10.2669 -10.2592 -10.2589 -10.2275 -10.2089
-10.2084 -10.2070 -10.2065 -10.1965 -10.1961 -10.1956 -10.1955  -9.4893
 -8.7074  -7.2539  -7.2442  -7.2437  -6.5391  -6.5262  -6.5251  -2.6499
 -2.6465  -2.6456  -2.6354  -2.6353  -1.0725  -1.0633  -0.9692  -0.8997
 -0.8889  -0.8750  -0.8257  -0.8013  -0.7775  -0.7614  -0.7570  -0.6893
 -0.6672  -0.6460  -0.6236  -0.5923  -0.5744  -0.5622  -0.5438  -0.5240
 -0.5008  -0.4881  -0.4848  -0.4632  -0.4621  -0.4572  -0.4507  -0.4475
 -0.4412  -0.4335  -0.4298  -0.4225  -0.3905  -0.3819  -0.3814  -0.3690
 -0.3674  -0.3420  -0.3410  -0.3241  -0.3196  -0.2854  -0.2848  -0.2776
 -0.2704  -0.2673  -0.2362

          Ground-State Mulliken Net Atomic Charges

     Atom                 Charge (a.u.)
  ----------------------------------------
      1 N                    -0.214963
      2 C                    -0.783593
      3 C                     0.896365
      4 Cl                    0.463709
      5 C                    -0.129451
      6 C                    -0.235417
      7 C                    -0.647348
      8 O                    -0.300763
      9 C                    -0.039322
     10 C                     0.118882
     11 C                    -0.418190
     12 C                    -0.487206
     13 C                     0.216626
     14 C                     0.192122
     15 C                    -1.134714
     16 O                    -0.185265
     17 C                     0.837695
     18 C                     0.311473
     19 Br                   -0.113350
     20 H                     0.294063
     21 H                     0.284416
     22 H                     0.236591
     23 H                     0.192247
     24 H                     0.226072
     25 H                     0.222946
     26 H                     0.196375
  ----------------------------------------
  Sum of atomic charges =     0.000000

                    Cartesian Multipole Moments
 -----------------------------------------------------------------
    Charge (ESU x 10^10)
                -0.0000
    Dipole Moment (Debye)
         X      -0.9744      Y       1.1639      Z      -0.6386
       Tot       1.6468
    Quadrupole Moments (Debye-Ang)
        XX     -86.8008     XY      -5.6390     YY    -142.1129
        XZ       7.1470     YZ      -1.6638     ZZ    -130.0587

 Total job time:  85.77s(wall), 408.64s(cpu)
        *  Thank you very much for using Q-Chem.  Have a nice day.  *
