 Q-Chem 5.4, Q-Chem, Inc., Pleasanton, CA (2021)
 Q-Chem 5.4.0 for Intel X86 EM64T Linux

User input:
--------------------------------------------------------------
$molecule
0 1
C                  3.4559990000      2.7435680000     -0.0320500000
C                  2.7431020000      1.4257560000      0.0135080000
C                  1.3938630000      1.3128640000     -0.0238880000
C                  0.6995250000      0.0406640000      0.0199980000
C                  1.5333760000     -1.1423590000      0.1078210000
C                  2.8864930000     -1.0974390000      0.1487160000
C                  3.7440110000     -2.3235680000      0.2394050000
C                  3.5817950000      0.2089280000      0.1032600000
O                  4.8084050000      0.2804920000      0.1378560000
C                 -0.6994590000     -0.0408710000     -0.0201890000
C                 -1.3939010000     -1.3130240000      0.0236660000
C                 -2.7431640000     -1.4257800000     -0.0133590000
C                 -3.4562510000     -2.7434450000      0.0321790000
C                 -3.5817740000     -0.2088510000     -0.1027890000
O                 -4.8083970000     -0.2802790000     -0.1371360000
C                 -2.8863310000      1.0974370000     -0.1486530000
C                 -1.5332040000      1.1422240000     -0.1079340000
C                 -3.7437580000      2.3235720000     -0.2394770000
H                  4.0799600000      2.8753200000      0.8565570000
H                  2.7506490000      3.5738320000     -0.0973060000
H                  4.1352890000      2.7851090000     -0.8882870000
H                  0.8152220000      2.2240400000     -0.0898870000
H                  1.0617980000     -2.1148860000      0.1430720000
H                  3.1373840000     -3.2303660000      0.2679870000
H                  4.4282410000     -2.3793980000     -0.6120850000
H                  4.3742000000     -2.2881850000      1.1326580000
H                 -0.8153050000     -2.2242570000      0.0892980000
H                 -4.1360390000     -2.7845860000      0.8880490000
H                 -4.0799150000     -2.8753300000     -0.8566260000
H                 -2.7511280000     -3.5738400000      0.0980370000
H                 -1.0615330000      2.1147150000     -0.1432420000
H                 -3.1371590000      3.2303990000     -0.2675190000
H                 -4.3733910000      2.2884210000     -1.1331670000
H                 -4.4286020000      2.3791240000      0.6115260000
$end

$rem
BASIS  =  6-311++G(d,p)
GUI  =  2
JOB_TYPE  =  SP
METHOD  =  B3LYP
SCF_CONVERGENCE  = 8
SOLVENT_METHOD = sm12
$end

$smx
solvent dimethylformamide
charges CM5
$end

--------------------------------------------------------------

             Standard Nuclear Orientation (Angstroms)
    I     Atom           X                Y                Z
 ----------------------------------------------------------------
    1      C       3.4559990000     2.7435680000    -0.0320500000
    2      C       2.7431020000     1.4257560000     0.0135080000
    3      C       1.3938630000     1.3128640000    -0.0238880000
    4      C       0.6995250000     0.0406640000     0.0199980000
    5      C       1.5333760000    -1.1423590000     0.1078210000
    6      C       2.8864930000    -1.0974390000     0.1487160000
    7      C       3.7440110000    -2.3235680000     0.2394050000
    8      C       3.5817950000     0.2089280000     0.1032600000
    9      O       4.8084050000     0.2804920000     0.1378560000
   10      C      -0.6994590000    -0.0408710000    -0.0201890000
   11      C      -1.3939010000    -1.3130240000     0.0236660000
   12      C      -2.7431640000    -1.4257800000    -0.0133590000
   13      C      -3.4562510000    -2.7434450000     0.0321790000
   14      C      -3.5817740000    -0.2088510000    -0.1027890000
   15      O      -4.8083970000    -0.2802790000    -0.1371360000
   16      C      -2.8863310000     1.0974370000    -0.1486530000
   17      C      -1.5332040000     1.1422240000    -0.1079340000
   18      C      -3.7437580000     2.3235720000    -0.2394770000
   19      H       4.0799600000     2.8753200000     0.8565570000
   20      H       2.7506490000     3.5738320000    -0.0973060000
   21      H       4.1352890000     2.7851090000    -0.8882870000
   22      H       0.8152220000     2.2240400000    -0.0898870000
   23      H       1.0617980000    -2.1148860000     0.1430720000
   24      H       3.1373840000    -3.2303660000     0.2679870000
   25      H       4.4282410000    -2.3793980000    -0.6120850000
   26      H       4.3742000000    -2.2881850000     1.1326580000
   27      H      -0.8153050000    -2.2242570000     0.0892980000
   28      H      -4.1360390000    -2.7845860000     0.8880490000
   29      H      -4.0799150000    -2.8753300000    -0.8566260000
   30      H      -2.7511280000    -3.5738400000     0.0980370000
   31      H      -1.0615330000     2.1147150000    -0.1432420000
   32      H      -3.1371590000     3.2303990000    -0.2675190000
   33      H      -4.3733910000     2.2884210000    -1.1331670000
   34      H      -4.4286020000     2.3791240000     0.6115260000
 ----------------------------------------------------------------

   14    -769.9767556476      8.32e-09  Convergence criterion met
 Total energy in the final basis set =     -769.9986955741

                    Orbital Energies (a.u.)
 --------------------------------------------------------------

 Alpha MOs
 -- Occupied --
-19.1147 -19.1147 -10.2601 -10.2601 -10.2243 -10.2238 -10.2010 -10.2010
-10.2010 -10.2010 -10.1970 -10.1970 -10.1970 -10.1970 -10.1690 -10.1690
-10.1690 -10.1690  -1.0449  -1.0449  -0.8909  -0.8590  -0.8085  -0.8040
 -0.7953  -0.7363  -0.7098  -0.6971  -0.6912  -0.6722  -0.6290  -0.6033
 -0.5790  -0.5752  -0.5244  -0.5228  -0.4807  -0.4737  -0.4730  -0.4506
 -0.4463  -0.4416  -0.4320  -0.4278  -0.4189  -0.4180  -0.4179  -0.4152
 -0.4133  -0.3925  -0.3892  -0.3840  -0.3823  -0.3799  -0.3791  -0.3747
 -0.3706  -0.3542  -0.3218  -0.2759  -0.2685  -0.2669  -0.2616  -0.2326

          Ground-State Mulliken Net Atomic Charges

     Atom                 Charge (a.u.)
  ----------------------------------------
      1 C                     0.035410
      2 C                     0.311208
      3 C                    -0.369628
      4 C                     2.376399
      5 C                    -0.369779
      6 C                     0.315638
      7 C                     0.039106
      8 C                    -3.371765
      9 O                    -0.339048
     10 C                     2.376474
     11 C                    -0.369794
     12 C                     0.311202
     13 C                     0.035404
     14 C                    -3.371519
     15 O                    -0.339026
     16 C                     0.315604
     17 C                    -0.369758
     18 C                     0.039119
     19 H                     0.162915
     20 H                     0.213711
     21 H                     0.162883
     22 H                     0.145972
     23 H                     0.147188
     24 H                     0.213783
     25 H                     0.163086
     26 H                     0.162819
     27 H                     0.146029
     28 H                     0.162797
     29 H                     0.162997
     30 H                     0.213719
     31 H                     0.147168
     32 H                     0.213791
     33 H                     0.162903
     34 H                     0.162993
  ----------------------------------------
  Sum of atomic charges =     0.000000

                    Cartesian Multipole Moments
 -----------------------------------------------------------------
    Charge (ESU x 10^10)
                 0.0000
    Dipole Moment (Debye)
         X      -0.0005      Y      -0.0005      Z      -0.0014
       Tot       0.0016
    Quadrupole Moments (Debye-Ang)
        XX    -151.8971     XY      -3.6081     YY     -89.7528
        XZ      -1.1631     YZ      -1.1024     ZZ    -108.8542

 Total job time:  936.81s(wall), 6631.94s(cpu)
        *  Thank you very much for using Q-Chem.  Have a nice day.  *
