 Gaussian 16, Revision A.03,
 Gaussian 16:  ES64L-G16RevA.03 25-Dec-2016

 --------------------------------------
 #P UB3LYP/6-311++G(d,p) nosym opt freq
 --------------------------------------

 --------
 Oxidized
 --------
 Symbolic Z-matrix:
 Charge =  0 Multiplicity = 1

 SCF Done:  E(UB3LYP) =  -769.978824019     A.U. after   15 cycles
 Optimization completed.
    -- Stationary point found.
 Normal termination of Gaussian 16 at Tue Jan  9 20:34:14 2024.

 ----------------------------------------------------------------------
 #P Geom=AllCheck Guess=TCheck SCRF=Check GenChk UB3LYP/6-311++G(d,p) F
 req
 ----------------------------------------------------------------------

 Structure from the checkpoint file:  "332.chk"
 --------
 Oxidized
 --------
 Charge =  0 Multiplicity = 1

                          Input orientation:
 ---------------------------------------------------------------------
 Center     Atomic      Atomic             Coordinates (Angstroms)
 Number     Number       Type             X           Y           Z
 ---------------------------------------------------------------------
      1          6           0        3.455999    2.743568   -0.032050
      2          6           0        2.743102    1.425756    0.013508
      3          6           0        1.393863    1.312864   -0.023888
      4          6           0        0.699525    0.040664    0.019998
      5          6           0        1.533376   -1.142359    0.107821
      6          6           0        2.886493   -1.097439    0.148716
      7          6           0        3.744011   -2.323568    0.239405
      8          6           0        3.581795    0.208928    0.103260
      9          8           0        4.808405    0.280492    0.137856
     10          6           0       -0.699459   -0.040871   -0.020189
     11          6           0       -1.393901   -1.313024    0.023666
     12          6           0       -2.743164   -1.425780   -0.013359
     13          6           0       -3.456251   -2.743445    0.032179
     14          6           0       -3.581774   -0.208851   -0.102789
     15          8           0       -4.808397   -0.280279   -0.137136
     16          6           0       -2.886331    1.097437   -0.148653
     17          6           0       -1.533204    1.142224   -0.107934
     18          6           0       -3.743758    2.323572   -0.239477
     19          1           0        4.079960    2.875320    0.856557
     20          1           0        2.750649    3.573832   -0.097306
     21          1           0        4.135289    2.785109   -0.888287
     22          1           0        0.815222    2.224040   -0.089887
     23          1           0        1.061798   -2.114886    0.143072
     24          1           0        3.137384   -3.230366    0.267987
     25          1           0        4.428241   -2.379398   -0.612085
     26          1           0        4.374200   -2.288185    1.132658
     27          1           0       -0.815305   -2.224257    0.089298
     28          1           0       -4.136039   -2.784586    0.888049
     29          1           0       -4.079915   -2.875330   -0.856626
     30          1           0       -2.751128   -3.573840    0.098037
     31          1           0       -1.061533    2.114715   -0.143242
     32          1           0       -3.137159    3.230399   -0.267519
     33          1           0       -4.373391    2.288421   -1.133167
     34          1           0       -4.428602    2.379124    0.611526
 ---------------------------------------------------------------------

 SCF Done:  E(UB3LYP) =  -769.978824019     A.U. after    1 cycles

 Alpha  occ. eigenvalues --  -19.11665 -19.11665 -10.26262 -10.26261 -10.23017
 Alpha  occ. eigenvalues --  -10.22966 -10.20750 -10.20750 -10.20749 -10.20749
 Alpha  occ. eigenvalues --  -10.20396 -10.20396 -10.20395 -10.20395 -10.17791
 Alpha  occ. eigenvalues --  -10.17791 -10.17790 -10.17790  -1.04639  -1.04638
 Alpha  occ. eigenvalues --   -0.89718  -0.86530  -0.81558  -0.81106  -0.80167
 Alpha  occ. eigenvalues --   -0.74392  -0.71790  -0.70479  -0.69927  -0.67796
 Alpha  occ. eigenvalues --   -0.63508  -0.61071  -0.58572  -0.58244  -0.53078
 Alpha  occ. eigenvalues --   -0.52981  -0.48722  -0.47949  -0.47791  -0.45585
 Alpha  occ. eigenvalues --   -0.45133  -0.45077  -0.43661  -0.43529  -0.42753
 Alpha  occ. eigenvalues --   -0.42633  -0.42618  -0.42276  -0.42269  -0.40165
 Alpha  occ. eigenvalues --   -0.39688  -0.39124  -0.38947  -0.38627  -0.38222
 Alpha  occ. eigenvalues --   -0.38119  -0.37789  -0.36105  -0.32711  -0.28302
 Alpha  occ. eigenvalues --   -0.27550  -0.26733  -0.26257  -0.23622
 Alpha virt. eigenvalues --   -0.14066  -0.04757  -0.03640  -0.01838  -0.00879
 Alpha virt. eigenvalues --   -0.00852  -0.00228   0.00833   0.01153   0.02163
 Alpha virt. eigenvalues --    0.02241   0.02357   0.02517   0.03196   0.03548

  Beta  occ. eigenvalues --  -19.11665 -19.11665 -10.26262 -10.26261 -10.23017
  Beta  occ. eigenvalues --  -10.22966 -10.20750 -10.20750 -10.20749 -10.20749
  Beta  occ. eigenvalues --  -10.20396 -10.20396 -10.20395 -10.20395 -10.17791
  Beta  occ. eigenvalues --  -10.17791 -10.17790 -10.17790  -1.04639  -1.04638
  Beta  occ. eigenvalues --   -0.89718  -0.86530  -0.81558  -0.81106  -0.80167
  Beta  occ. eigenvalues --   -0.74392  -0.71790  -0.70479  -0.69927  -0.67796
  Beta  occ. eigenvalues --   -0.63508  -0.61071  -0.58572  -0.58244  -0.53078
  Beta  occ. eigenvalues --   -0.52981  -0.48722  -0.47949  -0.47791  -0.45585
  Beta  occ. eigenvalues --   -0.45133  -0.45077  -0.43661  -0.43529  -0.42753
  Beta  occ. eigenvalues --   -0.42633  -0.42618  -0.42276  -0.42269  -0.40165
  Beta  occ. eigenvalues --   -0.39688  -0.39124  -0.38947  -0.38627  -0.38222
  Beta  occ. eigenvalues --   -0.38119  -0.37789  -0.36105  -0.32711  -0.28302
  Beta  occ. eigenvalues --   -0.27550  -0.26733  -0.26257  -0.23622
  Beta virt. eigenvalues --   -0.14066  -0.04757  -0.03640  -0.01838  -0.00879
  Beta virt. eigenvalues --   -0.00852  -0.00228   0.00833   0.01153   0.02163
  Beta virt. eigenvalues --    0.02241   0.02357   0.02517   0.03196   0.03548

 Mulliken charges and spin densities:
               1          2
     1  C   -0.167481  -0.000000
     2  C    0.437155   0.000000
     3  C   -0.638140   0.000000
     4  C    1.513673  -0.000000
     5  C   -0.638017   0.000000
     6  C    0.437382  -0.000000
     7  C   -0.167377  -0.000000
     8  C   -1.564697   0.000000
     9  O   -0.228417  -0.000000
    10  C    1.513675  -0.000000
    11  C   -0.638174   0.000000
    12  C    0.437238  -0.000000
    13  C   -0.167454   0.000000
    14  C   -1.564671   0.000000
    15  O   -0.228409  -0.000000
    16  C    0.437257  -0.000000
    17  C   -0.638142  -0.000000
    18  C   -0.167386   0.000000
    19  H    0.186866  -0.000000
    20  H    0.154209  -0.000000
    21  H    0.186908  -0.000000
    22  H   -0.020075  -0.000000
    23  H   -0.019950  -0.000000
    24  H    0.154202  -0.000000
    25  H    0.186935   0.000000
    26  H    0.186855   0.000000
    27  H   -0.019990   0.000000
    28  H    0.186892  -0.000000
    29  H    0.186898  -0.000000
    30  H    0.154205  -0.000000
    31  H   -0.019966  -0.000000
    32  H    0.154199   0.000000
    33  H    0.186887   0.000000
    34  H    0.186910   0.000000
 Sum of Mulliken charges =  -0.00000   0.00000

 Dipole moment (field-independent basis, Debye):
    X=             -0.0003    Y=             -0.0004    Z=             -0.0012  Tot=              0.0013
 Quadrupole moment (field-independent basis, Debye-Ang):
   XX=           -144.9614   YY=            -92.2911   ZZ=           -108.6501
   XY=             -3.0562   XZ=             -0.9802   YZ=             -0.9447

  Exact polarizability: 488.718  17.136 198.189  11.174  -4.093 109.184
 Approx polarizability:1120.313  49.809 271.483  27.395  -3.391 176.504

                      1                      2                      3
                      A                      A                      A
 Frequencies --     18.7516                41.8228                72.7842
 Red. masses --      3.4170                 6.9610                 5.8013
 Frc consts  --      0.0007                 0.0072                 0.0181
 IR Inten    --      0.0003                 4.8535                 0.0000

                      4                      5                      6
                      A                      A                      A
 Frequencies --    103.1039               113.2460               135.7169
 Red. masses --      3.6009                 4.1365                 1.0656
 Frc consts  --      0.0226                 0.0313                 0.0116
 IR Inten    --      9.0583                 1.4575                 0.0000

                      7                      8                      9
                      A                      A                      A
 Frequencies --    137.6755               138.2990               146.6001
 Red. masses --      1.0346                 1.1376                 1.0576
 Frc consts  --      0.0116                 0.0128                 0.0134
 IR Inten    --      0.0003                 0.0000                 0.5574

                     10                     11                     12
                      A                      A                      A
 Frequencies --    180.1015               221.6211               232.8943
 Red. masses --      2.7785                 2.7593                 3.3288
 Frc consts  --      0.0531                 0.0798                 0.1064
 IR Inten    --      0.0000                 0.0000                 0.0000

                     13                     14                     15
                      A                      A                      A
 Frequencies --    259.0674               263.6133               275.1806
 Red. masses --      2.6806                 3.3749                 2.6351
 Frc consts  --      0.1060                 0.1382                 0.1176
 IR Inten    --      0.0000                 0.0000                 2.8363

                     16                     17                     18
                      A                      A                      A
 Frequencies --    296.1427               307.0809               319.8658
 Red. masses --      4.2095                 4.7459                 3.8160
 Frc consts  --      0.2175                 0.2637                 0.2300
 IR Inten    --      0.5756                 0.0000                 0.0000

                     19                     20                     21
                      A                      A                      A
 Frequencies --    333.2297               351.2972               443.3718
 Red. masses --      4.6119                 6.3095                 2.9630
 Frc consts  --      0.3017                 0.4588                 0.3432
 IR Inten    --     17.1023                 0.0000                 0.0000

                     22                     23                     24
                      A                      A                      A
 Frequencies --    452.0125               475.9008               492.7899
 Red. masses --      3.1543                 6.1856                 4.6203
 Frc consts  --      0.3797                 0.8254                 0.6611
 IR Inten    --      0.0000                66.3480                 4.2173

                     25                     26                     27
                      A                      A                      A
 Frequencies --    511.8006               513.9183               556.4147
 Red. masses --      4.8878                 6.0456                 3.6296
 Frc consts  --      0.7543                 0.9408                 0.6621
 IR Inten    --      0.0000                 0.0000                 0.0239

                     28                     29                     30
                      A                      A                      A
 Frequencies --    605.0906               620.2346               647.4007
 Red. masses --      4.6514                 3.3588                 3.1581
 Frc consts  --      1.0034                 0.7613                 0.7799
 IR Inten    --      3.7346                 0.0000                 0.0000

                     31                     32                     33
                      A                      A                      A
 Frequencies --    675.3264               774.9883               778.6920
 Red. masses --      5.8264                 5.2618                 6.1835
 Frc consts  --      1.5656                 1.8620                 2.2091
 IR Inten    --      0.2363                 5.5790                 0.0000

                     34                     35                     36
                      A                      A                      A
 Frequencies --    779.5713               836.4038               859.7690
 Red. masses --      4.1824                 5.0624                 1.4209
 Frc consts  --      1.4976                 2.0866                 0.6189
 IR Inten    --      0.0000                39.5775                 0.0006

                     37                     38                     39
                      A                      A                      A
 Frequencies --    874.1449               890.4892               912.4154
 Red. masses --      1.2893                 1.5929                 1.4033
 Frc consts  --      0.5805                 0.7442                 0.6883
 IR Inten    --      0.0000                 0.0000                52.7565

                     40                     41                     42
                      A                      A                      A
 Frequencies --    933.4297               947.5470               955.2676
 Red. masses --      3.9689                 3.7918                 3.5457
 Frc consts  --      2.0374                 2.0058                 1.9064
 IR Inten    --      0.0000                32.6432                 0.0003

                     43                     44                     45
                      A                      A                      A
 Frequencies --    967.8772              1042.4061              1053.1071
 Red. masses --      2.1624                 1.8278                 1.4959
 Frc consts  --      1.1935                 1.1702                 0.9774
 IR Inten    --      5.6678                 0.0000                 0.0005

                     46                     47                     48
                      A                      A                      A
 Frequencies --   1055.4473              1055.7446              1056.4423
 Red. masses --      1.4952                 1.6535                 1.7154
 Frc consts  --      0.9813                 1.0859                 1.1280
 IR Inten    --      0.0000                 0.0005                 2.8888

                     49                     50                     51
                      A                      A                      A
 Frequencies --   1057.2058              1059.5040              1069.3515
 Red. masses --      1.5544                 1.5437                 1.6197
 Frc consts  --      1.0236                 1.0210                 1.0912
 IR Inten    --      0.0002                 5.8002               100.7345

                     52                     53                     54
                      A                      A                      A
 Frequencies --   1202.5687              1232.0340              1241.5706
 Red. masses --      2.4596                 4.3115                 1.7902
 Frc consts  --      2.0957                 3.8558                 1.6259
 IR Inten    --      0.0001               227.2142                 0.0001

                     55                     56                     57
                      A                      A                      A
 Frequencies --   1258.7182              1290.4815              1364.5488
 Red. masses --      8.2342                 1.8196                 3.1981
 Frc consts  --      7.6865                 1.7854                 3.5085
 IR Inten    --     21.0199                 0.4217                 0.0000

                     58                     59                     60
                      A                      A                      A
 Frequencies --   1373.8858              1378.3477              1412.2272
 Red. masses --      1.9445                 1.7265                 1.3350
 Frc consts  --      2.1625                 1.9326                 1.5687
 IR Inten    --      0.0000                30.7527                 0.0007

                     61                     62                     63
                      A                      A                      A
 Frequencies --   1413.9263              1416.0296              1416.8067
 Red. masses --      1.2364                 1.2730                 1.3007
 Frc consts  --      1.4564                 1.5039                 1.5383
 IR Inten    --     12.3855                27.4898                 0.0150

                     64                     65                     66
                      A                      A                      A
 Frequencies --   1438.3984              1444.2261              1465.7480
 Red. masses --      4.4897                 2.0103                 1.0429
 Frc consts  --      5.4730                 2.4705                 1.3202
 IR Inten    --      0.0000                 0.2531                 0.0079

                     67                     68                     69
                      A                      A                      A
 Frequencies --   1465.9400              1466.2154              1466.5061
 Red. masses --      1.0431                 1.0435                 1.0435
 Frc consts  --      1.3207                 1.3218                 1.3223
 IR Inten    --      0.0037                 0.0526                30.9463

                     70                     71                     72
                      A                      A                      A
 Frequencies --   1476.9923              1481.2024              1486.1899
 Red. masses --      1.1749                 1.1104                 1.0796
 Frc consts  --      1.5101                 1.4354                 1.4049
 IR Inten    --      0.0000                 0.0000                15.0108

                     73                     74                     75
                      A                      A                      A
 Frequencies --   1486.4335              1531.7473              1612.8656
 Red. masses --      1.1528                 3.0192                 6.0700
 Frc consts  --      1.5008                 4.1737                 9.3033
 IR Inten    --      2.2938                 0.0000                 0.0000

                     76                     77                     78
                      A                      A                      A
 Frequencies --   1622.0850              1662.6818              1663.0371
 Red. masses --      6.2999                 5.8632                11.9344
 Frc consts  --      9.7663                 9.5500                19.4471
 IR Inten    --     49.5426                 0.0056              1298.4583

                     79                     80                     81
                      A                      A                      A
 Frequencies --   1675.9122              1688.5630              3031.3115
 Red. masses --     11.6524                 6.8135                 1.0353
 Frc consts  --     19.2826                11.4461                 5.6050
 IR Inten    --      0.0000               134.5985                 3.6191

                     82                     83                     84
                      A                      A                      A
 Frequencies --   3031.3676              3031.5288              3031.7333
 Red. masses --      1.0353                 1.0353                 1.0353
 Frc consts  --      5.6052                 5.6060                 5.6068
 IR Inten    --     47.5292                26.1041                 0.1662

                     85                     86                     87
                      A                      A                      A
 Frequencies --   3081.3347              3081.4164              3081.4494
 Red. masses --      1.0988                 1.0988                 1.0988
 Frc consts  --      6.1465                 6.1469                 6.1470
 IR Inten    --      1.0787                 7.7342                 2.5163

                     88                     89                     90
                      A                      A                      A
 Frequencies --   3081.5340              3111.1112              3111.2323
 Red. masses --      1.0988                 1.1033                 1.1033
 Frc consts  --      6.1475                 6.2920                 6.2922
 IR Inten    --     19.9215                 1.5981                16.1654

                     91                     92                     93
                      A                      A                      A
 Frequencies --   3111.3075              3111.4983              3186.2720
 Red. masses --      1.1033                 1.1032                 1.0905
 Frc consts  --      6.2926                 6.2930                 6.5229
 IR Inten    --     25.0525                 0.0730                 0.0026

                     94                     95                     96
                      A                      A                      A
 Frequencies --   3187.2503              3210.8605              3213.2855
 Red. masses --      1.0906                 1.0855                 1.0869
 Frc consts  --      6.5277                 6.5936                 6.6120
 IR Inten    --      5.2595                29.5683                 0.0007

 - Thermochemistry -
 -------------------
 Temperature   298.150 Kelvin.  Pressure   1.00000 Atm.
 Atom     1 has atomic number  6 and mass  12.00000

 Molecular mass:   240.11503 amu.
 Principal axes and moments of inertia in atomic units:
                           1         2         3
     Eigenvalues --  2092.267038445.52489**********
           X            0.99789  -0.05660  -0.03169
           Y            0.05819   0.99697   0.05170
           Z            0.02866  -0.05344   0.99816
 This molecule is an asymmetric top.
 Rotational symmetry number  1.
 Warning -- assumption of classical behavior for rotation
           may cause significant error
 Rotational temperatures (Kelvin)      0.04140     0.01026     0.00825
 Rotational constants (GHZ):           0.86258     0.21369     0.17198
 Zero-point vibrational energy     722141.0 (Joules/Mol)
                                  172.59583 (Kcal/Mol)
 Warning -- explicit consideration of  29 degrees of freedom as
           vibrations may cause significant error
 Vibrational temperatures:     26.98    60.17   104.72   148.34   162.94
          (Kelvin)            195.27   198.08   198.98   210.92   259.13
                              318.86   335.08   372.74   379.28   395.92
                              426.08   441.82   460.22   479.44   505.44
                              637.91   650.35   684.72   709.01   736.37
                              739.41   800.56   870.59   892.38   931.47
                              971.64  1115.04  1120.36  1121.63  1203.40
                             1237.02  1257.70  1281.22  1312.76  1343.00
                             1363.31  1374.42  1392.56  1499.79  1515.19
                             1518.55  1518.98  1519.98  1521.08  1524.39
                             1538.56  1730.23  1772.62  1786.34  1811.01
                             1856.72  1963.28  1976.72  1983.13  2031.88
                             2034.32  2037.35  2038.47  2069.53  2077.92
                             2108.88  2109.16  2109.56  2109.98  2125.06
                             2131.12  2138.30  2138.65  2203.84  2320.55
                             2333.82  2392.23  2392.74  2411.26  2429.47
                             4361.38  4361.46  4361.69  4361.99  4433.35
                             4433.47  4433.52  4433.64  4476.20  4476.37
                             4476.48  4476.75  4584.33  4585.74  4619.71
                             4623.20

 Zero-point correction=                           0.275049 (Hartree/Particle)
 Thermal correction to Energy=                    0.292858
 Thermal correction to Enthalpy=                  0.293802
 Thermal correction to Gibbs Free Energy=         0.228875
 Sum of electronic and zero-point Energies=           -769.703775
 Sum of electronic and thermal Energies=              -769.685966
 Sum of electronic and thermal Enthalpies=            -769.685022
 Sum of electronic and thermal Free Energies=         -769.749949

                     E (Thermal)             CV                S
                      KCal/Mol        Cal/Mol-Kelvin    Cal/Mol-Kelvin
 Total                  183.771             66.807            136.650
 Electronic               0.000              0.000              0.000
 Translational            0.889              2.981             42.329
 Rotational               0.889              2.981             33.583
 Vibrational            181.994             60.846             60.738
 Vibration     1          0.593              1.986              6.762
 Vibration     2          0.594              1.980              5.171
 Vibration     3          0.599              1.967              4.077
 Vibration     4          0.605              1.947              3.395
 Vibration     5          0.607              1.938              3.212
 Vibration     6          0.614              1.918              2.863
 Vibration     7          0.614              1.916              2.836
 Vibration     8          0.614              1.915              2.827
 Vibration     9          0.617              1.906              2.716
 Vibration    10          0.629              1.867              2.327
 Vibration    11          0.648              1.808              1.946
 Vibration    12          0.654              1.791              1.857
 Vibration    13          0.668              1.747              1.668
 Vibration    14          0.670              1.740              1.638
 Vibration    15          0.677              1.719              1.563
 Vibration    16          0.690              1.681              1.439
 Vibration    17          0.697              1.660              1.378
 Vibration    18          0.706              1.636              1.311
 Vibration    19          0.715              1.609              1.244
 Vibration    20          0.728              1.573              1.160
 Vibration    21          0.803              1.376              0.816
 Vibration    22          0.811              1.356              0.790
 Vibration    23          0.833              1.304              0.721
 Vibration    24          0.848              1.266              0.676
 Vibration    25          0.867              1.224              0.629
 Vibration    26          0.869              1.219              0.624
 Vibration    27          0.912              1.126              0.531
 Vibration    28          0.964              1.021              0.441
 Vibration    29          0.980              0.989              0.416

                           ! Non-Optimized Parameters !
 Normal termination of Gaussian 16 at Tue Jan  9 21:48:50 2024.
