 Gaussian 16, Revision A.03,
 Gaussian 16:  ES64L-G16RevA.03 25-Dec-2016

 --------------------------------------
 #P UB3LYP/6-311++G(d,p) nosym opt freq
 --------------------------------------

 --------
 Oxidized
 --------
 Symbolic Z-matrix:
 Charge =  0 Multiplicity = 1

 SCF Done:  E(UB3LYP) =  -744.312452633     A.U. after   15 cycles
 SCF Done:  E(UB3LYP) =  -744.329156599     A.U. after   14 cycles
 SCF Done:  E(UB3LYP) =  -744.332773291     A.U. after   13 cycles
 SCF Done:  E(UB3LYP) =  -744.334413371     A.U. after   13 cycles
 SCF Done:  E(UB3LYP) =  -744.334548896     A.U. after   11 cycles
 SCF Done:  E(UB3LYP) =  -744.334576886     A.U. after   11 cycles
 SCF Done:  E(UB3LYP) =  -744.334592895     A.U. after   10 cycles
 SCF Done:  E(UB3LYP) =  -744.334620780     A.U. after   11 cycles
 SCF Done:  E(UB3LYP) =  -744.334677041     A.U. after   12 cycles
 SCF Done:  E(UB3LYP) =  -744.334749619     A.U. after   11 cycles
 SCF Done:  E(UB3LYP) =  -744.334694941     A.U. after   12 cycles
 SCF Done:  E(UB3LYP) =  -744.334871190     A.U. after   12 cycles
 SCF Done:  E(UB3LYP) =  -744.334795032     A.U. after   12 cycles
 SCF Done:  E(UB3LYP) =  -744.334893651     A.U. after   12 cycles
 SCF Done:  E(UB3LYP) =  -744.334792010     A.U. after   12 cycles
 SCF Done:  E(UB3LYP) =  -744.334902124     A.U. after   12 cycles
 SCF Done:  E(UB3LYP) =  -744.334907699     A.U. after   10 cycles
 SCF Done:  E(UB3LYP) =  -744.334907789     A.U. after    9 cycles
 SCF Done:  E(UB3LYP) =  -744.334907838     A.U. after    9 cycles
 Optimization completed.
    -- Stationary point found.
 Normal termination of Gaussian 16 at Thu Dec 21 07:12:24 2023.

 ----------------------------------------------------------------------
 #P Geom=AllCheck Guess=TCheck SCRF=Check GenChk UB3LYP/6-311++G(d,p) F
 req
 ----------------------------------------------------------------------

 Structure from the checkpoint file:  "151.chk"
 --------
 Oxidized
 --------
 Charge =  0 Multiplicity = 1

                          Input orientation:
 ---------------------------------------------------------------------
 Center     Atomic      Atomic             Coordinates (Angstroms)
 Number     Number       Type             X           Y           Z
 ---------------------------------------------------------------------
      1          7           0       -4.512357   -0.889323   -0.777449
      2          6           0       -3.268240   -0.640872   -0.232324
      3          6           0       -3.067590   -0.710899    1.161737
      4          6           0       -1.812099   -0.505927    1.702080
      5          6           0       -0.709412   -0.226056    0.883338
      6          6           0        0.619350   -0.011990    1.494120
      7          8           0        0.792463   -0.070104    2.704030
      8          6           0        1.759541    0.281583    0.570300
      9          6           0        3.032740    0.487464    1.108650
     10          6           0        4.110010    0.762002    0.273777
     11          6           0        3.925246    0.834020   -1.109676
     12          6           0        2.662945    0.631309   -1.654439
     13          6           0        1.573705    0.354222   -0.821850
     14          6           0        0.230318    0.141697   -1.433954
     15          8           0        0.064426    0.208858   -2.641452
     16          6           0       -0.906112   -0.156479   -0.509328
     17          6           0       -2.168001   -0.362226   -1.055727
     18          1           0       -5.315455   -0.819208   -0.172827
     19          1           0       -4.676812   -0.593877   -1.726832
     20          1           0       -3.908585   -0.930877    1.811465
     21          1           0       -1.656489   -0.557745    2.772812
     22          1           0        3.152591    0.427077    2.183290
     23          1           0        5.095289    0.920402    0.697656
     24          1           0        4.766621    1.048101   -1.758977
     25          1           0        2.495854    0.682391   -2.723255
     26          1           0       -2.279947   -0.303542   -2.132493
 ---------------------------------------------------------------------

 SCF Done:  E(UB3LYP) =  -744.334907838     A.U. after    1 cycles

 Alpha  occ. eigenvalues --  -19.12260 -19.11353 -14.34872 -10.27457 -10.26741
 Alpha  occ. eigenvalues --  -10.24584 -10.20501 -10.20292 -10.20221 -10.19709
 Alpha  occ. eigenvalues --  -10.19639 -10.19544 -10.19463 -10.19385 -10.19317
 Alpha  occ. eigenvalues --  -10.19235 -10.19091  -1.05647  -1.04701  -0.95204
 Alpha  occ. eigenvalues --   -0.88620  -0.87001  -0.80280  -0.77514  -0.77323
 Alpha  occ. eigenvalues --   -0.75791  -0.68448  -0.66619  -0.64111  -0.62022
 Alpha  occ. eigenvalues --   -0.58426  -0.56681  -0.56030  -0.53744  -0.51132
 Alpha  occ. eigenvalues --   -0.49429  -0.48453  -0.47312  -0.44948  -0.44770
 Alpha  occ. eigenvalues --   -0.44646  -0.44432  -0.44211  -0.43138  -0.41286
 Alpha  occ. eigenvalues --   -0.40687  -0.40551  -0.37985  -0.37407  -0.37316
 Alpha  occ. eigenvalues --   -0.36155  -0.33090  -0.28156  -0.27649  -0.27626
 Alpha  occ. eigenvalues --   -0.27266  -0.26311  -0.23445
 Alpha virt. eigenvalues --   -0.10802  -0.06675  -0.03007  -0.02287  -0.01984
 Alpha virt. eigenvalues --   -0.00488   0.00383   0.01267   0.01693   0.03029
 Alpha virt. eigenvalues --    0.03510   0.03869   0.04110   0.04205   0.05407

  Beta  occ. eigenvalues --  -19.12260 -19.11353 -14.34872 -10.27457 -10.26741
  Beta  occ. eigenvalues --  -10.24584 -10.20501 -10.20292 -10.20221 -10.19709
  Beta  occ. eigenvalues --  -10.19639 -10.19544 -10.19463 -10.19385 -10.19317
  Beta  occ. eigenvalues --  -10.19235 -10.19091  -1.05647  -1.04701  -0.95204
  Beta  occ. eigenvalues --   -0.88620  -0.87001  -0.80280  -0.77514  -0.77323
  Beta  occ. eigenvalues --   -0.75791  -0.68448  -0.66619  -0.64111  -0.62022
  Beta  occ. eigenvalues --   -0.58426  -0.56681  -0.56030  -0.53744  -0.51132
  Beta  occ. eigenvalues --   -0.49429  -0.48453  -0.47312  -0.44948  -0.44770
  Beta  occ. eigenvalues --   -0.44646  -0.44432  -0.44211  -0.43138  -0.41286
  Beta  occ. eigenvalues --   -0.40687  -0.40551  -0.37985  -0.37407  -0.37316
  Beta  occ. eigenvalues --   -0.36155  -0.33090  -0.28156  -0.27649  -0.27626
  Beta  occ. eigenvalues --   -0.27266  -0.26311  -0.23445
  Beta virt. eigenvalues --   -0.10802  -0.06675  -0.03007  -0.02287  -0.01984
  Beta virt. eigenvalues --   -0.00488   0.00383   0.01267   0.01693   0.03029
  Beta virt. eigenvalues --    0.03510   0.03869   0.04110   0.04205   0.05407

 Mulliken charges and spin densities:
               1          2
     1  N   -0.296735  -0.000000
     2  C   -0.402688   0.000000
     3  C    0.008067   0.000000
     4  C    0.197763   0.000000
     5  C    0.167113  -0.000000
     6  C   -0.687207   0.000000
     7  O   -0.232355   0.000000
     8  C    0.134548  -0.000000
     9  C    0.172385   0.000000
    10  C   -0.365762  -0.000000
    11  C   -0.356182  -0.000000
    12  C    0.142236   0.000000
    13  C    0.298037  -0.000000
    14  C   -0.822933   0.000000
    15  O   -0.215767   0.000000
    16  C    0.542614  -0.000000
    17  C   -0.020664  -0.000000
    18  H    0.252418   0.000000
    19  H    0.255347   0.000000
    20  H    0.166570   0.000000
    21  H    0.185523  -0.000000
    22  H    0.185487  -0.000000
    23  H    0.174046  -0.000000
    24  H    0.174199   0.000000
    25  H    0.181297  -0.000000
    26  H    0.162644  -0.000000
 Sum of Mulliken charges =  -0.00000  -0.00000

 Dipole moment (field-independent basis, Debye):
    X=             -2.4861    Y=              0.3152    Z=             -0.7598  Tot=              2.6186
 Quadrupole moment (field-independent basis, Debye-Ang):
   XX=            -61.2846   YY=           -101.6482   ZZ=           -107.2854
   XY=              3.9023   XZ=             -1.7687   YZ=             -0.7245

  Exact polarizability: 277.815  37.203  93.306   7.226  -6.769 191.615
 Approx polarizability: 405.591  51.196 148.598  32.355 -11.750 377.401

                      1                      2                      3
                      A                      A                      A
 Frequencies --     40.3854                93.4651               118.2223
 Red. masses --      7.2403                 4.5711                 5.1837
 Frc consts  --      0.0070                 0.0235                 0.0427
 IR Inten    --      7.3345                 0.2825                 0.0408

                      4                      5                      6
                      A                      A                      A
 Frequencies --    144.1728               189.4460               197.5411
 Red. masses --      6.3846                 4.8820                 5.2064
 Frc consts  --      0.0782                 0.1032                 0.1197
 IR Inten    --      0.5310                 2.3666                 1.5892

                      7                      8                      9
                      A                      A                      A
 Frequencies --    279.8377               284.5644               332.8099
 Red. masses --      5.8455                 4.8426                 7.3535
 Frc consts  --      0.2697                 0.2310                 0.4799
 IR Inten    --      0.1987                 5.1018                 1.4958

                     10                     11                     12
                      A                      A                      A
 Frequencies --    366.6135               386.5725               395.2691
 Red. masses --      1.0882                 5.9916                 6.3643
 Frc consts  --      0.0862                 0.5275                 0.5858
 IR Inten    --     22.6283                 6.6387                27.9240

                     13                     14                     15
                      A                      A                      A
 Frequencies --    416.1607               421.5775               437.5546
 Red. masses --      2.7726                 1.4587                 4.2404
 Frc consts  --      0.2829                 0.1527                 0.4783
 IR Inten    --     52.0802               319.8388                 8.9862

                     16                     17                     18
                      A                      A                      A
 Frequencies --    448.3926               458.6763               476.1469
 Red. masses --      3.6167                 4.0966                12.2247
 Frc consts  --      0.4284                 0.5078                 1.6329
 IR Inten    --      0.0256                 6.4776                 0.2805

                     19                     20                     21
                      A                      A                      A
 Frequencies --    560.2136               591.3578               650.2212
 Red. masses --      4.4411                 6.0862                 6.7162
 Frc consts  --      0.8212                 1.2540                 1.6730
 IR Inten    --      6.6957                 6.8528                 8.2824

                     22                     23                     24
                      A                      A                      A
 Frequencies --    674.3333               678.0783               702.4711
 Red. masses --      3.6058                 6.7350                 6.5672
 Frc consts  --      0.9661                 1.8245                 1.9094
 IR Inten    --      9.0884                 0.7715                 0.6038

                     25                     26                     27
                      A                      A                      A
 Frequencies --    726.1029               736.1662               761.6100
 Red. masses --      4.0257                 2.2567                 6.5778
 Frc consts  --      1.2505                 0.7206                 2.2480
 IR Inten    --      6.1119                71.0154                 4.4132

                     28                     29                     30
                      A                      A                      A
 Frequencies --    798.0032               810.2408               850.5827
 Red. masses --      4.1460                 1.9883                 1.6103
 Frc consts  --      1.5556                 0.7691                 0.6864
 IR Inten    --      0.0270                 3.9715                24.7699

                     31                     32                     33
                      A                      A                      A
 Frequencies --    868.4367               908.4403               917.2533
 Red. masses --      6.0654                 1.4749                 1.4178
 Frc consts  --      2.6951                 0.7171                 0.7028
 IR Inten    --     15.3945                12.7378                 1.0349

                     34                     35                     36
                      A                      A                      A
 Frequencies --    942.5628               994.1251               998.9339
 Red. masses --      7.1577                 1.3325                 3.0274
 Frc consts  --      3.7466                 0.7759                 1.7799
 IR Inten    --     48.8712                 0.6476                24.2800

                     37                     38                     39
                      A                      A                      A
 Frequencies --   1002.6140              1017.1364              1056.8454
 Red. masses --      1.3858                 1.3232                 1.9497
 Frc consts  --      0.8208                 0.8066                 1.2830
 IR Inten    --      2.6452                 0.0214                 0.7686

                     40                     41                     42
                      A                      A                      A
 Frequencies --   1079.7661              1109.4923              1124.0294
 Red. masses --      1.5492                 2.7741                 1.9206
 Frc consts  --      1.0642                 2.0119                 1.4297
 IR Inten    --      4.8518                 2.3018                20.9600

                     43                     44                     45
                      A                      A                      A
 Frequencies --   1170.2182              1182.1437              1195.9778
 Red. masses --      1.4747                 1.2248                 2.1219
 Frc consts  --      1.1898                 1.0084                 1.7882
 IR Inten    --      7.4477                22.0271                 6.6112

                     46                     47                     48
                      A                      A                      A
 Frequencies --   1237.7665              1269.3986              1297.2903
 Red. masses --      1.7627                 1.9754                 2.2072
 Frc consts  --      1.5911                 1.8754                 2.1886
 IR Inten    --     13.6597                21.8458               181.4284

                     49                     50                     51
                      A                      A                      A
 Frequencies --   1319.3210              1344.9699              1355.7402
 Red. masses --      3.5444                 2.8181                 7.3705
 Frc consts  --      3.6349                 3.0035                 7.9818
 IR Inten    --    429.5223               269.0280               102.3643

                     52                     53                     54
                      A                      A                      A
 Frequencies --   1377.2881              1475.2524              1484.2730
 Red. masses --      7.1479                 2.8992                 2.9426
 Frc consts  --      7.9887                 3.7175                 3.8195
 IR Inten    --      4.3902                 9.2249                 5.3934

                     55                     56                     57
                      A                      A                      A
 Frequencies --   1503.5718              1527.3209              1598.6338
 Red. masses --      2.6331                 3.2009                 6.8160
 Frc consts  --      3.5073                 4.3992                10.2630
 IR Inten    --      2.6035                11.4637                 1.4328

                     58                     59                     60
                      A                      A                      A
 Frequencies --   1612.9619              1627.4014              1634.7369
 Red. masses --      6.8984                 5.7163                 4.4116
 Frc consts  --     10.5742                 8.9198                 6.9461
 IR Inten    --     39.2130               227.8341               128.0599

                     61                     62                     63
                      A                      A                      A
 Frequencies --   1661.7366              1708.2418              1725.4798
 Red. masses --      1.2731                12.1246                11.8427
 Frc consts  --      2.0713                20.8456                20.7740
 IR Inten    --    273.6589                46.5695               248.8136

                     64                     65                     66
                      A                      A                      A
 Frequencies --   3161.5606              3168.5354              3181.1545
 Red. masses --      1.0895                 1.0869                 1.0903
 Frc consts  --      6.4161                 6.4291                 6.5005
 IR Inten    --     14.8706                 3.6951                 7.1503

                     67                     68                     69
                      A                      A                      A
 Frequencies --   3183.1873              3197.8402              3199.2431
 Red. masses --      1.0918                 1.0926                 1.0924
 Frc consts  --      6.5182                 6.5830                 6.5877
 IR Inten    --     12.1898                 4.8909                 0.6534

                     70                     71                     72
                      A                      A                      A
 Frequencies --   3201.8067              3589.3800              3695.8039
 Red. masses --      1.0948                 1.0466                 1.1017
 Frc consts  --      6.6124                 7.9442                 8.8664
 IR Inten    --     11.9767                76.8955                27.2432

 - Thermochemistry -
 -------------------
 Temperature   298.150 Kelvin.  Pressure   1.00000 Atm.
 Atom     1 has atomic number  7 and mass  14.00307

 Molecular mass:   223.06333 amu.
 Principal axes and moments of inertia in atomic units:
                           1         2         3
     Eigenvalues --  1707.157015347.060547053.34134
           X            0.98074   0.03554  -0.19206
           Y            0.19418  -0.07090   0.97840
           Z           -0.02116   0.99685   0.07644
 This molecule is an asymmetric top.
 Rotational symmetry number  1.
 Warning -- assumption of classical behavior for rotation
           may cause significant error
 Rotational temperatures (Kelvin)      0.05074     0.01620     0.01228
 Rotational constants (GHZ):           1.05716     0.33752     0.25587
 Zero-point vibrational energy     514003.4 (Joules/Mol)
                                  122.84977 (Kcal/Mol)
 Warning -- explicit consideration of  20 degrees of freedom as
           vibrations may cause significant error
 Vibrational temperatures:     58.11   134.48   170.10   207.43   272.57
          (Kelvin)            284.22   402.62   409.42   478.84   527.48
                              556.19   568.70   598.76   606.56   629.54
                              645.14   659.93   685.07   806.02   850.83
                              935.52   970.22   975.60  1010.70  1044.70
                             1059.18  1095.79  1148.15  1165.76  1223.80
                             1249.49  1307.04  1319.72  1356.14  1430.32
                             1437.24  1442.54  1463.43  1520.56  1553.54
                             1596.31  1617.23  1683.68  1700.84  1720.75
                             1780.87  1826.38  1866.51  1898.21  1935.11
                             1950.61  1981.61  2122.56  2135.54  2163.30
                             2197.47  2300.08  2320.69  2341.47  2352.02
                             2390.87  2457.78  2482.58  4548.78  4558.82
                             4576.97  4579.90  4600.98  4603.00  4606.69
                             5164.32  5317.44

 Zero-point correction=                           0.195774 (Hartree/Particle)
 Thermal correction to Energy=                    0.208549
 Thermal correction to Enthalpy=                  0.209493
 Thermal correction to Gibbs Free Energy=         0.156612
 Sum of electronic and zero-point Energies=           -744.139134
 Sum of electronic and thermal Energies=              -744.126359
 Sum of electronic and thermal Enthalpies=            -744.125415
 Sum of electronic and thermal Free Energies=         -744.178296

                     E (Thermal)             CV                S
                      KCal/Mol        Cal/Mol-Kelvin    Cal/Mol-Kelvin
 Total                  130.866             51.881            111.298
 Electronic               0.000              0.000              0.000
 Translational            0.889              2.981             42.109
 Rotational               0.889              2.981             32.532
 Vibrational            129.089             45.920             36.657
 Vibration     1          0.594              1.981              5.240
 Vibration     2          0.602              1.954              3.586
 Vibration     3          0.608              1.934              3.129
 Vibration     4          0.616              1.909              2.748
 Vibration     5          0.633              1.854              2.233
 Vibration     6          0.637              1.843              2.156
 Vibration     7          0.680              1.711              1.535
 Vibration     8          0.683              1.702              1.506
 Vibration     9          0.715              1.610              1.246
 Vibration    10          0.740              1.541              1.094
 Vibration    11          0.755              1.499              1.013
 Vibration    12          0.762              1.480              0.980
 Vibration    13          0.779              1.435              0.905
 Vibration    14          0.784              1.423              0.887
 Vibration    15          0.798              1.388              0.834
 Vibration    16          0.807              1.364              0.801
 Vibration    17          0.817              1.342              0.770
 Vibration    18          0.833              1.303              0.721
 Vibration    19          0.916              1.117              0.523
 Vibration    20          0.949              1.050              0.465

 Optimization completed.
    -- Stationary point found.
 Normal termination of Gaussian 16 at Thu Dec 21 08:22:51 2023.
