 Q-Chem 5.4, Q-Chem, Inc., Pleasanton, CA (2021)
 Q-Chem 5.4.0 for Intel X86 EM64T Linux

User input:
--------------------------------------------------------------
$molecule
-1 2
C                 -0.9279480000      2.1152020000      0.0029000000
C                 -2.0842000000      1.2702520000     -0.0669450000
C                 -2.0418280000     -0.0887470000     -0.1402570000
C                 -0.8350630000     -0.8628380000     -0.1578110000
C                  0.3709810000     -0.0286290000     -0.0668000000
C                  0.3278950000      1.3525730000      0.0076530000
O                 -0.9836740000      3.3749770000      0.0514450000
O                 -0.8123410000     -2.1215480000     -0.2451910000
C                  1.5952830000      2.1666900000      0.1015050000
C                  1.6868900000     -0.7676710000     -0.0566260000
O                 -3.3373310000     -0.5907060000     -0.2723140000
O                 -3.4088520000      1.7020220000     -0.1486680000
C                 -4.1483230000      0.5144720000      0.1058700000
H                  2.1819260000      1.9067380000      0.9920030000
H                  1.3400850000      3.2260860000      0.1489830000
H                  2.2494160000      2.0034780000     -0.7645400000
H                  1.4981550000     -1.8401110000     -0.1195660000
H                  2.2612580000     -0.5651310000      0.8564670000
H                  2.3247510000     -0.4753970000     -0.9006180000
H                 -5.0648940000      0.5177880000     -0.4861940000
H                 -4.3674050000      0.4492880000      1.1868040000
$end

$rem
BASIS  =  6-311++G(d,p)
GUI  =  2
JOB_TYPE  =  SP
METHOD  =  B3LYP
SCF_CONVERGENCE  = 8
SOLVENT_METHOD = sm12
$end

$smx
solvent dimethylformamide
charges CM5
$end

--------------------------------------------------------------

             Standard Nuclear Orientation (Angstroms)
    I     Atom           X                Y                Z
 ----------------------------------------------------------------
    1      C      -0.9279480000     2.1152020000     0.0029000000
    2      C      -2.0842000000     1.2702520000    -0.0669450000
    3      C      -2.0418280000    -0.0887470000    -0.1402570000
    4      C      -0.8350630000    -0.8628380000    -0.1578110000
    5      C       0.3709810000    -0.0286290000    -0.0668000000
    6      C       0.3278950000     1.3525730000     0.0076530000
    7      O      -0.9836740000     3.3749770000     0.0514450000
    8      O      -0.8123410000    -2.1215480000    -0.2451910000
    9      C       1.5952830000     2.1666900000     0.1015050000
   10      C       1.6868900000    -0.7676710000    -0.0566260000
   11      O      -3.3373310000    -0.5907060000    -0.2723140000
   12      O      -3.4088520000     1.7020220000    -0.1486680000
   13      C      -4.1483230000     0.5144720000     0.1058700000
   14      H       2.1819260000     1.9067380000     0.9920030000
   15      H       1.3400850000     3.2260860000     0.1489830000
   16      H       2.2494160000     2.0034780000    -0.7645400000
   17      H       1.4981550000    -1.8401110000    -0.1195660000
   18      H       2.2612580000    -0.5651310000     0.8564670000
   19      H       2.3247510000    -0.4753970000    -0.9006180000
   20      H      -5.0648940000     0.5177880000    -0.4861940000
   21      H      -4.3674050000     0.4492880000     1.1868040000
 ----------------------------------------------------------------

   16    -648.8722071948      5.46e-09  Convergence criterion met
 Total energy in the final basis set =     -648.9578770132

                    Orbital Energies (a.u.)
 --------------------------------------------------------------

 Alpha MOs
 -- Occupied --
-19.1569 -19.1569 -19.0753 -19.0753 -10.2810 -10.2238 -10.2238 -10.2166
-10.2159 -10.1724 -10.1718 -10.1638 -10.1638  -1.1201  -1.0253  -0.9975
 -0.9932  -0.8346  -0.7812  -0.7319  -0.6954  -0.6758  -0.6395  -0.5866
 -0.5771  -0.5207  -0.5122  -0.4972  -0.4587  -0.4427  -0.4396  -0.4106
 -0.4057  -0.4037  -0.3936  -0.3907  -0.3885  -0.3864  -0.3682  -0.3605
 -0.3549  -0.3377  -0.3337  -0.2632  -0.2445  -0.2384  -0.2099  -0.1593

 Beta MOs
 -- Occupied --
-19.1566 -19.1566 -19.0681 -19.0681 -10.2810 -10.2224 -10.2224 -10.2158
-10.2151 -10.1713 -10.1707 -10.1639 -10.1639  -1.1195  -1.0239  -0.9851
 -0.9811  -0.8292  -0.7794  -0.7285  -0.6939  -0.6681  -0.6387  -0.5833
 -0.5740  -0.5192  -0.5100  -0.4947  -0.4573  -0.4378  -0.4346  -0.4034
 -0.4027  -0.3989  -0.3901  -0.3858  -0.3851  -0.3843  -0.3606  -0.3518
 -0.3511  -0.3255  -0.3207  -0.2379  -0.2364  -0.2317  -0.2026

          Ground-State Mulliken Net Atomic Charges

     Atom                 Charge (a.u.)    Spin (a.u.)
  --------------------------------------------------------
      1 C                    -1.773436       0.063502
      2 C                     0.378741       0.052721
      3 C                     0.381699       0.052935
      4 C                    -1.776169       0.063573
      5 C                     0.113874       0.099962
      6 C                     0.115919       0.100180
      7 O                    -0.411810       0.264595
      8 O                    -0.411654       0.264594
      9 C                     0.180130       0.004122
     10 C                     0.179007       0.004163
     11 O                    -0.093130       0.007880
     12 O                    -0.093025       0.007878
     13 C                     0.575083       0.004096
     14 H                     0.202225       0.003751
     15 H                     0.166095      -0.001925
     16 H                     0.199406       0.003760
     17 H                     0.165934      -0.001922
     18 H                     0.202377       0.003717
     19 H                     0.199381       0.003789
     20 H                     0.307331       0.000162
     21 H                     0.192024      -0.001534
  --------------------------------------------------------
  Sum of atomic charges =    -1.000000

                    Cartesian Multipole Moments
 -----------------------------------------------------------------
    Charge (ESU x 10^10)
                -4.8032
    Dipole Moment (Debye)
         X       4.6322      Y      -3.0276      Z       0.9777
       Tot       5.6196
    Quadrupole Moments (Debye-Ang)
        XX     -82.0587     XY       4.3701     YY    -123.0690
        XZ      -2.5349     YZ      -1.7374     ZZ     -78.7782

 Total job time:  307.32s(wall), 2304.83s(cpu)
        *  Thank you very much for using Q-Chem.  Have a nice day.  *
