 Gaussian 16, Revision A.03,
 Gaussian 16:  ES64L-G16RevA.03 25-Dec-2016

 --------------------------------------
 #P UB3LYP/6-311++G(d,p) nosym opt freq
 --------------------------------------

 -------
 Radical
 -------
 Symbolic Z-matrix:
 Charge = -1 Multiplicity = 2

 SCF Done:  E(UB3LYP) =  -648.872157847     A.U. after   21 cycles
 SCF Done:  E(UB3LYP) =  -648.872158947     A.U. after   11 cycles
 SCF Done:  E(UB3LYP) =  -648.872182376     A.U. after   14 cycles
 SCF Done:  E(UB3LYP) =  -648.863869043     A.U. after   18 cycles
 SCF Done:  E(UB3LYP) =  -648.872451660     A.U. after   15 cycles
 SCF Done:  E(UB3LYP) =  -648.869998476     A.U. after   17 cycles
 SCF Done:  E(UB3LYP) =  -648.873284178     A.U. after   15 cycles
 SCF Done:  E(UB3LYP) =  -648.873410933     A.U. after   15 cycles
 SCF Done:  E(UB3LYP) =  -648.873493141     A.U. after   14 cycles
 SCF Done:  E(UB3LYP) =  -648.873511332     A.U. after   14 cycles
 SCF Done:  E(UB3LYP) =  -648.874076705     A.U. after   16 cycles
 SCF Done:  E(UB3LYP) =  -648.874301893     A.U. after   15 cycles
 SCF Done:  E(UB3LYP) =  -648.874326949     A.U. after   14 cycles
 SCF Done:  E(UB3LYP) =  -648.874353768     A.U. after   14 cycles
 SCF Done:  E(UB3LYP) =  -648.874382666     A.U. after   13 cycles
 SCF Done:  E(UB3LYP) =  -648.874384729     A.U. after   11 cycles
 SCF Done:  E(UB3LYP) =  -648.874388116     A.U. after   12 cycles
 SCF Done:  E(UB3LYP) =  -648.874388679     A.U. after   11 cycles
 SCF Done:  E(UB3LYP) =  -648.874388875     A.U. after   11 cycles
 Optimization completed.
    -- Stationary point found.
 Normal termination of Gaussian 16 at Tue Jan 16 01:46:39 2024.

 ----------------------------------------------------------------------
 #P Geom=AllCheck Guess=TCheck SCRF=Check GenChk UB3LYP/6-311++G(d,p) F
 req
 ----------------------------------------------------------------------

 Structure from the checkpoint file:  "044-rad.chk"
 -------
 Radical
 -------
 Charge = -1 Multiplicity = 2

                          Input orientation:
 ---------------------------------------------------------------------
 Center     Atomic      Atomic             Coordinates (Angstroms)
 Number     Number       Type             X           Y           Z
 ---------------------------------------------------------------------
      1          6           0       -0.927948    2.115202    0.002900
      2          6           0       -2.084200    1.270252   -0.066945
      3          6           0       -2.041828   -0.088747   -0.140257
      4          6           0       -0.835063   -0.862838   -0.157811
      5          6           0        0.370981   -0.028629   -0.066800
      6          6           0        0.327895    1.352573    0.007653
      7          8           0       -0.983674    3.374977    0.051445
      8          8           0       -0.812341   -2.121548   -0.245191
      9          6           0        1.595283    2.166690    0.101505
     10          6           0        1.686890   -0.767671   -0.056626
     11          8           0       -3.337331   -0.590706   -0.272314
     12          8           0       -3.408852    1.702022   -0.148668
     13          6           0       -4.148323    0.514472    0.105870
     14          1           0        2.181926    1.906738    0.992003
     15          1           0        1.340085    3.226086    0.148983
     16          1           0        2.249416    2.003478   -0.764540
     17          1           0        1.498155   -1.840111   -0.119566
     18          1           0        2.261258   -0.565131    0.856467
     19          1           0        2.324751   -0.475397   -0.900618
     20          1           0       -5.064894    0.517788   -0.486194
     21          1           0       -4.367405    0.449288    1.186804
 ---------------------------------------------------------------------

 SCF Done:  E(UB3LYP) =  -648.874388875     A.U. after    1 cycles

 Alpha  occ. eigenvalues --  -19.03116 -19.03114 -18.93680 -18.93680 -10.16455
 Alpha  occ. eigenvalues --  -10.08685 -10.08684 -10.08282 -10.08213 -10.03704
 Alpha  occ. eigenvalues --  -10.03647 -10.03497 -10.03496  -0.99398  -0.89871
 Alpha  occ. eigenvalues --   -0.85944  -0.85555  -0.70045  -0.65112  -0.59996
 Alpha  occ. eigenvalues --   -0.57004  -0.54236  -0.51119  -0.45646  -0.44499
 Alpha  occ. eigenvalues --   -0.39790  -0.38350  -0.36686  -0.33510  -0.31045
 Alpha  occ. eigenvalues --   -0.30815  -0.27542  -0.27517  -0.27196  -0.26399
 Alpha  occ. eigenvalues --   -0.26184  -0.26037  -0.25530  -0.23621  -0.22802
 Alpha  occ. eigenvalues --   -0.22046  -0.20887  -0.20567  -0.12739  -0.10612
 Alpha  occ. eigenvalues --   -0.10047  -0.07899  -0.02152
 Alpha virt. eigenvalues --    0.08903   0.09192   0.11234   0.11594   0.12194
 Alpha virt. eigenvalues --    0.13601   0.13776   0.14274   0.14385   0.15456
 Alpha virt. eigenvalues --    0.15790   0.16105   0.17635   0.18733   0.18838

  Beta  occ. eigenvalues --  -19.03090 -19.03088 -18.92956 -18.92955 -10.16453
  Beta  occ. eigenvalues --  -10.08552 -10.08551 -10.08192 -10.08123 -10.03593
  Beta  occ. eigenvalues --  -10.03538 -10.03505 -10.03502  -0.99341  -0.89763
  Beta  occ. eigenvalues --   -0.84702  -0.84310  -0.69508  -0.64946  -0.59695
  Beta  occ. eigenvalues --   -0.56855  -0.53456  -0.51021  -0.45313  -0.44206
  Beta  occ. eigenvalues --   -0.39692  -0.38123  -0.36429  -0.33393  -0.30605
  Beta  occ. eigenvalues --   -0.30368  -0.27269  -0.27222  -0.26464  -0.26016
  Beta  occ. eigenvalues --   -0.25907  -0.25584  -0.25355  -0.22969  -0.22031
  Beta  occ. eigenvalues --   -0.21706  -0.19197  -0.19161  -0.09961  -0.09904
  Beta  occ. eigenvalues --   -0.09364  -0.07140
  Beta virt. eigenvalues --    0.05093   0.08912   0.09197   0.11241   0.11598
  Beta virt. eigenvalues --    0.12211   0.13792   0.14125   0.14432   0.14708
  Beta virt. eigenvalues --    0.15732   0.15998   0.16176   0.18751   0.18766

 Mulliken charges and spin densities:
               1          2
     1  C   -1.067765   0.062367
     2  C    0.349774   0.056501
     3  C    0.349676   0.056524
     4  C   -1.068060   0.062362
     5  C    0.768137   0.100205
     6  C    0.768148   0.100246
     7  O   -0.420551   0.265849
     8  O   -0.420574   0.265861
     9  C   -0.510446   0.002969
    10  C   -0.510353   0.002981
    11  O   -0.170861   0.006809
    12  O   -0.170838   0.006798
    13  C   -0.023131   0.001839
    14  H    0.113972   0.003772
    15  H    0.196248  -0.002091
    16  H    0.115603   0.003788
    17  H    0.196224  -0.002090
    18  H    0.113875   0.003740
    19  H    0.115725   0.003818
    20  H    0.147990  -0.000165
    21  H    0.127206  -0.002081
 Sum of Mulliken charges =  -1.00000   1.00000

 Dipole moment (field-independent basis, Debye):
    X=              4.9468    Y=             -3.0136    Z=              0.8963  Tot=              5.8614
 Quadrupole moment (field-independent basis, Debye-Ang):
   XX=            -86.8561   YY=           -122.1309   ZZ=            -78.9140
   XY=              4.3844   XZ=             -2.3394   YZ=             -1.7304

  Exact polarizability: 159.886  -0.281 170.785  -1.210   4.850  80.554
 Approx polarizability: 203.968  -3.442 314.116  -0.149  10.325 123.602

                      1                      2                      3
                      A                      A                      A
 Frequencies --     93.0448                93.2119               132.0786
 Red. masses --      4.1226                 1.0620                 1.6677
 Frc consts  --      0.0210                 0.0054                 0.0171
 IR Inten    --     11.8528                 0.0649                 0.5014

                      4                      5                      6
                      A                      A                      A
 Frequencies --    132.3105               152.5815               174.8827
 Red. masses --      1.7347                 3.1606                 9.4718
 Frc consts  --      0.0179                 0.0434                 0.1707
 IR Inten    --      0.4385                 0.7745                 0.1498

                      7                      8                      9
                      A                      A                      A
 Frequencies --    231.6428               267.0250               310.2845
 Red. masses --      3.0353                 6.8832                 2.6247
 Frc consts  --      0.0960                 0.2892                 0.1489
 IR Inten    --      5.3583                 4.5574                 0.4536

                     10                     11                     12
                      A                      A                      A
 Frequencies --    320.6364               327.1216               364.7545
 Red. masses --      5.2628                 3.8009                10.8243
 Frc consts  --      0.3188                 0.2396                 0.8485
 IR Inten    --      4.8037                 1.1601                 8.9701

                     13                     14                     15
                      A                      A                      A
 Frequencies --    421.2351               433.1717               459.4202
 Red. masses --      6.2618                 7.1870                 6.5522
 Frc consts  --      0.6546                 0.7945                 0.8148
 IR Inten    --      0.0003                 6.9265                 2.6174

                     16                     17                     18
                      A                      A                      A
 Frequencies --    543.6985               581.9201               626.4627
 Red. masses --      8.6027                 6.6054                 6.6681
 Frc consts  --      1.4983                 1.3179                 1.5419
 IR Inten    --      4.4656                 0.0041                 1.5212

                     19                     20                     21
                      A                      A                      A
 Frequencies --    702.8870               735.8710               740.3327
 Red. masses --      8.3646                 4.1882                 7.0443
 Frc consts  --      2.4348                 1.3362                 2.2748
 IR Inten    --      6.1929                 5.0027                 1.1964

                     22                     23                     24
                      A                      A                      A
 Frequencies --    750.0645               899.2090               919.1163
 Red. masses --      8.8006                 4.3510                 6.2895
 Frc consts  --      2.9172                 2.0728                 3.1304
 IR Inten    --      0.2196                25.6350                 0.2933

                     25                     26                     27
                      A                      A                      A
 Frequencies --    970.4135              1001.7157              1025.9994
 Red. masses --      4.9754                 1.7069                 1.3923
 Frc consts  --      2.7605                 1.0092                 0.8636
 IR Inten    --      0.2009                27.3379                 0.0595

                     28                     29                     30
                      A                      A                      A
 Frequencies --   1032.6676              1051.4445              1077.5488
 Red. masses --      4.1347                 1.4731                 5.5015
 Frc consts  --      2.5979                 0.9595                 3.7636
 IR Inten    --     90.0649                 0.0098               184.7727

                     31                     32                     33
                      A                      A                      A
 Frequencies --   1112.9825              1152.9322              1178.4305
 Red. masses --      2.5146                 1.7591                 4.4651
 Frc consts  --      1.8352                 1.3777                 3.6534
 IR Inten    --     27.9268                16.8345                46.3630

                     34                     35                     36
                      A                      A                      A
 Frequencies --   1230.9992              1282.6867              1293.3378
 Red. masses --      1.1518                11.2880                 3.8639
 Frc consts  --      1.0283                10.9423                 3.8081
 IR Inten    --     13.8808               235.9612                14.4640

                     37                     38                     39
                      A                      A                      A
 Frequencies --   1375.7421              1388.7957              1392.5137
 Red. masses --      1.4305                 1.2721                 2.1806
 Frc consts  --      1.5952                 1.4456                 2.4913
 IR Inten    --      5.3785                 0.9985                56.2769

                     40                     41                     42
                      A                      A                      A
 Frequencies --   1444.7647              1474.2978              1482.0239
 Red. masses --      1.9191                 1.2873                 1.1558
 Frc consts  --      2.3602                 1.6485                 1.4957
 IR Inten    --      0.2534                 0.0209                74.8289

                     43                     44                     45
                      A                      A                      A
 Frequencies --   1490.7010              1505.4354              1508.9271
 Red. masses --      1.0486                 1.0644                 3.2619
 Frc consts  --      1.3729                 1.4213                 4.3758
 IR Inten    --      0.2816                12.5854                19.5630

                     46                     47                     48
                      A                      A                      A
 Frequencies --   1522.5443              1537.4122              1542.5631
 Red. masses --      1.1617                 7.9795                 9.9803
 Frc consts  --      1.5866                11.1124                13.9920
 IR Inten    --      4.8313                19.5759               540.5008

                     49                     50                     51
                      A                      A                      A
 Frequencies --   1660.7100              2907.6285              2986.4771
 Red. masses --     11.1044                 1.0724                 1.0413
 Frc consts  --     18.0441                 5.3417                 5.4720
 IR Inten    --      6.5599               223.8034                10.9194

                     52                     53                     54
                      A                      A                      A
 Frequencies --   2987.8483              3016.7174              3020.4505
 Red. masses --      1.0401                 1.0992                 1.0989
 Frc consts  --      5.4709                 5.8936                 5.9069
 IR Inten    --    180.0779                98.7920                 0.0123

                     55                     56                     57
                      A                      A                      A
 Frequencies --   3084.2210              3105.3102              3105.8361
 Red. masses --      1.0931                 1.0942                 1.0944
 Frc consts  --      6.1265                 6.2168                 6.2200
 IR Inten    --     80.4195                 1.0822                15.3668

 - Thermochemistry -
 -------------------
 Temperature   298.150 Kelvin.  Pressure   1.00000 Atm.
 Atom     1 has atomic number  6 and mass  12.00000

 Molecular mass:   180.04226 amu.
 Principal axes and moments of inertia in atomic units:
                           1         2         3
     Eigenvalues --  1563.736702226.197903746.70743
           X            0.99937  -0.03114  -0.01676
           Y            0.03018   0.99806  -0.05439
           Z            0.01842   0.05385   0.99838
 This molecule is an asymmetric top.
 Rotational symmetry number  1.
 Warning -- assumption of classical behavior for rotation
           may cause significant error
 Rotational temperatures (Kelvin)      0.05539     0.03891     0.02312
 Rotational constants (GHZ):           1.15412     0.81068     0.48169
 Zero-point vibrational energy     402932.4 (Joules/Mol)
                                   96.30316 (Kcal/Mol)
 Warning -- explicit consideration of  17 degrees of freedom as
           vibrations may cause significant error
 Vibrational temperatures:    133.87   134.11   190.03   190.37   219.53
          (Kelvin)            251.62   333.28   384.19   446.43   461.32
                              470.66   524.80   606.06   623.24   661.00
                              782.26   837.25   901.34  1011.30  1058.75
                             1065.17  1079.18  1293.76  1322.40  1396.21
                             1441.25  1476.18  1485.78  1512.79  1550.35
                             1601.33  1658.81  1695.50  1771.13  1845.50
                             1860.82  1979.39  1998.17  2003.52  2078.69
                             2121.19  2132.30  2144.79  2165.99  2171.01
                             2190.60  2211.99  2219.40  2389.39  4183.43
                             4296.87  4298.85  4340.38  4345.75  4437.51
                             4467.85  4468.61

 Zero-point correction=                           0.153469 (Hartree/Particle)
 Thermal correction to Energy=                    0.165110
 Thermal correction to Enthalpy=                  0.166054
 Thermal correction to Gibbs Free Energy=         0.115413
 Sum of electronic and zero-point Energies=           -648.720920
 Sum of electronic and thermal Energies=              -648.709279
 Sum of electronic and thermal Enthalpies=            -648.708335
 Sum of electronic and thermal Free Energies=         -648.758976

                     E (Thermal)             CV                S
                      KCal/Mol        Cal/Mol-Kelvin    Cal/Mol-Kelvin
 Total                  103.608             43.255            106.584
 Electronic               0.000              0.000              1.377
 Translational            0.889              2.981             41.471
 Rotational               0.889              2.981             30.945
 Vibrational            101.831             37.293             32.790
 Vibration     1          0.602              1.954              3.595
 Vibration     2          0.602              1.954              3.592
 Vibration     3          0.612              1.921              2.916
 Vibration     4          0.612              1.921              2.912
 Vibration     5          0.619              1.900              2.640
 Vibration     6          0.627              1.873              2.382
 Vibration     7          0.653              1.793              1.866
 Vibration     8          0.672              1.734              1.615
 Vibration     9          0.699              1.654              1.361
 Vibration    10          0.706              1.634              1.307
 Vibration    11          0.711              1.621              1.274
 Vibration    12          0.738              1.545              1.102
 Vibration    13          0.784              1.424              0.888
 Vibration    14          0.794              1.398              0.848
 Vibration    15          0.817              1.340              0.768
 Vibration    16          0.899              1.153              0.557
 Vibration    17          0.939              1.070              0.482

 Optimization completed.
    -- Stationary point found.
 Normal termination of Gaussian 16 at Tue Jan 16 02:06:48 2024.
