 Gaussian 16, Revision A.03,
 Gaussian 16:  ES64L-G16RevA.03 25-Dec-2016

 --------------------------------------
 #P UB3LYP/6-311++G(d,p) nosym opt freq
 --------------------------------------

 --------
 Oxidized
 --------
 Symbolic Z-matrix:
 Charge =  0 Multiplicity = 1

 SCF Done:  E(UB3LYP) =  -1941.02321256     A.U. after   18 cycles
 SCF Done:  E(UB3LYP) =  -1941.03498055     A.U. after   14 cycles
 SCF Done:  E(UB3LYP) =  -1941.03691752     A.U. after   17 cycles
 SCF Done:  E(UB3LYP) =  -1941.03706028     A.U. after   17 cycles
 SCF Done:  E(UB3LYP) =  -1941.03719578     A.U. after   16 cycles
 SCF Done:  E(UB3LYP) =  -1941.03731789     A.U. after   16 cycles
 SCF Done:  E(UB3LYP) =  -1941.03733265     A.U. after   15 cycles
 SCF Done:  E(UB3LYP) =  -1941.03733474     A.U. after   13 cycles
 SCF Done:  E(UB3LYP) =  -1941.03733548     A.U. after   13 cycles
 SCF Done:  E(UB3LYP) =  -1941.03733608     A.U. after   13 cycles
 SCF Done:  E(UB3LYP) =  -1941.03733627     A.U. after   13 cycles
 SCF Done:  E(UB3LYP) =  -1941.03733631     A.U. after   11 cycles
 Optimization completed.
    -- Stationary point found.
 Normal termination of Gaussian 16 at Wed Dec 20 03:16:11 2023.

 ----------------------------------------------------------------------
 #P Geom=AllCheck Guess=TCheck SCRF=Check GenChk UB3LYP/6-311++G(d,p) F
 req
 ----------------------------------------------------------------------

 Structure from the checkpoint file:  "072.chk"
 --------
 Oxidized
 --------
 Charge =  0 Multiplicity = 1

                          Input orientation:
 ---------------------------------------------------------------------
 Center     Atomic      Atomic             Coordinates (Angstroms)
 Number     Number       Type             X           Y           Z
 ---------------------------------------------------------------------
      1          6           0        0.666302    1.241675   -1.450638
      2          6           0       -0.768265    0.952979   -1.737060
      3          6           0       -1.534893    0.246500   -0.898638
      4          6           0       -0.992990   -0.292057    0.381417
      5          6           0        0.458031   -0.060492    0.634947
      6          6           0        1.225711    0.642401   -0.205535
      7          8           0        1.313323    1.946777   -2.197099
      8          8           0       -1.676085   -0.872172    1.199858
      9         16           0        3.017540    0.768397    0.163672
     10          6           0        3.341218    2.524740    0.364399
     11          6           0        3.748307    3.272341   -0.738785
     12          6           0        3.215180    3.086744    1.634659
     13          6           0        3.490439    4.442082    1.795492
     14          6           0        4.025243    4.625091   -0.559682
     15          6           0        3.893499    5.207434    0.701018
     16          8           0        3.728632    0.274894   -1.013267
     17          8           0        3.177683    0.129556    1.473689
     18          1           0        3.842991    2.799888   -1.706931
     19          1           0        2.929432    2.468323    2.476155
     20          1           0        4.347275    5.222050   -1.404671
     21          1           0        3.402844    4.895462    2.775791
     22          1           0        4.111023    6.261319    0.832471
     23         16           0       -3.254269   -0.130887   -1.412654
     24          6           0       -4.302874    0.625706   -0.164573
     25          6           0       -4.718275    1.944209   -0.349921
     26          6           0       -4.708526   -0.130772    0.933097
     27          6           0       -5.546181    0.460480    1.875148
     28          6           0       -5.551100    2.522362    0.604397
     29          6           0       -5.962372    1.781947    1.712882
     30          1           0       -1.163252    1.353178   -2.664918
     31          1           0        0.861400   -0.489773    1.546049
     32          1           0       -4.411589    2.491423   -1.232377
     33          1           0       -4.373038   -1.153408    1.038725
     34          1           0       -5.875827   -0.113148    2.733260
     35          1           0       -5.888133    3.544079    0.475106
     36          1           0       -6.614535    2.235313    2.450725
     37          8           0       -3.404201   -1.583076   -1.357330
     38          8           0       -3.442859    0.607003   -2.665568
 ---------------------------------------------------------------------

 SCF Done:  E(UB3LYP) =  -1941.03733631     A.U. after    3 cycles

 Alpha  occ. eigenvalues --  -89.07601 -89.07601 -19.17364 -19.17364 -19.13792
 Alpha  occ. eigenvalues --  -19.13792 -19.13735 -19.13735 -10.32452 -10.32451
 Alpha  occ. eigenvalues --  -10.26489 -10.26488 -10.25249 -10.25248 -10.23542
 Alpha  occ. eigenvalues --  -10.23541 -10.21741 -10.21739 -10.21412 -10.21411
 Alpha  occ. eigenvalues --  -10.21215 -10.21215 -10.20979 -10.20978 -10.20832
 Alpha  occ. eigenvalues --  -10.20831  -8.13955  -8.13955  -6.10193  -6.10193
 Alpha  occ. eigenvalues --   -6.10166  -6.10166  -6.10071  -6.10071  -1.13469
 Alpha  occ. eigenvalues --   -1.13442  -1.10665  -1.10510  -1.03021  -1.03016
 Alpha  occ. eigenvalues --   -0.90735  -0.89952  -0.89914  -0.84729  -0.80470
 Alpha  occ. eigenvalues --   -0.80173  -0.78636  -0.78636  -0.75410  -0.73044
 Alpha  occ. eigenvalues --   -0.69417  -0.66609  -0.65818  -0.64543  -0.64534
 Alpha  occ. eigenvalues --   -0.62214  -0.60237  -0.57411  -0.56707  -0.56215
 Alpha  occ. eigenvalues --   -0.54071  -0.53278  -0.51246  -0.50791  -0.50233
 Alpha  occ. eigenvalues --   -0.49932  -0.49787  -0.48610  -0.48368  -0.48211
 Alpha  occ. eigenvalues --   -0.47700  -0.47527  -0.46775  -0.46622  -0.46081
 Alpha  occ. eigenvalues --   -0.46026  -0.45309  -0.44913  -0.40866  -0.40846
 Alpha  occ. eigenvalues --   -0.40341  -0.40270  -0.38429  -0.38427  -0.36509
 Alpha  occ. eigenvalues --   -0.36071  -0.35759  -0.35467  -0.34550  -0.34274
 Alpha  occ. eigenvalues --   -0.33689  -0.32997  -0.32619  -0.32475  -0.32152
 Alpha  occ. eigenvalues --   -0.30222  -0.29537  -0.29442  -0.29060  -0.28937
 Alpha virt. eigenvalues --   -0.17063  -0.09071  -0.06624  -0.05494  -0.04637
 Alpha virt. eigenvalues --   -0.04617  -0.04053  -0.02055  -0.01626  -0.00248
 Alpha virt. eigenvalues --   -0.00064   0.00420   0.00656   0.01000   0.01730

  Beta  occ. eigenvalues --  -89.07601 -89.07601 -19.17364 -19.17364 -19.13792
  Beta  occ. eigenvalues --  -19.13792 -19.13735 -19.13735 -10.32452 -10.32451
  Beta  occ. eigenvalues --  -10.26489 -10.26488 -10.25249 -10.25248 -10.23542
  Beta  occ. eigenvalues --  -10.23541 -10.21741 -10.21739 -10.21412 -10.21411
  Beta  occ. eigenvalues --  -10.21215 -10.21215 -10.20979 -10.20978 -10.20832
  Beta  occ. eigenvalues --  -10.20831  -8.13955  -8.13955  -6.10193  -6.10193
  Beta  occ. eigenvalues --   -6.10166  -6.10166  -6.10071  -6.10071  -1.13469
  Beta  occ. eigenvalues --   -1.13442  -1.10665  -1.10510  -1.03021  -1.03016
  Beta  occ. eigenvalues --   -0.90735  -0.89952  -0.89914  -0.84729  -0.80470
  Beta  occ. eigenvalues --   -0.80173  -0.78636  -0.78636  -0.75410  -0.73044
  Beta  occ. eigenvalues --   -0.69417  -0.66609  -0.65818  -0.64543  -0.64534
  Beta  occ. eigenvalues --   -0.62214  -0.60237  -0.57411  -0.56707  -0.56215
  Beta  occ. eigenvalues --   -0.54071  -0.53278  -0.51246  -0.50791  -0.50233
  Beta  occ. eigenvalues --   -0.49932  -0.49787  -0.48610  -0.48368  -0.48211
  Beta  occ. eigenvalues --   -0.47700  -0.47527  -0.46775  -0.46622  -0.46081
  Beta  occ. eigenvalues --   -0.46026  -0.45309  -0.44913  -0.40866  -0.40846
  Beta  occ. eigenvalues --   -0.40341  -0.40270  -0.38429  -0.38427  -0.36509
  Beta  occ. eigenvalues --   -0.36071  -0.35759  -0.35467  -0.34550  -0.34274
  Beta  occ. eigenvalues --   -0.33689  -0.32997  -0.32619  -0.32475  -0.32152
  Beta  occ. eigenvalues --   -0.30222  -0.29537  -0.29442  -0.29060  -0.28937
  Beta virt. eigenvalues --   -0.17063  -0.09071  -0.06624  -0.05494  -0.04637
  Beta virt. eigenvalues --   -0.04617  -0.04053  -0.02055  -0.01626  -0.00248
  Beta virt. eigenvalues --   -0.00064   0.00420   0.00656   0.01000   0.01730

 Mulliken charges and spin densities:
               1          2
     1  C   -0.451268  -0.000000
     2  C   -0.406008  -0.000000
     3  C    0.218991   0.000000
     4  C   -0.452133  -0.000000
     5  C   -0.406598  -0.000000
     6  C    0.219084  -0.000000
     7  O   -0.130825   0.000000
     8  O   -0.130749   0.000000
     9  S    0.421374  -0.000000
    10  C    0.547871  -0.000000
    11  C   -0.264189   0.000000
    12  C   -0.004868  -0.000000
    13  C   -0.525094   0.000000
    14  C   -0.377987   0.000000
    15  C   -0.268055   0.000000
    16  O   -0.048385   0.000000
    17  O   -0.101891   0.000000
    18  H    0.282973   0.000000
    19  H    0.247802  -0.000000
    20  H    0.195653  -0.000000
    21  H    0.187162   0.000000
    22  H    0.172388  -0.000000
    23  S    0.422302   0.000000
    24  C    0.548261   0.000000
    25  C   -0.004262  -0.000000
    26  C   -0.265138  -0.000000
    27  C   -0.377784   0.000000
    28  C   -0.525011  -0.000000
    29  C   -0.268212  -0.000000
    30  H    0.304388   0.000000
    31  H    0.304428   0.000000
    32  H    0.247784   0.000000
    33  H    0.282887  -0.000000
    34  H    0.195645   0.000000
    35  H    0.187152  -0.000000
    36  H    0.172383   0.000000
    37  O   -0.048389   0.000000
    38  O   -0.101685   0.000000
 Sum of Mulliken charges =  -0.00000   0.00000

 Dipole moment (field-independent basis, Debye):
    X=             -2.0736    Y=              7.1856    Z=              4.1434  Tot=              8.5498
 Quadrupole moment (field-independent basis, Debye-Ang):
   XX=           -163.8857   YY=           -142.2506   ZZ=           -169.5050
   XY=              1.7878   XZ=            -15.3182   YZ=              4.1549

  Exact polarizability: 297.695  38.298 260.967 -39.189 -11.568 243.736
 Approx polarizability: 390.866  58.306 453.891-103.806 -70.837 467.255

                      1                      2                      3
                      A                      A                      A
 Frequencies --     16.3679                18.4133                38.7502
 Red. masses --      6.1927                 6.4946                 4.6719
 Frc consts  --      0.0010                 0.0013                 0.0041
 IR Inten    --      0.2919                 0.0317                 0.3292

                      4                      5                      6
                      A                      A                      A
 Frequencies --     40.0180                48.3380                60.8337
 Red. masses --      7.9557                 4.8816                 5.8228
 Frc consts  --      0.0075                 0.0067                 0.0127
 IR Inten    --      0.8295                 0.0385                 0.9102

                      7                      8                      9
                      A                      A                      A
 Frequencies --     75.6184               116.1792               132.2849
 Red. masses --      7.5512                11.1355                10.4683
 Frc consts  --      0.0254                 0.0886                 0.1079
 IR Inten    --      0.0397                 2.0335                11.4477

                     10                     11                     12
                      A                      A                      A
 Frequencies --    146.2710               165.7983               172.1119
 Red. masses --      5.8269                 7.4127                 8.0765
 Frc consts  --      0.0735                 0.1201                 0.1410
 IR Inten    --      3.5680                 1.3513                 0.2375

                     13                     14                     15
                      A                      A                      A
 Frequencies --    180.7033               189.3828               207.3290
 Red. masses --      6.6847                 8.5017                 6.0205
 Frc consts  --      0.1286                 0.1797                 0.1525
 IR Inten    --      0.9649                 0.2037                 2.4590

                     16                     17                     18
                      A                      A                      A
 Frequencies --    230.9821               262.2879               271.2481
 Red. masses --      7.5688                 8.9040                12.5838
 Frc consts  --      0.2379                 0.3609                 0.5455
 IR Inten    --      0.1104                 1.1696                 0.0168

                     19                     20                     21
                      A                      A                      A
 Frequencies --    294.9877               302.2535               302.7651
 Red. masses --     14.5772                 8.7152                 8.5890
 Frc consts  --      0.7474                 0.4691                 0.4639
 IR Inten    --      1.6067                 1.0060                 3.6073

                     22                     23                     24
                      A                      A                      A
 Frequencies --    363.7861               382.4283               411.4163
 Red. masses --      8.1869                 5.0750                 2.8767
 Frc consts  --      0.6384                 0.4373                 0.2869
 IR Inten    --      5.5817                 0.3478                 0.0589

                     25                     26                     27
                      A                      A                      A
 Frequencies --    411.9777               422.5425               432.6073
 Red. masses --      2.8785                 5.7128                10.0444
 Frc consts  --      0.2879                 0.6009                 1.1075
 IR Inten    --      0.0851                 0.0260                 3.3122

                     28                     29                     30
                      A                      A                      A
 Frequencies --    449.6493               450.2665               468.9327
 Red. masses --      6.7873                 5.4458                 9.4120
 Frc consts  --      0.8085                 0.6505                 1.2194
 IR Inten    --     54.1904                 0.2989                 0.8724

                     31                     32                     33
                      A                      A                      A
 Frequencies --    490.7478               520.6759               552.8114
 Red. masses --      5.7385                 7.7053                12.1547
 Frc consts  --      0.8143                 1.2308                 2.1885
 IR Inten    --     46.1709                60.8822                23.3076

                     34                     35                     36
                      A                      A                      A
 Frequencies --    559.6928               608.4255               612.1931
 Red. masses --      7.9802                 9.2287                 6.6759
 Frc consts  --      1.4729                 2.0128                 1.4741
 IR Inten    --     31.5506               384.1838                 0.0871

                     37                     38                     39
                      A                      A                      A
 Frequencies --    626.3463               626.3754               675.5531
 Red. masses --      6.4494                 6.4542                 6.9926
 Frc consts  --      1.4907                 1.4920                 1.8802
 IR Inten    --      0.2517                 0.0037                 2.7175

                     40                     41                     42
                      A                      A                      A
 Frequencies --    700.2111               701.3955               704.1711
 Red. masses --      3.0225                 2.0678                 3.1720
 Frc consts  --      0.8731                 0.5994                 0.9267
 IR Inten    --      1.2197                79.2663                11.6524

                     43                     44                     45
                      A                      A                      A
 Frequencies --    718.2490               738.6372               767.8179
 Red. masses --      6.9198                 8.5441                 1.6285
 Frc consts  --      2.1033                 2.7465                 0.5657
 IR Inten    --     99.5588                74.4286                25.0083

                     46                     47                     48
                      A                      A                      A
 Frequencies --    768.2446               784.7463               821.3861
 Red. masses --      1.6322                 4.0589                 4.6355
 Frc consts  --      0.5676                 1.4727                 1.8426
 IR Inten    --      5.7517                 0.7817                 2.4137

                     49                     50                     51
                      A                      A                      A
 Frequencies --    856.2582               856.5979               877.9910
 Red. masses --      1.2441                 1.2436                10.8075
 Frc consts  --      0.5374                 0.5377                 4.9086
 IR Inten    --      0.3371                 0.3175                 4.8043

                     52                     53                     54
                      A                      A                      A
 Frequencies --    936.0175               949.0483               949.4481
 Red. masses --      1.4731                 1.3486                 1.3499
 Frc consts  --      0.7604                 0.7157                 0.7170
 IR Inten    --      1.5835                 0.2760                 1.0433

                     55                     56                     57
                      A                      A                      A
 Frequencies --    974.2166               995.5032               995.7312
 Red. masses --      1.4562                 1.3898                 1.3868
 Frc consts  --      0.8143                 0.8115                 0.8101
 IR Inten    --     20.6335                 0.4581                 0.3489

                     58                     59                     60
                      A                      A                      A
 Frequencies --   1003.4102              1014.3703              1014.4977
 Red. masses --      4.0736                 5.8347                 1.3417
 Frc consts  --      2.4165                 3.5372                 0.8136
 IR Inten    --     10.5478                 6.1078                 0.1047

                     61                     62                     63
                      A                      A                      A
 Frequencies --   1014.5834              1015.3751              1040.2970
 Red. masses --      1.3372                 5.2862                 3.5399
 Frc consts  --      0.8110                 3.2111                 2.2572
 IR Inten    --      0.1871                 3.3176                11.2960

                     64                     65                     66
                      A                      A                      A
 Frequencies --   1041.9641              1069.4659              1073.5785
 Red. masses --      3.1281                 3.2907                 3.2958
 Frc consts  --      2.0009                 2.2175                 2.2381
 IR Inten    --      3.6349                13.8555               132.7245

                     67                     68                     69
                      A                      A                      A
 Frequencies --   1101.9203              1102.0059              1118.2976
 Red. masses --      1.5671                 1.5677                 5.9092
 Frc consts  --      1.1211                 1.1217                 4.3541
 IR Inten    --      7.0940                 8.3878               232.4082

                     70                     71                     72
                      A                      A                      A
 Frequencies --   1120.4411              1179.6399              1186.3692
 Red. masses --      6.3005                 5.1601                 1.1219
 Frc consts  --      4.6602                 4.2306                 0.9303
 IR Inten    --    101.2129               279.1751                 0.2971

                     73                     74                     75
                      A                      A                      A
 Frequencies --   1186.3819              1196.4338              1201.4582
 Red. masses --      1.1221                 1.6668                 1.1616
 Frc consts  --      0.9305                 1.4057                 0.9879
 IR Inten    --      0.4044                 7.6516                 1.5426

                     76                     77                     78
                      A                      A                      A
 Frequencies --   1201.5918              1287.8324              1288.5579
 Red. masses --      1.1651                17.8212                16.8419
 Frc consts  --      0.9911                17.4143                16.4759
 IR Inten    --      1.1648               198.0628                89.9216

                     79                     80                     81
                      A                      A                      A
 Frequencies --   1329.8564              1330.3901              1333.6605
 Red. masses --      2.9489                 1.8934                 2.4999
 Frc consts  --      3.0727                 1.9745                 2.6198
 IR Inten    --      4.6058                40.7470                 5.6116

                     82                     83                     84
                      A                      A                      A
 Frequencies --   1334.2787              1347.8392              1348.0197
 Red. masses --      2.6921                 1.9828                 1.9640
 Frc consts  --      2.8238                 2.1223                 2.1027
 IR Inten    --      0.8045                 2.3313                 3.2101

                     85                     86                     87
                      A                      A                      A
 Frequencies --   1477.1000              1477.1896              1506.0817
 Red. masses --      2.1467                 2.1475                 2.0097
 Frc consts  --      2.7596                 2.7609                 2.6858
 IR Inten    --     15.4499                18.3542                 2.9633

                     88                     89                     90
                      A                      A                      A
 Frequencies --   1506.1848              1621.1440              1621.2042
 Red. masses --      2.0093                 5.2934                 5.2890
 Frc consts  --      2.6857                 8.1965                 8.1903
 IR Inten    --      3.0820                 2.7085                 5.2570

                     91                     92                     93
                      A                      A                      A
 Frequencies --   1623.8991              1624.0208              1637.4690
 Red. masses --      5.7533                 5.7437                 9.0778
 Frc consts  --      8.9389                 8.9253                14.3409
 IR Inten    --      0.5317                 0.2702                26.5224

                     94                     95                     96
                      A                      A                      A
 Frequencies --   1670.8629              1729.8328              1738.6201
 Red. masses --      8.9666                11.9593                12.5520
 Frc consts  --     14.7489                21.0845                22.3550
 IR Inten    --      0.0123                 0.0348               372.6332

                     97                     98                     99
                      A                      A                      A
 Frequencies --   3171.4157              3171.4388              3183.7513
 Red. masses --      1.0866                 1.0866                 1.0901
 Frc consts  --      6.4392                 6.4394                 6.5099
 IR Inten    --      0.6747                 0.6870                 7.9996

                    100                    101                    102
                      A                      A                      A
 Frequencies --   3183.8029              3187.2749              3188.5908
 Red. masses --      1.0901                 1.0919                 1.0922
 Frc consts  --      6.5102                 6.5353                 6.5425
 IR Inten    --      8.0228                20.7634                 0.0815

                    103                    104                    105
                      A                      A                      A
 Frequencies --   3192.4305              3192.4818              3203.7248
 Red. masses --      1.0947                 1.0947                 1.0947
 Frc consts  --      6.5733                 6.5736                 6.6197
 IR Inten    --      9.3463                 7.7745                 4.1826

                    106                    107                    108
                      A                      A                      A
 Frequencies --   3203.8808              3219.9151              3220.1595
 Red. masses --      1.0946                 1.0936                 1.0935
 Frc consts  --      6.6202                 6.6800                 6.6808
 IR Inten    --      4.8053                 3.9848                 4.0678

 - Thermochemistry -
 -------------------
 Temperature   298.150 Kelvin.  Pressure   1.00000 Atm.
 Atom     1 has atomic number  6 and mass  12.00000

 Molecular mass:   388.00753 amu.
 Principal axes and moments of inertia in atomic units:
                           1         2         3
     Eigenvalues --  5236.44464********************
           X            0.96546  -0.24230   0.09580
           Y            0.25820   0.84039  -0.47653
           Z            0.03495   0.48481   0.87392
 This molecule is an asymmetric top.
 Rotational symmetry number  1.
 Warning -- assumption of classical behavior for rotation
           may cause significant error
 Rotational temperatures (Kelvin)      0.01654     0.00446     0.00423
 Rotational constants (GHZ):           0.34465     0.09301     0.08814
 Zero-point vibrational energy     696645.4 (Joules/Mol)
                                  166.50225 (Kcal/Mol)
 Warning -- explicit consideration of  36 degrees of freedom as
           vibrations may cause significant error
 Vibrational temperatures:     23.55    26.49    55.75    57.58    69.55
          (Kelvin)             87.53   108.80   167.16   190.33   210.45
                              238.55   247.63   259.99   272.48   298.30
                              332.33   377.37   390.27   424.42   434.88
                              435.61   523.41   550.23   591.94   592.74
                              607.94   622.43   646.95   647.83   674.69
                              706.08   749.14   795.37   805.27   875.39
                              880.81   901.17   901.21   971.97  1007.45
                             1009.15  1013.15  1033.40  1062.73  1104.72
                             1105.33  1129.07  1181.79  1231.96  1232.45
                             1263.23  1346.72  1365.47  1366.04  1401.68
                             1432.31  1432.64  1443.68  1459.45  1459.64
                             1459.76  1460.90  1496.76  1499.15  1538.72
                             1544.64  1585.42  1585.54  1608.98  1612.06
                             1697.24  1706.92  1706.94  1721.40  1728.63
                             1728.82  1852.90  1853.95  1913.37  1914.13
                             1918.84  1919.73  1939.24  1939.50  2125.22
                             2125.35  2166.92  2167.06  2332.46  2332.55
                             2336.43  2336.60  2355.95  2404.00  2488.84
                             2501.49  4562.96  4562.99  4580.71  4580.78
                             4585.78  4587.67  4593.20  4593.27  4609.45
                             4609.67  4632.74  4633.09

 Zero-point correction=                           0.265338 (Hartree/Particle)
 Thermal correction to Energy=                    0.287872
 Thermal correction to Enthalpy=                  0.288816
 Thermal correction to Gibbs Free Energy=         0.210631
 Sum of electronic and zero-point Energies=          -1940.771998
 Sum of electronic and thermal Energies=             -1940.749465
 Sum of electronic and thermal Enthalpies=           -1940.748521
 Sum of electronic and thermal Free Energies=        -1940.826705

                     E (Thermal)             CV                S
                      KCal/Mol        Cal/Mol-Kelvin    Cal/Mol-Kelvin
 Total                  180.642             85.625            164.554
 Electronic               0.000              0.000              0.000
 Translational            0.889              2.981             43.760
 Rotational               0.889              2.981             35.985
 Vibrational            178.865             79.663             84.809
 Vibration     1          0.593              1.986              7.032
 Vibration     2          0.593              1.986              6.798
 Vibration     3          0.594              1.981              5.322
 Vibration     4          0.594              1.981              5.258
 Vibration     5          0.595              1.978              4.884
 Vibration     6          0.597              1.973              4.430
 Vibration     7          0.599              1.965              4.002
 Vibration     8          0.608              1.936              3.163
 Vibration     9          0.612              1.921              2.913
 Vibration    10          0.617              1.907              2.720
 Vibration    11          0.624              1.885              2.483
 Vibration    12          0.626              1.877              2.412
 Vibration    13          0.630              1.866              2.321
 Vibration    14          0.633              1.854              2.234
 Vibration    15          0.641              1.829              2.067
 Vibration    16          0.653              1.794              1.871
 Vibration    17          0.670              1.742              1.646
 Vibration    18          0.675              1.726              1.588
 Vibration    19          0.689              1.683              1.445
 Vibration    20          0.694              1.669              1.404
 Vibration    21          0.694              1.668              1.402
 Vibration    22          0.737              1.547              1.106
 Vibration    23          0.752              1.508              1.030
 Vibration    24          0.775              1.445              0.922
 Vibration    25          0.776              1.444              0.920
 Vibration    26          0.785              1.421              0.883
 Vibration    27          0.793              1.399              0.850
 Vibration    28          0.809              1.362              0.797
 Vibration    29          0.809              1.360              0.795
 Vibration    30          0.826              1.319              0.741
 Vibration    31          0.847              1.271              0.682
 Vibration    32          0.876              1.204              0.608
 Vibration    33          0.908              1.134              0.538
 Vibration    34          0.915              1.119              0.524
 Vibration    35          0.967              1.014              0.435
 Vibration    36          0.971              1.006              0.429

 Optimization completed.
    -- Stationary point found.
 Normal termination of Gaussian 16 at Wed Dec 20 07:03:34 2023.
