 Q-Chem 5.4, Q-Chem, Inc., Pleasanton, CA (2021)
 Q-Chem 5.4.0 for Intel X86 EM64T Linux

User input:
--------------------------------------------------------------
$molecule
-2 1
C                  0.2951880000      3.9377870000      0.3229160000
C                 -0.8877440000      3.5721910000      0.9409060000
C                 -1.2740330000      2.2082490000      0.9585090000
C                  1.1421480000      2.9897170000     -0.2957470000
C                  0.7472290000      1.6071670000     -0.2854060000
C                 -0.4665820000      1.2615030000      0.3540870000
C                  2.3676270000      3.4440310000     -0.9468560000
C                  3.1438220000      2.3906290000     -1.5240340000
C                  2.7684080000      1.0139610000     -1.5107970000
C                  1.5537360000      0.5650420000     -0.9086780000
O                  2.6923980000      4.6887710000     -0.9681640000
O                  1.1807110000     -0.6734630000     -0.8865740000
H                  0.6215640000      4.9726770000      0.2884640000
H                 -1.5172190000      4.3257700000      1.4118590000
H                 -2.2027640000      1.9093830000      1.4426490000
H                 -0.7326020000      0.2088940000      0.3447530000
S                  4.6385920000      2.8601120000     -2.4203050000
C                  3.6426060000     -0.0508940000     -2.1260410000
H                  3.6724260000      0.0091420000     -3.2251880000
H                  3.2290690000     -1.0241720000     -1.8513550000
H                  4.6844890000      0.0284680000     -1.7897610000
C                  5.5768340000      3.8782640000     -1.2007690000
C                  6.7091970000      4.6274490000     -1.8997220000
H                  5.9739680000      3.2165790000     -0.4234150000
H                  4.8413750000      4.5594770000     -0.7681320000
H                  7.4017840000      3.9436130000     -2.4082330000
H                  7.2956860000      5.2106740000     -1.1793430000
H                  6.3137030000      5.3185510000     -2.6506320000
$end
$rem
MAX_SCF_CYCLES=200
BASIS  =  6-311++G(d,p)
GUI  =  2
JOB_TYPE  =  SP
METHOD  =  B3LYP
SOLVENT_METHOD = COSMO
$end
$solvent
dielectric 37.219
opticaldielectric 1.43
$end

--------------------------------------------------------------

             Standard Nuclear Orientation (Angstroms)
    I     Atom           X                Y                Z
 ----------------------------------------------------------------
    1      C      -2.0059908407    -2.0737614319     0.0946076930
    2      C      -3.3828056854    -2.0778149696    -0.0441894399
    3      C      -4.0731486509    -0.8488230977    -0.1954256964
    4      C      -1.2552679498    -0.8757215583     0.0884859101
    5      C      -1.9553627015     0.3717860066    -0.0567885525
    6      C      -3.3627778416     0.3381898235    -0.1975932456
    7      C       0.1936046535    -0.9396888059     0.2582483639
    8      C       0.8397682261     0.3356198653     0.2217884439
    9      C       0.1576448415     1.5794573898     0.0671871097
   10      C      -1.2625934183     1.6543553850    -0.0624940453
   11      O       0.8005055256    -2.0636256692     0.4123430087
   12      O      -1.9116853954     2.7653766221    -0.1960690745
   13      H      -1.4446643993    -2.9953286715     0.2143240028
   14      H      -3.9326868695    -3.0177723341    -0.0389311721
   15      H      -5.1566395518    -0.8405155828    -0.3060247419
   16      H      -3.8584266315     1.2979550174    -0.3072405003
   17      S       2.6227712158     0.3678099579     0.5009254756
   18      C       0.9028720994     2.8906476012     0.0215794620
   19      H       1.3388316104     3.1636063485     0.9952583147
   20      H       0.1920822400     3.6706058653    -0.2615780849
   21      H       1.7397975737     2.8626892228    -0.6881224688
   22      C       3.2809687821    -0.8231849767    -0.7450707646
   23      C       4.7358686801    -1.1646598380    -0.4308723718
   24      H       3.1965078881    -0.3723841016    -1.7397901335
   25      H       2.6315761844    -1.6983421882    -0.6778772017
   26      H       5.3732366395    -0.2705889519    -0.4138077993
   27      H       5.1492319899    -1.8464482240    -1.1841067459
   28      H       4.8195716647    -1.6508517092     0.5461202491
 ----------------------------------------------------------------

   14   -1051.4351370737      6.80e-06  Convergence criterion met
 Total energy in the final basis set =    -1051.4351370737
    6   -1051.7105145120      2.87e-06  Convergence criterion met
 Total energy in the final basis set =    -1051.7105145120

                    Orbital Energies (a.u.)
 --------------------------------------------------------------

 Alpha MOs
 -- Occupied --
-88.8144 -19.0231 -19.0194 -10.1782 -10.1710 -10.1706 -10.1531 -10.1523
-10.1516 -10.1510 -10.1477 -10.1467 -10.1411 -10.1403 -10.1334 -10.1330
 -7.9005  -5.8643  -5.8607  -5.8547  -0.9431  -0.9355  -0.8280  -0.7917
 -0.7639  -0.7257  -0.7244  -0.6960  -0.6515  -0.6281  -0.5911  -0.5667
 -0.5537  -0.5215  -0.4796  -0.4629  -0.4408  -0.4326  -0.4242  -0.4091
 -0.4002  -0.3963  -0.3817  -0.3745  -0.3703  -0.3644  -0.3547  -0.3495
 -0.3444  -0.3341  -0.3236  -0.3181  -0.3133  -0.3057  -0.2897  -0.2330
 -0.2291  -0.2258  -0.2056  -0.1979  -0.1919  -0.1167

          Ground-State Mulliken Net Atomic Charges

     Atom                 Charge (a.u.)
  ----------------------------------------
      1 C                    -0.003401
      2 C                    -0.482452
      3 C                    -0.467346
      4 C                     0.031139
      5 C                     0.278926
      6 C                     0.038125
      7 C                    -0.562732
      8 C                     0.690328
      9 C                     0.459401
     10 C                    -0.587964
     11 O                    -0.667686
     12 O                    -0.730752
     13 H                     0.166075
     14 H                     0.177914
     15 H                     0.177419
     16 H                     0.158569
     17 S                    -0.798216
     18 C                    -0.308786
     19 H                     0.155450
     20 H                     0.161527
     21 H                     0.132581
     22 C                    -0.246197
     23 C                    -0.610676
     24 H                     0.180639
     25 H                     0.208372
     26 H                     0.146678
     27 H                     0.152477
     28 H                     0.150589
  ----------------------------------------
  Sum of atomic charges =    -2.000000

                    Cartesian Multipole Moments
 -----------------------------------------------------------------
    Charge (ESU x 10^10)
                -9.6064
    Dipole Moment (Debye)
         X       5.0054      Y      -4.0867      Z      -2.4881
       Tot       6.9243
    Quadrupole Moments (Debye-Ang)
        XX    -140.7979     XY      18.7296     YY    -157.0923
        XZ      -8.0041     YZ       5.6611     ZZ    -115.6841

 Total job time:  74.67s(wall), 571.39s(cpu)
        *  Thank you very much for using Q-Chem.  Have a nice day.  *
