 Gaussian 16, Revision A.03,
 Gaussian 16:  ES64L-G16RevA.03 25-Dec-2016

 ----------------------------------------------------------------
 #P UB3LYP/6-311++G(d,p) SCRF=(PCM,Solvent=n,n-DiMethylFormamide)
 ----------------------------------------------------------------

 ------------------
 Radical PCM in DMF
 ------------------
 Symbolic Z-matrix:
 Charge = -1 Multiplicity = 2

                         Standard orientation:
 ---------------------------------------------------------------------
 Center     Atomic      Atomic             Coordinates (Angstroms)
 Number     Number       Type             X           Y           Z
 ---------------------------------------------------------------------
      1          7           0       -3.346408   -0.361448   -0.083475
      2          6           0       -2.003852    0.021180   -0.025244
      3          6           0       -1.604833    1.345345   -0.014718
      4          6           0       -0.231749    1.752049    0.003586
      5          8           0        0.124412    2.959645    0.018560
      6          6           0        0.763348    0.655398   -0.002607
      7          6           0        2.135316    0.958802    0.001942
      8          6           0        3.092811   -0.043040    0.001421
      9          6           0        2.690274   -1.393498   -0.001835
     10          6           0        1.345349   -1.715943   -0.005794
     11          6           0        0.355136   -0.709160   -0.008713
     12          6           0       -1.055575   -1.077556   -0.004155
     13          8           0       -1.464349   -2.279089    0.031723
     14          1           0       -3.990767    0.242652    0.405243
     15          1           0       -3.445061   -1.345869    0.143753
     16          1           0       -2.347135    2.139759   -0.032844
     17          1           0        2.411640    2.007467    0.006974
     18          1           0        4.149162    0.209862    0.004361
     19          1           0        3.437706   -2.182151   -0.001591
     20          1           0        1.011445   -2.747497   -0.007136
 ---------------------------------------------------------------------

 SCF Done:  E(UB3LYP) =  -590.795532843     A.U. after   19 cycles

 The electronic state is 2-A.
 Alpha  occ. eigenvalues --  -19.07744 -19.06939 -14.31127 -10.22023 -10.21685
 Alpha  occ. eigenvalues --  -10.20462 -10.17155 -10.17124 -10.17007 -10.16949
 Alpha  occ. eigenvalues --  -10.16798 -10.16774 -10.14934  -1.00111  -0.99394
 Alpha  occ. eigenvalues --   -0.90550  -0.85462  -0.78831  -0.74822  -0.72814
 Alpha  occ. eigenvalues --   -0.67035  -0.61573  -0.60593  -0.55897  -0.53085
 Alpha  occ. eigenvalues --   -0.50720  -0.47653  -0.47092  -0.44629  -0.42878
 Alpha  occ. eigenvalues --   -0.42178  -0.41612  -0.40980  -0.40119  -0.38362
 Alpha  occ. eigenvalues --   -0.37694  -0.35649  -0.35047  -0.33552  -0.32129
 Alpha  occ. eigenvalues --   -0.26181  -0.25519  -0.24793  -0.23565  -0.22081
 Alpha  occ. eigenvalues --   -0.14674
 Alpha virt. eigenvalues --   -0.03007  -0.00938  -0.00251   0.00649   0.01476
 Alpha virt. eigenvalues --    0.02729   0.02847   0.04606   0.04975   0.05224
 Alpha virt. eigenvalues --    0.05468   0.05875   0.06917   0.07310   0.08083

  Beta  occ. eigenvalues --  -19.07075 -19.06454 -14.31061 -10.21902 -10.21411
  Beta  occ. eigenvalues --  -10.20311 -10.17139 -10.17123 -10.16924 -10.16850
  Beta  occ. eigenvalues --  -10.16792 -10.16749 -10.14897  -0.98978  -0.98512
  Beta  occ. eigenvalues --   -0.90267  -0.85265  -0.78400  -0.74615  -0.72636
  Beta  occ. eigenvalues --   -0.66088  -0.61407  -0.60304  -0.55641  -0.52945
  Beta  occ. eigenvalues --   -0.50462  -0.47505  -0.46746  -0.44561  -0.42619
  Beta  occ. eigenvalues --   -0.41848  -0.40697  -0.40292  -0.39737  -0.38078
  Beta  occ. eigenvalues --   -0.35770  -0.34914  -0.34655  -0.33415  -0.30538
  Beta  occ. eigenvalues --   -0.24847  -0.24435  -0.24193  -0.23089  -0.21133
  Beta virt. eigenvalues --   -0.08151  -0.02313  -0.00255   0.00164   0.00684
  Beta virt. eigenvalues --    0.01489   0.02750   0.02857   0.04752   0.05027
  Beta virt. eigenvalues --    0.05420   0.05687   0.06625   0.07374   0.07718

 Mulliken charges and spin densities:
               1          2
     1  N   -0.391208   0.034250
     2  C    0.003471   0.086196
     3  C    0.498494   0.028331
     4  C   -0.580996   0.060889
     5  O   -0.514053   0.173004
     6  C    0.221095   0.073204
     7  C    0.164178  -0.004419
     8  C   -0.398014   0.070430
     9  C   -0.386678  -0.004072
    10  C    0.087932   0.078943
    11  C    0.258672  -0.012739
    12  C   -0.848848   0.183985
    13  O   -0.513353   0.247562
    14  H    0.263336   0.001118
    15  H    0.281241  -0.002026
    16  H    0.171596  -0.004772
    17  H    0.159201   0.000027
    18  H    0.180615  -0.004946
    19  H    0.183182  -0.000543
    20  H    0.160136  -0.004422
 Sum of Mulliken charges =  -1.00000   1.00000

 Dipole moment (field-independent basis, Debye):
    X=              1.4277    Y=             -2.3674    Z=              1.1468  Tot=              2.9930
 Quadrupole moment (field-independent basis, Debye-Ang):
   XX=            -74.2799   YY=           -113.1173   ZZ=            -82.4238
   XY=             -9.2679   XZ=             -5.0214   YZ=             -0.2166

 Normal termination of Gaussian 16 at Sun Jan 21 08:32:40 2024.
