 Q-Chem 5.4, Q-Chem, Inc., Pleasanton, CA (2021)
 Q-Chem 5.4.0 for Intel X86 EM64T Linux

User input:
--------------------------------------------------------------
$molecule
-4 1
O                 -6.0500460000      0.3344170000     -1.2397150000
S                 -5.4038040000      0.5893170000      0.0940100000
O                 -5.3015790000      2.0472590000      0.4115250000
O                 -6.0850520000     -0.1893260000      1.1848940000
C                 -3.7049180000     -0.0628450000     -0.0255820000
C                 -3.5378930000     -1.4407570000     -0.3480980000
C                 -2.2700360000     -1.9588390000     -0.4883900000
C                 -1.0951750000     -1.1731180000     -0.3155480000
C                  0.2045830000     -1.7801520000     -0.5135880000
O                  0.3463020000     -3.0092400000     -0.8827180000
C                  1.3337060000     -0.9169530000     -0.2359670000
C                  2.6551630000     -1.4395170000     -0.3266920000
C                  3.7754460000     -0.6695070000     -0.1084980000
C                  3.6303930000      0.7108710000      0.2140470000
C                  2.3642660000      1.2496920000      0.3385820000
C                  1.1865080000      0.4730510000      0.1386370000
C                 -0.1254930000      1.0970190000      0.2985640000
O                 -0.2654090000      2.3265400000      0.6106320000
C                 -1.2654870000      0.2144040000      0.0585530000
C                 -2.5896290000      0.7270620000      0.1770930000
S                  5.1446670000      1.7025600000      0.4365800000
O                  5.9107500000      1.6012920000     -0.8534700000
O                  4.7204590000      3.1038320000      0.7420660000
O                  5.9052750000      1.0730230000      1.5703980000
H                 -4.4122660000     -2.0723680000     -0.4781790000
H                 -2.1239100000     -3.0082840000     -0.7326080000
H                  2.7470640000     -2.4948250000     -0.5721010000
H                  4.7687450000     -1.1043860000     -0.1768320000
H                  2.2383600000      2.2954890000      0.5914960000
H                 -2.7009900000      1.7742870000      0.4309100000
$end

$rem
Scf_algorithm RCA_DIIS
BASIS  =  6-311++G(d,p)
GUI  =  2
JOB_TYPE  =  SP
METHOD  =  B3LYP
SCF_CONVERGENCE  = 8
SOLVENT_METHOD = sm12
$end

$smx
solvent dimethylformamide
charges CM5
$end

--------------------------------------------------------------

             Standard Nuclear Orientation (Angstroms)
    I     Atom           X                Y                Z
 ----------------------------------------------------------------
    1      O      -6.0500460000     0.3344170000    -1.2397150000
    2      S      -5.4038040000     0.5893170000     0.0940100000
    3      O      -5.3015790000     2.0472590000     0.4115250000
    4      O      -6.0850520000    -0.1893260000     1.1848940000
    5      C      -3.7049180000    -0.0628450000    -0.0255820000
    6      C      -3.5378930000    -1.4407570000    -0.3480980000
    7      C      -2.2700360000    -1.9588390000    -0.4883900000
    8      C      -1.0951750000    -1.1731180000    -0.3155480000
    9      C       0.2045830000    -1.7801520000    -0.5135880000
   10      O       0.3463020000    -3.0092400000    -0.8827180000
   11      C       1.3337060000    -0.9169530000    -0.2359670000
   12      C       2.6551630000    -1.4395170000    -0.3266920000
   13      C       3.7754460000    -0.6695070000    -0.1084980000
   14      C       3.6303930000     0.7108710000     0.2140470000
   15      C       2.3642660000     1.2496920000     0.3385820000
   16      C       1.1865080000     0.4730510000     0.1386370000
   17      C      -0.1254930000     1.0970190000     0.2985640000
   18      O      -0.2654090000     2.3265400000     0.6106320000
   19      C      -1.2654870000     0.2144040000     0.0585530000
   20      C      -2.5896290000     0.7270620000     0.1770930000
   21      S       5.1446670000     1.7025600000     0.4365800000
   22      O       5.9107500000     1.6012920000    -0.8534700000
   23      O       4.7204590000     3.1038320000     0.7420660000
   24      O       5.9052750000     1.0730230000     1.5703980000
   25      H      -4.4122660000    -2.0723680000    -0.4781790000
   26      H      -2.1239100000    -3.0082840000    -0.7326080000
   27      H       2.7470640000    -2.4948250000    -0.5721010000
   28      H       4.7687450000    -1.1043860000    -0.1768320000
   29      H       2.2383600000     2.2954890000     0.5914960000
   30      H      -2.7009900000     1.7742870000     0.4309100000
 ----------------------------------------------------------------

   39   -1935.3262796509      6.41E-09 Convergence criterion met
   28   -1935.3168249664      5.64E-09 Convergence criterion met
 Total energy in the final basis set = -1936.13756186

                    Orbital Energies (a.u.)
 --------------------------------------------------------------

 Alpha MOs
 -- Occupied --
-89.0385 -89.0385 -19.0813 -19.0813 -19.0799 -19.0799 -19.0795 -19.0795
-19.0705 -19.0682 -10.2301 -10.2237 -10.2065 -10.2065 -10.1999 -10.1999
-10.1955 -10.1954 -10.1943 -10.1942 -10.1886 -10.1886 -10.1874 -10.1874
 -8.0966  -8.0966  -6.0594  -6.0593  -6.0593  -6.0593  -6.0585  -6.0585
 -1.0917  -1.0916  -0.9878  -0.9786  -0.9558  -0.9558  -0.9508  -0.9508
 -0.8740  -0.8686  -0.8022  -0.7706  -0.7704  -0.7579  -0.6879  -0.6667
 -0.6506  -0.6129  -0.6007  -0.5831  -0.5712  -0.5300  -0.5291  -0.4916
 -0.4843  -0.4806  -0.4743  -0.4489  -0.4464  -0.4406  -0.4402  -0.4397
 -0.4360  -0.4295  -0.4240  -0.4230  -0.4102  -0.3994  -0.3874  -0.3831
 -0.3670  -0.3648  -0.3504  -0.3477  -0.3186  -0.3182  -0.3182  -0.3179
 -0.2947  -0.2893  -0.2876  -0.2855  -0.2794  -0.2793  -0.2769  -0.2685
 -0.2544  -0.2499  -0.2411  -0.2392  -0.2392  -0.2350  -0.1443

          Ground-State Mulliken Net Atomic Charges

     Atom                 Charge (a.u.)
  ----------------------------------------
      1 O                    -0.162546
      2 S                     1.983000
      3 O                    -0.280674
      4 O                    -0.160701
      5 C                     0.229517
      6 C                     1.544143
      7 C                    -0.140098
      8 C                    -1.664936
      9 C                    -1.938518
     10 O                    -0.282330
     11 C                    -1.676092
     12 C                    -0.155830
     13 C                     1.536566
     14 C                     0.229088
     15 C                     0.202277
     16 C                    -0.789489
     17 C                    -0.901057
     18 O                    -0.204424
     19 C                    -0.782950
     20 C                     0.209996
     21 S                     1.986083
     22 O                    -0.162786
     23 O                    -0.279986
     24 O                    -0.161908
     25 H                     0.174659
     26 H                    -1.361381
     27 H                    -1.371030
     28 H                     0.166783
     29 H                     0.107456
     30 H                     0.107170
  ----------------------------------------
  Sum of atomic charges =    -4.000000

                    Cartesian Multipole Moments
 -----------------------------------------------------------------
    Charge (ESU x 10^10)
               -19.2128
    Dipole Moment (Debye)
         X       0.0423      Y      -0.4534      Z      -1.2672
       Tot       1.3465
    Quadrupole Moments (Debye-Ang)
        XX    -565.6726     XY     -27.8488     YY    -297.1058
        XZ      -9.9034     YZ     -20.1800     ZZ    -197.9395

 Total job time:  1927.59s(wall), 5616.03s(cpu)
        *  Thank you very much for using Q-Chem.  Have a nice day.  *
