 Gaussian 16, Revision A.03,
 Gaussian 16:  ES64L-G16RevA.03 25-Dec-2016

 --------------------------------------
 #P UB3LYP/6-311++G(d,p) nosym opt freq
 --------------------------------------

 --------
 Oxidized
 --------
 Symbolic Z-matrix:
 Charge =  0 Multiplicity = 1

 SCF Done:  E(UB3LYP) =  -610.644333225     A.U. after   16 cycles
 SCF Done:  E(UB3LYP) =  -610.666615936     A.U. after   14 cycles
 SCF Done:  E(UB3LYP) =  -610.673084382     A.U. after   15 cycles
 SCF Done:  E(UB3LYP) =  -610.675514268     A.U. after   14 cycles
 SCF Done:  E(UB3LYP) =  -610.676844159     A.U. after   14 cycles
 SCF Done:  E(UB3LYP) =  -610.677842488     A.U. after   14 cycles
 SCF Done:  E(UB3LYP) =  -610.678380837     A.U. after   13 cycles
 SCF Done:  E(UB3LYP) =  -610.678713103     A.U. after   13 cycles
 SCF Done:  E(UB3LYP) =  -610.678941151     A.U. after   14 cycles
 SCF Done:  E(UB3LYP) =  -610.679142272     A.U. after   14 cycles
 SCF Done:  E(UB3LYP) =  -610.679768115     A.U. after   11 cycles
 SCF Done:  E(UB3LYP) =  -610.679771448     A.U. after   11 cycles
 SCF Done:  E(UB3LYP) =  -610.679771972     A.U. after   11 cycles
 SCF Done:  E(UB3LYP) =  -610.679772026     A.U. after    9 cycles
 SCF Done:  E(UB3LYP) =  -610.679772053     A.U. after    9 cycles
 SCF Done:  E(UB3LYP) =  -610.679772074     A.U. after    9 cycles
 SCF Done:  E(UB3LYP) =  -610.679772102     A.U. after    9 cycles
 SCF Done:  E(UB3LYP) =  -610.679772130     A.U. after    9 cycles
 SCF Done:  E(UB3LYP) =  -610.679772153     A.U. after    9 cycles
 Optimization completed.
    -- Stationary point found.
 Normal termination of Gaussian 16 at Wed Dec 20 01:50:50 2023.

 ----------------------------------------------------------------------
 #P Geom=AllCheck Guess=TCheck SCRF=Check GenChk UB3LYP/6-311++G(d,p) F
 req
 ----------------------------------------------------------------------

 Structure from the checkpoint file:  "085.chk"
 --------
 Oxidized
 --------
 Charge =  0 Multiplicity = 1

                          Input orientation:
 ---------------------------------------------------------------------
 Center     Atomic      Atomic             Coordinates (Angstroms)
 Number     Number       Type             X           Y           Z
 ---------------------------------------------------------------------
      1          6           0       -3.574230    0.691431   -0.148924
      2          8           0       -2.792235   -0.499820   -0.035267
      3          6           0       -1.470980   -0.387151    0.061432
      4          6           0       -0.756454    0.761795    0.064550
      5          6           0        0.696718    0.767951    0.198679
      6          8           0        1.326177    1.814543    0.263071
      7          6           0        1.399391   -0.573163    0.270549
      8          6           0        0.674456   -1.716435    0.278149
      9          6           0       -0.777546   -1.733111    0.176932
     10          8           0       -1.428343   -2.762490    0.173447
     11          8           0        2.728644   -0.673523    0.391598
     12          6           0        3.658717    0.396814    0.123027
     13          1           0       -4.607186    0.358171   -0.214980
     14          1           0       -3.302958    1.247387   -1.050918
     15          1           0       -3.442230    1.325809    0.732213
     16          1           0       -1.209375    1.741537   -0.004903
     17          1           0        1.166997   -2.677943    0.352200
     18          1           0        3.456656    0.861934   -0.841557
     19          1           0        3.624245    1.152364    0.905078
     20          1           0        4.629534   -0.096101    0.107419
 ---------------------------------------------------------------------

 SCF Done:  E(UB3LYP) =  -610.679772153     A.U. after    1 cycles

 Alpha  occ. eigenvalues --  -19.19558 -19.18335 -19.13636 -19.12668 -10.29067
 Alpha  occ. eigenvalues --  -10.27930 -10.27794 -10.27569 -10.25061 -10.23526
 Alpha  occ. eigenvalues --  -10.19846 -10.19129  -1.11692  -1.10100  -1.06469
 Alpha  occ. eigenvalues --   -1.05621  -0.85936  -0.79921  -0.75666  -0.73120
 Alpha  occ. eigenvalues --   -0.68245  -0.63446  -0.60726  -0.55762  -0.54888
 Alpha  occ. eigenvalues --   -0.53179  -0.50629  -0.49072  -0.47996  -0.47492
 Alpha  occ. eigenvalues --   -0.45589  -0.44650  -0.44273  -0.43990  -0.41589
 Alpha  occ. eigenvalues --   -0.41517  -0.38404  -0.37593  -0.36949  -0.36200
 Alpha  occ. eigenvalues --   -0.28340  -0.28111  -0.27631  -0.25633
 Alpha virt. eigenvalues --   -0.12369  -0.01605  -0.01559  -0.00528   0.00446
 Alpha virt. eigenvalues --    0.01176   0.01646   0.02043   0.02403   0.03466
 Alpha virt. eigenvalues --    0.03571   0.03896   0.04902   0.06768   0.07096

  Beta  occ. eigenvalues --  -19.19558 -19.18335 -19.13636 -19.12668 -10.29067
  Beta  occ. eigenvalues --  -10.27930 -10.27794 -10.27569 -10.25061 -10.23526
  Beta  occ. eigenvalues --  -10.19846 -10.19129  -1.11692  -1.10100  -1.06469
  Beta  occ. eigenvalues --   -1.05621  -0.85936  -0.79921  -0.75666  -0.73120
  Beta  occ. eigenvalues --   -0.68245  -0.63446  -0.60726  -0.55762  -0.54888
  Beta  occ. eigenvalues --   -0.53179  -0.50629  -0.49072  -0.47996  -0.47492
  Beta  occ. eigenvalues --   -0.45589  -0.44650  -0.44273  -0.43990  -0.41589
  Beta  occ. eigenvalues --   -0.41517  -0.38404  -0.37593  -0.36949  -0.36200
  Beta  occ. eigenvalues --   -0.28340  -0.28111  -0.27631  -0.25633
  Beta virt. eigenvalues --   -0.12369  -0.01605  -0.01559  -0.00528   0.00446
  Beta virt. eigenvalues --    0.01176   0.01646   0.02043   0.02403   0.03466
  Beta virt. eigenvalues --    0.03571   0.03896   0.04902   0.06768   0.07096

 Mulliken charges and spin densities:
               1          2
     1  C   -0.289155  -0.000000
     2  O   -0.112898  -0.000000
     3  C   -0.240152   0.000000
     4  C    0.859706  -0.000000
     5  C   -0.644648   0.000000
     6  O   -0.241234   0.000000
     7  C    0.058250  -0.000000
     8  C    0.342758   0.000000
     9  C   -0.544478  -0.000000
    10  O   -0.241400   0.000000
    11  O   -0.187773  -0.000000
    12  C   -0.281610  -0.000000
    13  H    0.205312   0.000000
    14  H    0.161739  -0.000000
    15  H    0.160813  -0.000000
    16  H    0.231923  -0.000000
    17  H    0.235644   0.000000
    18  H    0.167008   0.000000
    19  H    0.191275  -0.000000
    20  H    0.168919  -0.000000
 Sum of Mulliken charges =  -0.00000  -0.00000

 Dipole moment (field-independent basis, Debye):
    X=             -0.0715    Y=              2.9514    Z=             -0.6373  Tot=              3.0203
 Quadrupole moment (field-independent basis, Debye-Ang):
   XX=            -55.9230   YY=            -83.0044   ZZ=            -69.1968
   XY=            -11.4203   XZ=             -0.1643   YZ=             -0.1601

  Exact polarizability: 155.551  25.824 124.150   4.262  -0.754  64.899
 Approx polarizability: 232.021  87.774 232.111   6.524   1.308  97.485

                      1                      2                      3
                      A                      A                      A
 Frequencies --     33.1358                62.1913               120.7828
 Red. masses --      3.6101                 5.3757                 4.4992
 Frc consts  --      0.0023                 0.0123                 0.0387
 IR Inten    --      9.6740                 1.5394                 0.3453

                      4                      5                      6
                      A                      A                      A
 Frequencies --    143.9501               163.5034               192.5691
 Red. masses --      3.4908                 3.7954                 3.4700
 Frc consts  --      0.0426                 0.0598                 0.0758
 IR Inten    --      0.4595                 8.7016                 1.8262

                      7                      8                      9
                      A                      A                      A
 Frequencies --    217.9251               232.9218               264.8471
 Red. masses --      1.1522                 1.2431                 4.3063
 Frc consts  --      0.0322                 0.0397                 0.1780
 IR Inten    --      0.6247                 0.8013                 3.4088

                     10                     11                     12
                      A                      A                      A
 Frequencies --    324.8784               373.8991               386.3106
 Red. masses --      6.6718                 4.5486                10.7487
 Frc consts  --      0.4149                 0.3747                 0.9451
 IR Inten    --      3.7733                 8.0062                14.0577

                     13                     14                     15
                      A                      A                      A
 Frequencies --    430.7164               459.4112               484.0375
 Red. masses --      3.5202                 7.8407                 6.4862
 Frc consts  --      0.3848                 0.9750                 0.8954
 IR Inten    --      0.8246                 1.7517                 0.6745

                     16                     17                     18
                      A                      A                      A
 Frequencies --    510.8494               649.0221               672.7160
 Red. masses --      7.0127                 6.5441                 6.0487
 Frc consts  --      1.0782                 1.6241                 1.6128
 IR Inten    --      2.3292                 1.1881                 6.4856

                     19                     20                     21
                      A                      A                      A
 Frequencies --    736.1744               749.3190               768.3404
 Red. masses --      5.4861                 4.6327                 6.4907
 Frc consts  --      1.7518                 1.5326                 2.2576
 IR Inten    --      8.1503                13.0134                 1.6062

                     22                     23                     24
                      A                      A                      A
 Frequencies --    828.2585               839.2003               876.2158
 Red. masses --      1.4793                 3.1293                 1.4878
 Frc consts  --      0.5979                 1.2985                 0.6730
 IR Inten    --      7.2956                14.0819                66.8380

                     25                     26                     27
                      A                      A                      A
 Frequencies --    978.6091              1028.5342              1159.5401
 Red. masses --      6.6228                 6.0195                 1.2569
 Frc consts  --      3.7369                 3.7519                 0.9957
 IR Inten    --     42.4270                42.5614                 1.5683

                     28                     29                     30
                      A                      A                      A
 Frequencies --   1167.1740              1173.0737              1193.4640
 Red. masses --      1.2797                 1.7711                 1.6410
 Frc consts  --      1.0272                 1.4360                 1.3771
 IR Inten    --      0.8665               148.9774                60.9672

                     31                     32                     33
                      A                      A                      A
 Frequencies --   1210.0198              1227.0206              1283.5057
 Red. masses --      1.5092                 2.5697                 4.7800
 Frc consts  --      1.3019                 2.2795                 4.6395
 IR Inten    --     65.2359               503.2013                16.3276

                     34                     35                     36
                      A                      A                      A
 Frequencies --   1301.5187              1362.8731              1376.3107
 Red. masses --      2.4055                 3.8949                 3.4105
 Frc consts  --      2.4008                 4.2624                 3.8063
 IR Inten    --     34.0062                95.1561                75.1125

                     37                     38                     39
                      A                      A                      A
 Frequencies --   1474.1861              1483.0105              1488.6840
 Red. masses --      1.2382                 1.1353                 1.0754
 Frc consts  --      1.5854                 1.4712                 1.4042
 IR Inten    --      7.7414                11.6610                 8.5770

                     40                     41                     42
                      A                      A                      A
 Frequencies --   1490.9992              1492.9122              1497.8196
 Red. masses --      1.0967                 1.0444                 1.0467
 Frc consts  --      1.4365                 1.3714                 1.3836
 IR Inten    --     44.1336                12.1480                15.2515

                     43                     44                     45
                      A                      A                      A
 Frequencies --   1628.4967              1662.5116              1705.2532
 Red. masses --      7.5541                 7.9251                10.8853
 Frc consts  --     11.8035                12.9057                18.6496
 IR Inten    --    661.6847                10.3473               184.5282

                     46                     47                     48
                      A                      A                      A
 Frequencies --   1723.6823              3022.4636              3057.0156
 Red. masses --     12.0037                 1.0333                 1.0282
 Frc consts  --     21.0126                 5.5614                 5.6613
 IR Inten    --    335.1008                30.1383                43.9413

                     49                     50                     51
                      A                      A                      A
 Frequencies --   3089.4330              3139.7443              3150.3613
 Red. masses --      1.1068                 1.1073                 1.1082
 Frc consts  --      6.2243                 6.4315                 6.4804
 IR Inten    --     22.9744                23.0841                14.7352

                     52                     53                     54
                      A                      A                      A
 Frequencies --   3154.0817              3200.7918              3208.2853
 Red. masses --      1.1014                 1.0917                 1.0909
 Frc consts  --      6.4558                 6.5895                 6.6160
 IR Inten    --     11.6162                 0.5776                 2.0500

 - Thermochemistry -
 -------------------
 Temperature   298.150 Kelvin.  Pressure   1.00000 Atm.
 Atom     1 has atomic number  6 and mass  12.00000

 Molecular mass:   168.04226 amu.
 Principal axes and moments of inertia in atomic units:
                           1         2         3
     Eigenvalues --   999.649382869.409993838.05699
           X            0.98943  -0.13377  -0.05594
           Y            0.13608   0.98990   0.03968
           Z            0.05006  -0.04688   0.99765
 This molecule is an asymmetric top.
 Rotational symmetry number  1.
 Warning -- assumption of classical behavior for rotation
           may cause significant error
 Rotational temperatures (Kelvin)      0.08664     0.03019     0.02257
 Rotational constants (GHZ):           1.80537     0.62896     0.47022
 Zero-point vibrational energy     392689.5 (Joules/Mol)
                                   93.85503 (Kcal/Mol)
 Warning -- explicit consideration of  16 degrees of freedom as
           vibrations may cause significant error
 Vibrational temperatures:     47.68    89.48   173.78   207.11   235.24
          (Kelvin)            277.06   313.55   335.12   381.06   467.43
                              537.96   555.81   619.70   660.99   696.42
                              735.00   933.80   967.89  1059.19  1078.10
                             1105.47  1191.68  1207.42  1260.68  1408.00
                             1479.83  1668.32  1679.30  1687.79  1717.13
                             1740.95  1765.41  1846.68  1872.60  1960.87
                             1980.20  2121.02  2133.72  2141.88  2145.22
                             2147.97  2155.03  2343.04  2391.98  2453.48
                             2479.99  4348.65  4398.36  4445.01  4517.39
                             4532.67  4538.02  4605.23  4616.01

 Zero-point correction=                           0.149568 (Hartree/Particle)
 Thermal correction to Energy=                    0.161167
 Thermal correction to Enthalpy=                  0.162111
 Thermal correction to Gibbs Free Energy=         0.111265
 Sum of electronic and zero-point Energies=           -610.530205
 Sum of electronic and thermal Energies=              -610.518605
 Sum of electronic and thermal Enthalpies=            -610.517661
 Sum of electronic and thermal Free Energies=         -610.568507

                     E (Thermal)             CV                S
                      KCal/Mol        Cal/Mol-Kelvin    Cal/Mol-Kelvin
 Total                  101.134             41.680            107.015
 Electronic               0.000              0.000              0.000
 Translational            0.889              2.981             41.265
 Rotational               0.889              2.981             30.777
 Vibrational             99.356             35.718             34.973
 Vibration     1          0.594              1.983              5.632
 Vibration     2          0.597              1.972              4.386
 Vibration     3          0.609              1.932              3.088
 Vibration     4          0.616              1.909              2.751
 Vibration     5          0.623              1.887              2.509
 Vibration     6          0.635              1.850              2.203
 Vibration     7          0.646              1.814              1.976
 Vibration     8          0.654              1.791              1.856
 Vibration     9          0.671              1.737              1.630
 Vibration    10          0.709              1.626              1.285
 Vibration    11          0.745              1.526              1.064
 Vibration    12          0.755              1.499              1.014
 Vibration    13          0.792              1.403              0.856
 Vibration    14          0.817              1.340              0.768
 Vibration    15          0.840              1.285              0.699
 Vibration    16          0.866              1.226              0.632

 Optimization completed.
    -- Stationary point found.
 Normal termination of Gaussian 16 at Wed Dec 20 01:59:12 2023.
