 Q-Chem 5.4, Q-Chem, Inc., Pleasanton, CA (2021)
 Q-Chem 5.4.0 for Intel X86 EM64T Linux

User input:
--------------------------------------------------------------
$molecule
-1 2
C                 -4.3820420000     -0.4547770000     -0.1039920000
C                 -2.8955010000     -0.7008730000     -0.1126800000
C                 -2.3921110000     -1.9896050000     -0.3134980000
C                 -1.0375520000     -2.2544550000     -0.2921500000
Cl                -0.6283590000     -3.9616820000     -0.5698750000
C                 -0.0772720000     -1.2325960000     -0.0846940000
C                  1.3696830000     -1.5083400000     -0.0458870000
O                  1.8510710000     -2.6592930000     -0.1227990000
C                  2.2615360000     -0.3525940000      0.0918290000
C                  3.6573560000     -0.5655430000      0.0995200000
C                  4.5387850000      0.4899690000      0.2200020000
C                  4.0453590000      1.8077190000      0.3410210000
C                  2.6845420000      2.0360000000      0.3384050000
C                  1.7673030000      0.9671050000      0.2152100000
C                  0.3378960000      1.2462740000      0.2251930000
O                 -0.0542510000      2.4523830000      0.3383930000
C                 -0.5780550000      0.1159610000      0.0901250000
C                 -1.9970920000      0.3539200000      0.0975360000
N                 -2.4964250000      1.6178130000      0.3555690000
H                 -4.7127610000     -0.0069810000      0.8418560000
H                 -4.6976840000      0.2280180000     -0.9063160000
H                 -4.9300760000     -1.3894510000     -0.2429080000
H                 -3.0809960000     -2.8094930000     -0.4817600000
H                  4.0043570000     -1.5876590000      0.0054300000
H                  5.6095920000      0.3089030000      0.2220400000
H                  4.7371000000      2.6394870000      0.4372680000
H                  2.2771770000      3.0353330000      0.4321830000
H                 -1.7738520000      2.3439740000      0.3250670000
H                 -3.4077280000      1.8304850000     -0.0170230000
$end
$rem
MAX_SCF_CYCLES=200
BASIS  =  6-311++G(d,p)
GUI  =  2
JOB_TYPE  =  SP
METHOD  =  B3LYP
SOLVENT_METHOD = PCM
$end
$pcm
theory = CPCM
$end
$solvent
dielectric 37.219
opticaldielectric 1.43
$end

--------------------------------------------------------------

             Standard Nuclear Orientation (Angstroms)
    I     Atom           X                Y                Z
 ----------------------------------------------------------------
    1      C      -4.3820420000    -0.4547770000    -0.1039920000
    2      C      -2.8955010000    -0.7008730000    -0.1126800000
    3      C      -2.3921110000    -1.9896050000    -0.3134980000
    4      C      -1.0375520000    -2.2544550000    -0.2921500000
    5      Cl     -0.6283590000    -3.9616820000    -0.5698750000
    6      C      -0.0772720000    -1.2325960000    -0.0846940000
    7      C       1.3696830000    -1.5083400000    -0.0458870000
    8      O       1.8510710000    -2.6592930000    -0.1227990000
    9      C       2.2615360000    -0.3525940000     0.0918290000
   10      C       3.6573560000    -0.5655430000     0.0995200000
   11      C       4.5387850000     0.4899690000     0.2200020000
   12      C       4.0453590000     1.8077190000     0.3410210000
   13      C       2.6845420000     2.0360000000     0.3384050000
   14      C       1.7673030000     0.9671050000     0.2152100000
   15      C       0.3378960000     1.2462740000     0.2251930000
   16      O      -0.0542510000     2.4523830000     0.3383930000
   17      C      -0.5780550000     0.1159610000     0.0901250000
   18      C      -1.9970920000     0.3539200000     0.0975360000
   19      N      -2.4964250000     1.6178130000     0.3555690000
   20      H      -4.7127610000    -0.0069810000     0.8418560000
   21      H      -4.6976840000     0.2280180000    -0.9063160000
   22      H      -4.9300760000    -1.3894510000    -0.2429080000
   23      H      -3.0809960000    -2.8094930000    -0.4817600000
   24      H       4.0043570000    -1.5876590000     0.0054300000
   25      H       5.6095920000     0.3089030000     0.2220400000
   26      H       4.7371000000     2.6394870000     0.4372680000
   27      H       2.2771770000     3.0353330000     0.4321830000
   28      H      -1.7738520000     2.3439740000     0.3250670000
   29      H      -3.4077280000     1.8304850000    -0.0170230000
 ----------------------------------------------------------------

    8   -1243.4197232533      6.39e-06  Convergence criterion met
 Total energy in the final basis set =    -1243.4197232533

                    Orbital Energies (a.u.)
 --------------------------------------------------------------

 Alpha MOs
 -- Occupied --
******** -19.0797 -19.0733 -14.3036 -10.2295 -10.2286 -10.2233 -10.2163
-10.1862 -10.1804 -10.1763 -10.1742 -10.1719 -10.1718 -10.1713 -10.1713
-10.1691 -10.1687 -10.1638  -9.4566  -7.2209  -7.2119  -7.2109  -1.0080
 -1.0055  -0.9161  -0.8744  -0.8573  -0.8191  -0.7931  -0.7528  -0.7500
 -0.7213  -0.6989  -0.6589  -0.6329  -0.6154  -0.5784  -0.5585  -0.5467
 -0.5189  -0.5062  -0.4788  -0.4722  -0.4523  -0.4458  -0.4423  -0.4331
 -0.4231  -0.4199  -0.4152  -0.4121  -0.4001  -0.3885  -0.3874  -0.3757
 -0.3714  -0.3649  -0.3495  -0.3480  -0.3395  -0.3366  -0.3113  -0.2962
 -0.2664  -0.2564  -0.2483  -0.2477  -0.2324  -0.2116  -0.1392

 Beta MOs
 -- Occupied --
******** -19.0750 -19.0682 -14.3033 -10.2274 -10.2269 -10.2226 -10.2161
-10.1855 -10.1803 -10.1750 -10.1739 -10.1714 -10.1712 -10.1709 -10.1705
-10.1690 -10.1687 -10.1638  -9.4566  -7.2209  -7.2117  -7.2109  -0.9995
 -0.9966  -0.9149  -0.8729  -0.8554  -0.8178  -0.7898  -0.7510  -0.7479
 -0.7192  -0.6963  -0.6536  -0.6307  -0.6133  -0.5773  -0.5565  -0.5449
 -0.5172  -0.5053  -0.4767  -0.4699  -0.4513  -0.4445  -0.4413  -0.4270
 -0.4226  -0.4187  -0.4075  -0.4071  -0.3981  -0.3873  -0.3747  -0.3704
 -0.3694  -0.3625  -0.3481  -0.3396  -0.3360  -0.3300  -0.3105  -0.2914
 -0.2501  -0.2489  -0.2440  -0.2430  -0.2280  -0.2029

          Ground-State Mulliken Net Atomic Charges

     Atom                 Charge (a.u.)    Spin (a.u.)
  --------------------------------------------------------
      1 C                    -0.438535      -0.003571
      2 C                     0.375234       0.088608
      3 C                    -0.784346       0.012581
      4 C                     0.988883       0.057650
      5 Cl                    0.320013       0.004465
      6 C                     0.363888       0.052617
      7 C                    -1.387288       0.095238
      8 O                    -0.371200       0.193616
      9 C                    -0.023270       0.039066
     10 C                     0.126765       0.027751
     11 C                    -0.470948       0.035696
     12 C                    -0.544771       0.031211
     13 C                     0.114741       0.032149
     14 C                    -0.197596       0.013220
     15 C                    -0.483190       0.121762
     16 O                    -0.466755       0.175551
     17 C                     0.179538      -0.003186
     18 C                     0.025968       0.017047
     19 N                    -0.423653       0.014048
     20 H                     0.181274       0.004293
     21 H                     0.184889       0.004198
     22 H                     0.180275       0.000119
     23 H                     0.199113      -0.002482
     24 H                     0.165950      -0.001654
     25 H                     0.198905      -0.002940
     26 H                     0.196849      -0.002765
     27 H                     0.173599      -0.001137
     28 H                     0.334649      -0.002269
     29 H                     0.281019      -0.000882
  --------------------------------------------------------
  Sum of atomic charges =    -1.000000

                    Cartesian Multipole Moments
 -----------------------------------------------------------------
    Charge (ESU x 10^10)
                -4.8032
    Dipole Moment (Debye)
         X      -5.7712      Y       4.8568      Z      -0.8953
       Tot       7.5958
    Quadrupole Moments (Debye-Ang)
        XX    -112.8708     XY       8.9086     YY    -158.1367
        XZ       3.5637     YZ      -4.9725     ZZ    -126.0602

 Total job time:  231.00s(wall), 454.04s(cpu)
        *  Thank you very much for using Q-Chem.  Have a nice day.  *
