 Gaussian 16, Revision A.03,
 Gaussian 16:  ES64L-G16RevA.03 25-Dec-2016

 ---------------------------------------------------------
 #P UB3LYP/genecp SCRF=(PCM,Solvent=n,n-DiMethylFormamide)
 ---------------------------------------------------------

 ------------------
 Quinone PCM in DMF
 ------------------
 Symbolic Z-matrix:
 Charge =  0 Multiplicity = 1

                         Standard orientation:
 ---------------------------------------------------------------------
 Center     Atomic      Atomic             Coordinates (Angstroms)
 Number     Number       Type             X           Y           Z
 ---------------------------------------------------------------------
      1         53           0       -3.003690    1.867077    0.000010
      2          6           0       -1.286446    0.673854    0.000027
      3          6           0       -1.286335   -0.673851    0.000061
      4         53           0       -3.003437   -1.867261   -0.000030
      5          6           0        0.000159   -1.452491    0.000116
      6          8           0       -0.000039   -2.661802    0.000132
      7          6           0        1.286431   -0.673861    0.000055
      8          6           0        1.286356    0.673869    0.000017
      9         53           0        3.003418    1.867285    0.000001
     10          6           0       -0.000176    1.452507    0.000048
     11          8           0       -0.000001    2.661824   -0.000117
     12         53           0        3.003716   -1.867108   -0.000020
 ---------------------------------------------------------------------

 SCF Done:  E(UB3LYP) =  -1570.33870522     A.U. after   15 cycles

 The electronic state is 1-A.
 Alpha  occ. eigenvalues --  -19.16277 -19.16277 -10.31888 -10.31887 -10.26956
 Alpha  occ. eigenvalues --  -10.26954 -10.26880 -10.26880  -6.86809  -6.86809
 Alpha  occ. eigenvalues --   -6.86808  -6.86808  -4.89324  -4.89324  -4.89324
 Alpha  occ. eigenvalues --   -4.89324  -4.88114  -4.88114  -4.88113  -4.88113
 Alpha  occ. eigenvalues --   -4.87960  -4.87959  -4.87959  -4.87959  -1.94137
 Alpha  occ. eigenvalues --   -1.94137  -1.94135  -1.94135  -1.93755  -1.93755
 Alpha  occ. eigenvalues --   -1.93755  -1.93755  -1.93640  -1.93640  -1.93635
 Alpha  occ. eigenvalues --   -1.93635  -1.92591  -1.92591  -1.92590  -1.92590
 Alpha  occ. eigenvalues --   -1.92588  -1.92588  -1.92586  -1.92585  -1.10186
 Alpha  occ. eigenvalues --   -1.10013  -0.89438  -0.84092  -0.75963  -0.74830
 Alpha  occ. eigenvalues --   -0.73223  -0.69746  -0.68872  -0.61302  -0.60916
 Alpha  occ. eigenvalues --   -0.56082  -0.50195  -0.49064  -0.47966  -0.44728
 Alpha  occ. eigenvalues --   -0.42931  -0.42289  -0.41456  -0.39152  -0.37138
 Alpha  occ. eigenvalues --   -0.35641  -0.31880  -0.30823  -0.30587  -0.29710
 Alpha  occ. eigenvalues --   -0.29641  -0.29314  -0.27652  -0.26921  -0.26011
 Alpha  occ. eigenvalues --   -0.25743
 Alpha virt. eigenvalues --   -0.15469  -0.08466  -0.06801  -0.05933  -0.04411
 Alpha virt. eigenvalues --   -0.02528  -0.00655   0.00163   0.02920   0.03234
 Alpha virt. eigenvalues --    0.05608   0.05840   0.06422   0.07047   0.07677

  Beta  occ. eigenvalues --  -19.16277 -19.16277 -10.31888 -10.31887 -10.26956
  Beta  occ. eigenvalues --  -10.26954 -10.26880 -10.26880  -6.86809  -6.86809
  Beta  occ. eigenvalues --   -6.86808  -6.86808  -4.89324  -4.89324  -4.89324
  Beta  occ. eigenvalues --   -4.89324  -4.88114  -4.88114  -4.88113  -4.88113
  Beta  occ. eigenvalues --   -4.87960  -4.87959  -4.87959  -4.87959  -1.94137
  Beta  occ. eigenvalues --   -1.94137  -1.94135  -1.94135  -1.93755  -1.93755
  Beta  occ. eigenvalues --   -1.93755  -1.93755  -1.93640  -1.93640  -1.93635
  Beta  occ. eigenvalues --   -1.93635  -1.92591  -1.92591  -1.92590  -1.92590
  Beta  occ. eigenvalues --   -1.92588  -1.92588  -1.92586  -1.92585  -1.10186
  Beta  occ. eigenvalues --   -1.10013  -0.89438  -0.84092  -0.75963  -0.74830
  Beta  occ. eigenvalues --   -0.73223  -0.69746  -0.68872  -0.61302  -0.60916
  Beta  occ. eigenvalues --   -0.56082  -0.50195  -0.49064  -0.47966  -0.44728
  Beta  occ. eigenvalues --   -0.42931  -0.42289  -0.41456  -0.39152  -0.37138
  Beta  occ. eigenvalues --   -0.35641  -0.31880  -0.30823  -0.30587  -0.29710
  Beta  occ. eigenvalues --   -0.29641  -0.29314  -0.27652  -0.26921  -0.26011
  Beta  occ. eigenvalues --   -0.25743
  Beta virt. eigenvalues --   -0.15469  -0.08466  -0.06801  -0.05933  -0.04411
  Beta virt. eigenvalues --   -0.02528  -0.00655   0.00163   0.02920   0.03234
  Beta virt. eigenvalues --    0.05608   0.05840   0.06422   0.07047   0.07677

 Mulliken charges and spin densities:
               1          2
     1  I    0.010739  -0.000000
     2  C    1.027928   0.000000
     3  C    1.028086   0.000000
     4  I    0.010798  -0.000000
     5  C   -1.960658  -0.000000
     6  O   -0.116976   0.000000
     7  C    1.028216   0.000000
     8  C    1.027753   0.000000
     9  I    0.010815  -0.000000
    10  C   -1.960456  -0.000000
    11  O   -0.116973   0.000000
    12  I    0.010729  -0.000000
 Sum of Mulliken charges =  -0.00000  -0.00000

 Dipole moment (field-independent basis, Debye):
    X=              0.0001    Y=              0.0004    Z=              0.0002  Tot=              0.0004
 Quadrupole moment (field-independent basis, Debye-Ang):
   XX=           -133.7500   YY=           -162.5625   ZZ=           -150.3002
   XY=              0.0036   XZ=              0.0000   YZ=              0.0013

 Normal termination of Gaussian 16 at Mon Jan 22 18:37:55 2024.
