 Q-Chem 5.4, Q-Chem, Inc., Pleasanton, CA (2021)
 Q-Chem 5.4.0 for Intel X86 EM64T Linux

User input:
--------------------------------------------------------------
$molecule
-2 1
C                 -1.2517340000      2.8555330000      0.2604250000
C                 -2.5893440000      2.4779280000      0.1724600000
C                 -2.9445290000      1.1339150000     -0.0800800000
C                 -0.1876550000      1.9257370000      0.1033800000
C                 -0.5789610000      0.5493530000     -0.1836210000
C                 -1.9575340000      0.1863930000     -0.2299740000
C                  1.2349390000      2.2984180000      0.1757860000
C                  2.1225230000      1.2228500000     -0.1359350000
C                  1.7238980000     -0.0795960000     -0.4521810000
C                  0.3714990000     -0.4852020000     -0.4972160000
O                  1.6647210000      3.4656670000      0.4841070000
O                 -0.0336620000     -1.6840730000     -0.8144690000
O                 -0.9760990000      4.1900580000      0.5011670000
H                 -3.9914920000      0.8464870000     -0.1264460000
H                  2.4762060000     -0.8328970000     -0.6884290000
C                 -2.3578730000     -1.2430470000     -0.4057010000
O                 -3.0082700000     -1.6982690000     -1.3310120000
O                 -2.2114320000     -1.9549560000      0.7722420000
C                 -2.1688500000     -3.3645870000      0.6003080000
H                 -3.3639650000      3.2288010000      0.3295140000
H                  3.1832210000      1.4710750000     -0.1107160000
H                 -1.8184910000      4.6512720000      0.4082430000
H                 -2.0277610000     -3.7891390000      1.5982830000
H                 -1.3175140000     -3.6096430000     -0.0410770000
H                 -3.0962910000     -3.7482210000      0.1595320000
$end
$rem
MAX_SCF_CYCLES=200
BASIS  =  6-311++G(d,p)
GUI  =  2
JOB_TYPE  =  SP
METHOD  =  B3LYP
SOLVENT_METHOD = PCM
$end
$pcm
theory = CPCM
$end
$solvent
dielectric 37.219
opticaldielectric 1.43
$end

--------------------------------------------------------------

             Standard Nuclear Orientation (Angstroms)
    I     Atom           X                Y                Z
 ----------------------------------------------------------------
    1      C      -1.2517340000     2.8555330000     0.2604250000
    2      C      -2.5893440000     2.4779280000     0.1724600000
    3      C      -2.9445290000     1.1339150000    -0.0800800000
    4      C      -0.1876550000     1.9257370000     0.1033800000
    5      C      -0.5789610000     0.5493530000    -0.1836210000
    6      C      -1.9575340000     0.1863930000    -0.2299740000
    7      C       1.2349390000     2.2984180000     0.1757860000
    8      C       2.1225230000     1.2228500000    -0.1359350000
    9      C       1.7238980000    -0.0795960000    -0.4521810000
   10      C       0.3714990000    -0.4852020000    -0.4972160000
   11      O       1.6647210000     3.4656670000     0.4841070000
   12      O      -0.0336620000    -1.6840730000    -0.8144690000
   13      O      -0.9760990000     4.1900580000     0.5011670000
   14      H      -3.9914920000     0.8464870000    -0.1264460000
   15      H       2.4762060000    -0.8328970000    -0.6884290000
   16      C      -2.3578730000    -1.2430470000    -0.4057010000
   17      O      -3.0082700000    -1.6982690000    -1.3310120000
   18      O      -2.2114320000    -1.9549560000     0.7722420000
   19      C      -2.1688500000    -3.3645870000     0.6003080000
   20      H      -3.3639650000     3.2288010000     0.3295140000
   21      H       3.1832210000     1.4710750000    -0.1107160000
   22      H      -1.8184910000     4.6512720000     0.4082430000
   23      H      -2.0277610000    -3.7891390000     1.5982830000
   24      H      -1.3175140000    -3.6096430000    -0.0410770000
   25      H      -3.0962910000    -3.7482210000     0.1595320000
 ----------------------------------------------------------------

    9    -838.7043497547      5.89e-06  Convergence criterion met
 Total energy in the final basis set =     -838.7043497547

                    Orbital Energies (a.u.)
 --------------------------------------------------------------

 Alpha MOs
 -- Occupied --
-19.1405 -19.1375 -19.0972 -19.0255 -19.0203 -10.2930 -10.2230 -10.1999
-10.1826 -10.1727 -10.1623 -10.1613 -10.1525 -10.1517 -10.1508 -10.1281
-10.1232  -1.0820  -1.0465  -1.0007  -0.9410  -0.9370  -0.8353  -0.7722
 -0.7464  -0.7147  -0.6956  -0.6498  -0.6123  -0.5991  -0.5625  -0.5428
 -0.5192  -0.4888  -0.4703  -0.4658  -0.4552  -0.4517  -0.4327  -0.4228
 -0.4059  -0.4019  -0.3904  -0.3750  -0.3679  -0.3619  -0.3599  -0.3522
 -0.3413  -0.3325  -0.3259  -0.3223  -0.3093  -0.2829  -0.2708  -0.2314
 -0.2232  -0.2161  -0.2069  -0.1969  -0.1180

          Ground-State Mulliken Net Atomic Charges

     Atom                 Charge (a.u.)
  ----------------------------------------
      1 C                    -0.004621
      2 C                    -0.113701
      3 C                    -0.309960
      4 C                     0.066582
      5 C                     0.441405
      6 C                     0.652625
      7 C                    -0.377731
      8 C                    -0.195336
      9 C                    -0.250008
     10 C                    -0.529571
     11 O                    -0.704099
     12 O                    -0.639912
     13 O                    -0.278314
     14 H                     0.185340
     15 H                     0.147649
     16 C                    -0.556994
     17 O                    -0.334784
     18 O                    -0.054390
     19 C                    -0.257554
     20 H                     0.171870
     21 H                     0.141772
     22 H                     0.304957
     23 H                     0.162789
     24 H                     0.183336
     25 H                     0.148650
  ----------------------------------------
  Sum of atomic charges =    -2.000000

                    Cartesian Multipole Moments
 -----------------------------------------------------------------
    Charge (ESU x 10^10)
                -9.6064
    Dipole Moment (Debye)
         X      -3.5576      Y      -7.1610      Z       2.9968
       Tot       8.5391
    Quadrupole Moments (Debye-Ang)
        XX    -127.6307     XY     -36.1811     YY    -156.5992
        XZ     -11.0036     YZ     -16.6571     ZZ    -117.5827

 Total job time:  54.96s(wall), 310.10s(cpu)
        *  Thank you very much for using Q-Chem.  Have a nice day.  *
