 Q-Chem 5.4, Q-Chem, Inc., Pleasanton, CA (2021)
 Q-Chem 5.4.0 for Intel X86 EM64T Linux

User input:
--------------------------------------------------------------
$molecule
0 1
C                 -1.7712760000      1.8855580000     -5.1550450000
C                 -1.6914700000      0.5495270000     -5.5279930000
C                 -1.3239020000     -0.4211760000     -4.5914040000
C                 -1.4841630000      2.2671670000     -3.8396760000
C                 -1.1157870000      1.2916090000     -2.9022640000
C                 -1.0371510000     -0.0515360000     -3.2834240000
C                 -1.5834520000      3.7176400000     -3.4845960000
C                 -0.8060840000      1.6723660000     -1.5005640000
C                 -1.2741350000      4.1147700000     -2.0674480000
C                 -0.9046420000      3.1112370000     -1.1403490000
C                 -1.3351970000      5.4412080000     -1.6174700000
C                 -1.0441480000      5.8015280000     -0.2740200000
C                 -0.6775980000      4.7559190000      0.6003930000
C                 -0.6093420000      3.4474650000      0.1814010000
O                 -1.9068620000      4.5243280000     -4.3363300000
O                 -0.4818610000      0.8330970000     -0.6728080000
H                 -2.0540620000      2.6517120000     -5.8656750000
H                 -1.9151920000      0.2603960000     -6.5485810000
H                 -1.2625790000     -1.4628140000     -4.8854370000
H                 -0.7501270000     -0.7831980000     -2.5385330000
Br                -0.2584810000      5.1715860000      2.4251670000
H                 -0.3272370000      2.6548630000      0.8613730000
N                 -1.1396490000      7.0875860000      0.1537230000
Cl                -1.7718930000      6.7818300000     -2.6611390000
H                 -1.2790140000      7.8219500000     -0.5201150000
H                 -0.8005150000      7.3267720000      1.0708040000
$end
$rem
MAX_SCF_CYCLES=200
BASIS  =  6-311++G(d,p)
GUI  =  2
JOB_TYPE  =  SP
METHOD  =  B3LYP
SOLVENT_METHOD = COSMO
$end
$solvent
dielectric 37.219
opticaldielectric 1.43
$end

--------------------------------------------------------------

             Standard Nuclear Orientation (Angstroms)
    I     Atom           X                Y                Z
 ----------------------------------------------------------------
    1      C       4.2392818327    -0.8216426762    -0.0000454633
    2      C       5.3329175637     0.0353278445     0.0006296008
    3      C       5.1410485481     1.4201583617     0.0011020564
    4      C       2.9393991902    -0.3034149429    -0.0002500867
    5      C       2.7497298245     1.0858945310     0.0002636582
    6      C       3.8542748816     1.9434986442     0.0009411902
    7      C       1.7927628253    -1.2652030472    -0.0011013695
    8      C       1.3797842521     1.6593956829    -0.0002735611
    9      C       0.4007957615    -0.6958850857     0.0004637118
   10      C       0.2360606659     0.7098098551     0.0009071891
   11      C      -0.7498260305    -1.4969554734     0.0019676503
   12      C      -2.0593402290    -0.9451051078     0.0075946570
   13      C      -2.1568008377     0.4629919940     0.0032174859
   14      C      -1.0423075642     1.2693172492     0.0001557921
   15      O       2.0120645564    -2.4621556828    -0.0023274231
   16      O       1.1989845794     2.8685204492    -0.0016083154
   17      H       4.3673580035    -1.8966083636    -0.0004142221
   18      H       6.3373859006    -0.3724606512     0.0008223574
   19      H       5.9963763642     2.0862211389     0.0016871410
   20      H       3.6778440776     3.0118837327     0.0013083059
   21      Br     -3.8936449559     1.2763653571    -0.0026601816
   22      H      -1.1301708919     2.3474791169    -0.0030229979
   23      N      -3.1638168888    -1.7356676288     0.0418277239
   24      Cl     -0.6897706545    -3.2501115034    -0.0053132056
   25      H      -3.0627939314    -2.7291050345    -0.0832611277
   26      H      -4.0706839078    -1.3186735869    -0.0884318327
 ----------------------------------------------------------------

    9   -3777.4851485781      4.11e-06  Convergence criterion met
 Total energy in the final basis set =    -3777.4851485781
    5   -3777.5021140329      3.04e-06  Convergence criterion met
 Total energy in the final basis set =    -3777.5021140329

                    Orbital Energies (a.u.)
 --------------------------------------------------------------

 Alpha MOs
 -- Occupied --
********-101.5714 -62.5028 -56.3233 -56.3195 -56.3193 -19.1336 -19.1280
-14.3474 -10.2906 -10.2819 -10.2670 -10.2654 -10.2535 -10.2271 -10.2090
-10.2082 -10.2078 -10.2066 -10.1961 -10.1957 -10.1952 -10.1951  -9.4863
 -8.7116  -7.2507  -7.2414  -7.2405  -6.5431  -6.5301  -6.5299  -2.6540
 -2.6502  -2.6501  -2.6398  -2.6398  -1.0726  -1.0640  -0.9699  -0.8997
 -0.8874  -0.8749  -0.8329  -0.7956  -0.7774  -0.7637  -0.7574  -0.6893
 -0.6672  -0.6461  -0.6236  -0.5925  -0.5744  -0.5654  -0.5413  -0.5242
 -0.5014  -0.4861  -0.4795  -0.4649  -0.4642  -0.4606  -0.4554  -0.4492
 -0.4449  -0.4324  -0.4230  -0.4222  -0.3911  -0.3810  -0.3806  -0.3690
 -0.3673  -0.3435  -0.3433  -0.3265  -0.3136  -0.2871  -0.2846  -0.2775
 -0.2721  -0.2704  -0.2367

          Ground-State Mulliken Net Atomic Charges

     Atom                 Charge (a.u.)
  ----------------------------------------
      1 C                     0.206537
      2 C                    -0.487659
      3 C                    -0.417227
      4 C                     0.004295
      5 C                     0.009829
      6 C                     0.151671
      7 C                    -1.218083
      8 C                    -0.592672
      9 C                     0.838615
     10 C                     0.297358
     11 C                     0.363158
     12 C                    -1.284443
     13 C                     0.628578
     14 C                     0.411500
     15 O                    -0.181747
     16 O                    -0.306850
     17 H                     0.197203
     18 H                     0.227549
     19 H                     0.228612
     20 H                     0.197199
     21 Br                   -0.167895
     22 H                     0.232690
     23 N                    -0.209162
     24 Cl                    0.288435
     25 H                     0.285463
     26 H                     0.297049
  ----------------------------------------
  Sum of atomic charges =     0.000000

                    Cartesian Multipole Moments
 -----------------------------------------------------------------
    Charge (ESU x 10^10)
                -0.0000
    Dipole Moment (Debye)
         X      -1.0468      Y      -1.1480      Z      -0.4597
       Tot       1.6201
    Quadrupole Moments (Debye-Ang)
        XX     -89.2180     XY      12.6965     YY    -140.0665
        XZ       1.7491     YZ       0.9805     ZZ    -131.1098

 Total job time:  87.30s(wall), 547.44s(cpu)
        *  Thank you very much for using Q-Chem.  Have a nice day.  *
