 Gaussian 16, Revision A.03,
 Gaussian 16:  ES64L-G16RevA.03 25-Dec-2016

 --------------------------------------
 #P UB3LYP/6-311++G(d,p) nosym opt freq
 --------------------------------------

 --------
 Oxidized
 --------
 Symbolic Z-matrix:
 Charge =  0 Multiplicity = 1

 SCF Done:  E(UB3LYP) =  -653.217301820     A.U. after   15 cycles
 SCF Done:  E(UB3LYP) =  -653.236628261     A.U. after   15 cycles
 SCF Done:  E(UB3LYP) =  -653.239654918     A.U. after   13 cycles
 SCF Done:  E(UB3LYP) =  -653.240549933     A.U. after   13 cycles
 SCF Done:  E(UB3LYP) =  -653.240850166     A.U. after   13 cycles
 SCF Done:  E(UB3LYP) =  -653.241143160     A.U. after   13 cycles
 SCF Done:  E(UB3LYP) =  -653.241197675     A.U. after   12 cycles
 SCF Done:  E(UB3LYP) =  -653.241243606     A.U. after   11 cycles
 SCF Done:  E(UB3LYP) =  -653.241253801     A.U. after   11 cycles
 SCF Done:  E(UB3LYP) =  -653.241260196     A.U. after   11 cycles
 SCF Done:  E(UB3LYP) =  -653.241460156     A.U. after   12 cycles
 SCF Done:  E(UB3LYP) =  -653.241440785     A.U. after   12 cycles
 SCF Done:  E(UB3LYP) =  -653.241460098     A.U. after   12 cycles
 SCF Done:  E(UB3LYP) =  -653.241459301     A.U. after   12 cycles
 SCF Done:  E(UB3LYP) =  -653.241462997     A.U. after   11 cycles
 SCF Done:  E(UB3LYP) =  -653.241460705     A.U. after   11 cycles
 SCF Done:  E(UB3LYP) =  -653.241463184     A.U. after   11 cycles
 SCF Done:  E(UB3LYP) =  -653.241463206     A.U. after    9 cycles
 SCF Done:  E(UB3LYP) =  -653.241463218     A.U. after    8 cycles
 Optimization completed.
    -- Stationary point found.
 Normal termination of Gaussian 16 at Tue Dec 26 22:49:13 2023.

 ----------------------------------------------------------------------
 #P Geom=AllCheck Guess=TCheck SCRF=Check GenChk UB3LYP/6-311++G(d,p) F
 req
 ----------------------------------------------------------------------

 Structure from the checkpoint file:  "247.chk"
 --------
 Oxidized
 --------
 Charge =  0 Multiplicity = 1

                          Input orientation:
 ---------------------------------------------------------------------
 Center     Atomic      Atomic             Coordinates (Angstroms)
 Number     Number       Type             X           Y           Z
 ---------------------------------------------------------------------
      1          6           0       -3.185015    1.404514    0.246520
      2          6           0       -2.438804    0.714967   -0.911929
      3          6           0       -1.101221    0.155805   -0.491435
      4          6           0       -0.914917   -1.102664   -0.019690
      5          6           0       -2.005846   -2.122698    0.147666
      6          6           0        0.444366   -1.588748    0.374024
      7          8           0        0.593600   -2.734669    0.771068
      8          6           0        1.599419   -0.654799    0.272799
      9          6           0        2.876879   -1.082703    0.642369
     10          6           0        3.954363   -0.207715    0.550715
     11          6           0        3.761677    1.097408    0.089998
     12          6           0        2.491701    1.527968   -0.279963
     13          6           0        1.406015    0.653300   -0.189764
     14          6           0        0.046757    1.113423   -0.590564
     15          8           0       -0.132427    2.252866   -0.994206
     16          1           0       -4.137398    1.810794   -0.103959
     17          1           0       -2.595811    2.230663    0.650083
     18          1           0       -3.393505    0.704472    1.060060
     19          1           0       -3.059887   -0.077940   -1.332309
     20          1           0       -2.267457    1.448167   -1.701753
     21          1           0       -1.994454   -2.518908    1.166051
     22          1           0       -2.992848   -1.717052   -0.061309
     23          1           0       -1.827914   -2.979842   -0.508781
     24          1           0        3.003082   -2.098209    0.996898
     25          1           0        4.945687   -0.539650    0.837739
     26          1           0        4.603760    1.776601    0.020110
     27          1           0        2.320201    2.534649   -0.640440
 ---------------------------------------------------------------------

 SCF Done:  E(UB3LYP) =  -653.241463218     A.U. after    1 cycles

 Alpha  occ. eigenvalues --  -19.12867 -19.12821 -10.27759 -10.27675 -10.21476
 Alpha  occ. eigenvalues --  -10.21175 -10.20682 -10.20629 -10.20157 -10.20104
 Alpha  occ. eigenvalues --  -10.19860 -10.19860 -10.18281 -10.17901 -10.17031
 Alpha  occ. eigenvalues --   -1.06241  -1.06038  -0.89088  -0.85385  -0.79415
 Alpha  occ. eigenvalues --   -0.77859  -0.77206  -0.72211  -0.68210  -0.65827
 Alpha  occ. eigenvalues --   -0.62943  -0.60443  -0.58324  -0.55126  -0.52139
 Alpha  occ. eigenvalues --   -0.49841  -0.48157  -0.46479  -0.45743  -0.45454
 Alpha  occ. eigenvalues --   -0.45127  -0.43984  -0.43554  -0.42607  -0.41251
 Alpha  occ. eigenvalues --   -0.40878  -0.40200  -0.39135  -0.38414  -0.37533
 Alpha  occ. eigenvalues --   -0.37174  -0.36303  -0.35241  -0.29045  -0.28343
 Alpha  occ. eigenvalues --   -0.27889  -0.27427  -0.26818
 Alpha virt. eigenvalues --   -0.12034  -0.05656  -0.03189  -0.01146  -0.00570
 Alpha virt. eigenvalues --    0.00934   0.01349   0.01649   0.01817   0.02642
 Alpha virt. eigenvalues --    0.03819   0.04149   0.04283   0.04394   0.04976

  Beta  occ. eigenvalues --  -19.12867 -19.12821 -10.27759 -10.27675 -10.21476
  Beta  occ. eigenvalues --  -10.21175 -10.20682 -10.20629 -10.20157 -10.20104
  Beta  occ. eigenvalues --  -10.19860 -10.19860 -10.18281 -10.17901 -10.17031
  Beta  occ. eigenvalues --   -1.06241  -1.06038  -0.89088  -0.85385  -0.79415
  Beta  occ. eigenvalues --   -0.77859  -0.77206  -0.72211  -0.68210  -0.65827
  Beta  occ. eigenvalues --   -0.62943  -0.60443  -0.58324  -0.55126  -0.52139
  Beta  occ. eigenvalues --   -0.49841  -0.48157  -0.46479  -0.45743  -0.45454
  Beta  occ. eigenvalues --   -0.45127  -0.43984  -0.43554  -0.42607  -0.41251
  Beta  occ. eigenvalues --   -0.40878  -0.40200  -0.39135  -0.38414  -0.37533
  Beta  occ. eigenvalues --   -0.37174  -0.36303  -0.35241  -0.29045  -0.28343
  Beta  occ. eigenvalues --   -0.27889  -0.27427  -0.26818
  Beta virt. eigenvalues --   -0.12034  -0.05656  -0.03189  -0.01146  -0.00570
  Beta virt. eigenvalues --    0.00934   0.01349   0.01649   0.01817   0.02642
  Beta virt. eigenvalues --    0.03819   0.04149   0.04283   0.04394   0.04976

 Mulliken charges and spin densities:
               1          2
     1  C   -0.649590   0.000000
     2  C   -0.314517  -0.000000
     3  C    0.798458   0.000000
     4  C    0.783231   0.000000
     5  C   -0.359330   0.000000
     6  C   -0.951871  -0.000000
     7  O   -0.207606   0.000000
     8  C    0.718727   0.000000
     9  C    0.035827   0.000000
    10  C   -0.398115   0.000000
    11  C   -0.362949  -0.000000
    12  C   -0.022411   0.000000
    13  C    0.664535   0.000000
    14  C   -1.585058  -0.000000
    15  O   -0.203978   0.000000
    16  H    0.140808  -0.000000
    17  H    0.174655   0.000000
    18  H    0.139294   0.000000
    19  H    0.158786   0.000000
    20  H    0.204588   0.000000
    21  H    0.189627   0.000000
    22  H    0.131001   0.000000
    23  H    0.194006  -0.000000
    24  H    0.184712   0.000000
    25  H    0.176423   0.000000
    26  H    0.177929   0.000000
    27  H    0.182817  -0.000000
 Sum of Mulliken charges =  -0.00000   0.00000

 Dipole moment (field-independent basis, Debye):
    X=              0.3243    Y=              0.1633    Z=              0.1149  Tot=              0.3808
 Quadrupole moment (field-independent basis, Debye-Ang):
   XX=            -71.6754   YY=            -99.0928   ZZ=            -90.8267
   XY=              4.5757   XZ=              1.5442   YZ=              3.9410

  Exact polarizability: 199.412   1.686 177.926  13.641 -25.416  99.766
 Approx polarizability: 272.608  -5.449 338.568  24.066 -64.255 166.323

                      1                      2                      3
                      A                      A                      A
 Frequencies --     43.4600                51.0876                77.7663
 Red. masses --      4.4758                 1.7491                 1.4810
 Frc consts  --      0.0050                 0.0027                 0.0053
 IR Inten    --      5.1254                 1.0970                 0.0676

                      4                      5                      6
                      A                      A                      A
 Frequencies --     82.3993               116.8470               153.4912
 Red. masses --      3.4314                 4.9778                 4.5939
 Frc consts  --      0.0137                 0.0400                 0.0638
 IR Inten    --      1.5207                 0.0107                 0.7252

                      7                      8                      9
                      A                      A                      A
 Frequencies --    200.9082               211.7130               254.9443
 Red. masses --      4.0177                 1.1341                 3.3146
 Frc consts  --      0.0955                 0.0300                 0.1269
 IR Inten    --      0.0694                 0.1606                 0.7348

                     10                     11                     12
                      A                      A                      A
 Frequencies --    323.6502               341.9477               365.4427
 Red. masses --      3.9996                 3.8307                 2.6626
 Frc consts  --      0.2468                 0.2639                 0.2095
 IR Inten    --      0.1145                 0.5907                 0.7286

                     13                     14                     15
                      A                      A                      A
 Frequencies --    391.3505               412.9873               423.2360
 Red. masses --      6.1621                 5.7895                 7.0495
 Frc consts  --      0.5560                 0.5818                 0.7440
 IR Inten    --      4.6140                 2.2872                20.6075

                     16                     17                     18
                      A                      A                      A
 Frequencies --    427.8841               461.6922               506.1819
 Red. masses --      3.3884                 4.7237                 7.8601
 Frc consts  --      0.3655                 0.5933                 1.1866
 IR Inten    --      0.4526                 2.0708                 0.1537

                     19                     20                     21
                      A                      A                      A
 Frequencies --    560.3857               623.5250               670.4639
 Red. masses --      4.5686                 4.9625                 6.0997
 Frc consts  --      0.8453                 1.1367                 1.6155
 IR Inten    --      1.6340                 2.8683                 3.4923

                     22                     23                     24
                      A                      A                      A
 Frequencies --    680.5714               704.2156               731.9676
 Red. masses --      3.2854                 4.1969                 2.5389
 Frc consts  --      0.8966                 1.2263                 0.8015
 IR Inten    --      1.7570                 7.0556                56.4098

                     25                     26                     27
                      A                      A                      A
 Frequencies --    777.2535               797.9899               810.1365
 Red. masses --      1.7525                 2.5349                 2.8787
 Frc consts  --      0.6238                 0.9510                 1.1132
 IR Inten    --      2.5067                12.7196                 6.1184

                     28                     29                     30
                      A                      A                      A
 Frequencies --    833.4458               881.2300               914.3966
 Red. masses --      2.1968                 2.9548                 1.3647
 Frc consts  --      0.8991                 1.3519                 0.6723
 IR Inten    --      1.9063                32.0040                 0.0025

                     31                     32                     33
                      A                      A                      A
 Frequencies --    957.2186               992.4924               999.9177
 Red. masses --      3.5911                 2.9457                 1.3758
 Frc consts  --      1.9386                 1.7096                 0.8105
 IR Inten    --     13.9450                 6.5463                 1.5974

                     34                     35                     36
                      A                      A                      A
 Frequencies --   1016.7406              1040.1946              1043.4428
 Red. masses --      1.3229                 1.6027                 2.2617
 Frc consts  --      0.8058                 1.0217                 1.4508
 IR Inten    --      0.0028                 9.9274                15.0506

                     37                     38                     39
                      A                      A                      A
 Frequencies --   1064.0655              1078.3687              1108.6834
 Red. masses --      1.7418                 1.8276                 2.2372
 Frc consts  --      1.1619                 1.2522                 1.6202
 IR Inten    --     18.2568                 4.7470                 1.0639

                     40                     41                     42
                      A                      A                      A
 Frequencies --   1138.2968              1160.9729              1184.4657
 Red. masses --      1.9284                 2.5669                 1.1974
 Frc consts  --      1.4722                 2.0384                 0.9898
 IR Inten    --     10.8412                 2.1703                 2.7390

                     43                     44                     45
                      A                      A                      A
 Frequencies --   1210.3432              1278.3410              1292.0859
 Red. masses --      2.3624                 1.8244                 1.7036
 Frc consts  --      2.0390                 1.7565                 1.6757
 IR Inten    --      9.5865                32.6476               134.4389

                     46                     47                     48
                      A                      A                      A
 Frequencies --   1307.4692              1337.3003              1359.2414
 Red. masses --      2.6913                 2.0603                 1.8206
 Frc consts  --      2.7107                 2.1709                 1.9818
 IR Inten    --    215.4469                14.4086                13.2010

                     49                     50                     51
                      A                      A                      A
 Frequencies --   1361.1585              1407.8591              1415.4550
 Red. masses --      5.8752                 1.2210                 1.2909
 Frc consts  --      6.4134                 1.4259                 1.5239
 IR Inten    --     11.7234                 4.9378                24.4224

                     52                     53                     54
                      A                      A                      A
 Frequencies --   1469.8761              1474.1755              1483.1788
 Red. masses --      1.0873                 1.0571                 2.3422
 Frc consts  --      1.3841                 1.3535                 3.0357
 IR Inten    --      4.8949                 6.2251                 0.3401

                     55                     56                     57
                      A                      A                      A
 Frequencies --   1495.8460              1501.3382              1508.1088
 Red. masses --      1.0480                 1.0686                 1.7356
 Frc consts  --      1.3816                 1.4191                 2.3258
 IR Inten    --      5.9378                 4.8915                 2.8490

                     58                     59                     60
                      A                      A                      A
 Frequencies --   1510.5245              1616.4615              1628.7607
 Red. masses --      1.3554                 6.8349                 5.8851
 Frc consts  --      1.8221                10.5224                 9.1985
 IR Inten    --     11.7152                 2.6674                68.4176

                     61                     62                     63
                      A                      A                      A
 Frequencies --   1661.0684              1708.2959              1713.2412
 Red. masses --      7.8571                11.9207                12.1317
 Frc consts  --     12.7728                20.4964                20.9802
 IR Inten    --     51.7615                21.4451               377.2579

                     64                     65                     66
                      A                      A                      A
 Frequencies --   3029.0873              3041.0089              3061.4971
 Red. masses --      1.0346                 1.0413                 1.0614
 Frc consts  --      5.5932                 5.6736                 5.8615
 IR Inten    --     33.3463                 6.5528                16.2825

                     67                     68                     69
                      A                      A                      A
 Frequencies --   3086.1879              3087.3180              3098.5732
 Red. masses --      1.0966                 1.1017                 1.0998
 Frc consts  --      6.1537                 6.1870                 6.2216
 IR Inten    --      6.5478                11.3319                27.6646

                     70                     71                     72
                      A                      A                      A
 Frequencies --   3111.6991              3149.0017              3169.7502
 Red. masses --      1.1041                 1.0983                 1.0869
 Frc consts  --      6.2985                 6.4168                 6.4344
 IR Inten    --     19.5956                15.7369                 3.3831

                     73                     74                     75
                      A                      A                      A
 Frequencies --   3184.1595              3199.8031              3202.4024
 Red. masses --      1.0918                 1.0926                 1.0949
 Frc consts  --      6.5219                 6.5908                 6.6158
 IR Inten    --     10.0290                 0.6077                10.0191

 - Thermochemistry -
 -------------------
 Temperature   298.150 Kelvin.  Pressure   1.00000 Atm.
 Atom     1 has atomic number  6 and mass  12.00000

 Molecular mass:   200.08373 amu.
 Principal axes and moments of inertia in atomic units:
                           1         2         3
     Eigenvalues --  1830.066863527.254485169.35155
           X            0.99471   0.04840  -0.09059
           Y           -0.02330   0.96535   0.25993
           Z            0.10003  -0.25645   0.96137
 This molecule is an asymmetric top.
 Rotational symmetry number  1.
 Warning -- assumption of classical behavior for rotation
           may cause significant error
 Rotational temperatures (Kelvin)      0.04733     0.02456     0.01676
 Rotational constants (GHZ):           0.98616     0.51166     0.34912
 Zero-point vibrational energy     566898.6 (Joules/Mol)
                                  135.49202 (Kcal/Mol)
 Warning -- explicit consideration of  19 degrees of freedom as
           vibrations may cause significant error
 Vibrational temperatures:     62.53    73.50   111.89   118.55   168.12
          (Kelvin)            220.84   289.06   304.61   366.81   465.66
                              491.99   525.79   563.07   594.20   608.94
                              615.63   664.27   728.28   806.27   897.11
                              964.65   979.19  1013.21  1053.14  1118.29
                             1148.13  1165.61  1199.14  1267.89  1315.61
                             1377.22  1427.98  1438.66  1462.86  1496.61
                             1501.28  1530.95  1551.53  1595.15  1637.76
                             1670.38  1704.18  1741.41  1839.25  1859.02
                             1881.16  1924.08  1955.65  1958.40  2025.60
                             2036.52  2114.82  2121.01  2133.96  2152.19
                             2160.09  2169.83  2173.31  2325.73  2343.42
                             2389.91  2457.86  2464.97  4358.18  4375.33
                             4404.81  4440.34  4441.96  4458.16  4477.04
                             4530.71  4560.56  4581.30  4603.80  4607.54

 Zero-point correction=                           0.215920 (Hartree/Particle)
 Thermal correction to Energy=                    0.229368
 Thermal correction to Enthalpy=                  0.230312
 Thermal correction to Gibbs Free Energy=         0.175146
 Sum of electronic and zero-point Energies=           -653.025543
 Sum of electronic and thermal Energies=              -653.012095
 Sum of electronic and thermal Enthalpies=            -653.011151
 Sum of electronic and thermal Free Energies=         -653.066318

                     E (Thermal)             CV                S
                      KCal/Mol        Cal/Mol-Kelvin    Cal/Mol-Kelvin
 Total                  143.931             50.990            116.108
 Electronic               0.000              0.000              0.000
 Translational            0.889              2.981             41.785
 Rotational               0.889              2.981             31.879
 Vibrational            142.153             45.028             42.444
 Vibration     1          0.595              1.980              5.095
 Vibration     2          0.595              1.977              4.775
 Vibration     3          0.599              1.964              3.946
 Vibration     4          0.600              1.961              3.833
 Vibration     5          0.608              1.935              3.152
 Vibration     6          0.619              1.899              2.628
 Vibration     7          0.638              1.839              2.125
 Vibration     8          0.643              1.823              2.029
 Vibration     9          0.665              1.754              1.696
 Vibration    10          0.708              1.628              1.292
 Vibration    11          0.721              1.592              1.203
 Vibration    12          0.739              1.543              1.099
 Vibration    13          0.759              1.489              0.995
 Vibration    14          0.777              1.442              0.916
 Vibration    15          0.785              1.420              0.881
 Vibration    16          0.789              1.410              0.866
 Vibration    17          0.819              1.335              0.761
 Vibration    18          0.861              1.236              0.643
 Vibration    19          0.916              1.117              0.523

 Optimization completed.
    -- Stationary point found.
 Normal termination of Gaussian 16 at Tue Dec 26 23:39:12 2023.
