 Q-Chem 5.4, Q-Chem, Inc., Pleasanton, CA (2021)
 Q-Chem 5.4.0 for Intel X86 EM64T Linux

User input:
--------------------------------------------------------------
$molecule
0 1
C                 17.2276580000      1.4626860000      0.1105210000
C                 16.5444550000      0.2724940000      0.7159110000
C                 16.0720350000      0.3317980000      1.9776640000
C                 16.1515450000      1.6036200000      2.7531060000
C                 16.7931470000      2.8139320000      2.1253200000
C                 17.2880360000      2.7402330000      0.8605810000
O                 17.7524020000      1.3752830000     -0.9918370000
O                 15.6911480000      1.6796160000      3.8765710000
C                 17.5146620000      4.3166420000     -0.9355160000
C                 17.1186290000      5.1846570000      2.5642500000
C                 16.4697340000     -0.9593310000     -0.1433740000
H                 18.1751230000      5.1530700000     -1.1604660000
H                 16.4873890000      4.6819420000     -0.8248180000
H                 17.5693210000      3.5740980000     -1.7297480000
H                 16.9160770000      5.7936650000      3.4437400000
H                 16.4733390000      5.5004890000      1.7412640000
H                 18.1626590000      5.2732750000      2.2697050000
C                 15.4063250000     -0.8308170000      2.6833400000
C                 13.9071150000     -0.8314280000      2.4796210000
C                 13.1261150000     -1.8337540000      2.0538260000
C                 11.6298190000     -1.6231270000      1.9320890000
C                 11.1170050000     -1.5628470000      0.4708600000
C                  9.6211090000     -1.4266290000      0.3987890000
C                  8.8914740000     -0.4075360000     -0.0770870000
C                  7.3778960000     -0.4736400000     -0.0380060000
C                  6.7230660000      0.5205740000      0.9533090000
C                  5.2212330000      0.4549990000      0.9159350000
C                  4.3700220000      0.1130170000      1.8935980000
C                  2.8765580000      0.1177600000      1.6372560000
C                 13.6160590000     -3.2160170000      1.6983150000
C                  9.4702750000      0.8470630000     -0.6846730000
C                  4.7885970000     -0.2933320000      3.2859470000
C                  2.1052860000      1.2243390000      2.4002610000
C                  0.6228650000      1.1555370000      2.1576840000
C                 -0.1703640000      2.0411700000      1.5381210000
C                 -1.6521700000      1.7599900000      1.3885920000
C                 -2.0982100000      1.4593160000     -0.0648660000
C                 -3.5835470000      1.2509690000     -0.1727230000
C                 -4.2553200000      0.1404450000     -0.5087270000
C                 -5.7706440000      0.1483760000     -0.5375910000
C                 -6.4317860000     -0.6848900000      0.5895920000
C                 -7.9317240000     -0.6968510000      0.4831930000
C                 -8.8390470000     -0.1800210000      1.3241120000
C                -10.3173730000     -0.2909320000      1.0088000000
C                -10.9890040000      1.0541160000      0.6322010000
C                -12.4653360000      0.9045480000      0.3884700000
C                -13.1504340000      1.0684100000     -0.7522310000
C                  0.3012840000      3.3543730000      0.9625780000
C                 -3.6067050000     -1.1687490000     -0.8875420000
C                 -8.5029930000      0.5226600000      2.6169590000
C                -12.5347260000      1.4830740000     -2.0664450000
C                -14.6494310000      0.8458110000     -0.7776180000
C                -15.0896910000     -0.4203560000     -1.5546530000
C                -16.5855020000     -0.5641330000     -1.6109770000
C                -17.3571170000     -1.5274140000     -1.0874470000
C                -16.8340090000     -2.7048980000     -0.3005560000
C                -18.8609830000     -1.4786470000     -1.2661930000
C                -19.4301760000     -2.6031720000     -2.1667330000
C                -20.9284610000     -2.5408330000     -2.2778900000
C                -21.6828040000     -2.3446500000     -3.3685210000
C                -21.1332600000     -2.1373940000     -4.7594170000
C                -23.1936630000     -2.3213760000     -3.2568050000
H                 15.6108690000     -0.7326980000      3.7538320000
H                 15.8547850000     -1.7652300000      2.3469910000
H                 13.4249540000      0.1076830000      2.7421600000
H                 11.3469210000     -0.6956330000      2.4374610000
H                 11.1057910000     -2.4357260000      2.4525800000
H                 11.4095130000     -2.4826930000     -0.0502360000
H                 11.6220550000     -0.7422730000     -0.0433450000
H                  9.0741320000     -2.2785350000      0.8035230000
H                  7.0617710000     -1.4866260000      0.2269840000
H                  6.9802110000     -0.2747680000     -1.0425250000
H                  7.0335620000      1.5406010000      0.6954490000
H                  7.1108920000      0.3266480000      1.9558630000
H                  4.7859060000      0.7134000000     -0.0498400000
H                  2.4566140000     -0.8567710000      1.9213080000
H                  2.6881420000      0.2388700000      0.5666320000
H                 14.6973070000     -3.3251050000      1.7795450000
H                 13.3290310000     -3.4910490000      0.6780560000
H                 13.1577230000     -3.9593240000      2.3611080000
H                 10.5584490000      0.8333190000     -0.7374580000
H                  9.1787030000      1.7349760000     -0.1137440000
H                  9.0860560000      0.9896580000     -1.7015760000
H                  5.8678080000     -0.3995280000      3.3919570000
H                  4.3283040000     -1.2504310000      3.5570960000
H                  4.4542900000      0.4362290000      4.0316430000
H                  2.5160970000      2.1961850000      2.1175320000
H                  2.2886930000      1.1112100000      3.4756200000
H                  0.1491700000      0.2486710000      2.5347350000
H                 -2.2243780000      2.6225520000      1.7562380000
H                 -1.9300780000      0.9102390000      2.0186900000
H                 -1.5413510000      0.5933880000     -0.4296320000
H                 -1.8163740000      2.3022920000     -0.7074080000
H                 -4.1780030000      2.1319820000      0.0710190000
H                 -6.1175930000     -0.2389960000     -1.5051590000
H                 -6.1337980000      1.1775900000     -0.4655780000
H                 -6.0984120000     -0.2954140000      1.5540390000
H                 -6.0691630000     -1.7182750000      0.5304750000
H                 -8.3130890000     -1.1864620000     -0.4133650000
H                -10.8435420000     -0.7111380000      1.8766470000
H                -10.4651370000     -0.9941690000      0.1841860000
H                -10.4761090000      1.4695750000     -0.2380590000
H                -10.8408850000      1.7696540000      1.4500440000
H                -13.0371450000      0.6103960000      1.2690710000
H                  1.3652460000      3.5307420000      1.1172820000
H                 -0.2474720000      4.1880430000      1.4165440000
H                  0.1112570000      3.4062810000     -0.1147380000
H                 -2.5181870000     -1.1224890000     -0.8845490000
H                 -3.9276020000     -1.4767200000     -1.8897440000
H                 -3.9049030000     -1.9713350000     -0.2046420000
H                 -7.4332820000      0.5513490000      2.8217120000
H                 -8.9937490000      0.0230150000      3.4605830000
H                 -8.8661010000      1.5558720000      2.6127960000
H                -11.4610990000      1.6559270000     -1.9993550000
H                -13.0019690000      2.4053590000     -2.4315900000
H                -12.6991900000      0.7238260000     -2.8384080000
H                -15.1390190000      1.7189030000     -1.2299060000
H                -15.0273710000      0.7727120000      0.2461950000
H                -14.6167390000     -1.2942850000     -1.1011630000
H                -14.7071310000     -0.3619880000     -2.5810240000
H                -17.0932820000      0.2407110000     -2.1432000000
H                -15.7685310000     -2.6320180000     -0.0844400000
H                -16.9987130000     -3.6470520000     -0.8347860000
H                -17.3654880000     -2.7901150000      0.6542740000
H                -19.1486570000     -0.5130520000     -1.6919660000
H                -19.3454480000     -1.5440370000     -0.2822990000
H                -19.1525790000     -3.5759960000     -1.7425140000
H                -18.9502660000     -2.5482270000     -3.1465430000
H                -21.4530650000     -2.6636180000     -1.3298760000
H                -20.0498900000     -2.0220240000     -4.7761240000
H                -21.5738830000     -1.2420730000     -5.2128010000
H                -21.3856510000     -2.9772820000     -5.4162190000
H                -23.4788340000     -2.3117130000     -2.2000840000
C                -23.9013710000     -3.5113520000     -3.9523710000
H                -23.5798810000     -1.3911710000     -3.6935820000
C                -25.3870210000     -3.5035820000     -3.7199930000
C                -26.3754320000     -3.3712520000     -4.6147510000
C                -27.8205390000     -3.3806930000     -4.1779440000
C                -26.1784180000     -3.2083030000     -6.1011340000
H                -23.4795710000     -4.4398450000     -3.5461920000
H                -23.6704430000     -3.5087070000     -5.0193470000
H                -25.6779430000     -3.6095580000     -2.6747590000
H                -27.9172040000     -3.5017230000     -3.0971500000
H                -28.3721540000     -4.1948520000     -4.6632980000
H                -28.3235110000     -2.4491190000     -4.4639190000
H                -25.1304740000     -3.1847780000     -6.3986820000
H                -26.6487980000     -2.2815600000     -6.4502550000
H                -26.6646120000     -4.0269520000     -6.6450010000
O                 17.9866400000      3.7763830000      0.3116040000
O                 16.8016820000      3.8460360000      2.9732950000
H                 17.1985820000     -1.7079350000      0.1869990000
H                 16.7012520000     -0.7140660000     -1.1784500000
H                 15.4792950000     -1.4144670000     -0.0890400000
$end
$rem
MAX_SCF_CYCLES=200
BASIS  =  6-311++G(d,p)
GUI  =  2
JOB_TYPE  =  SP
SCF_CONVERGENCE  = 6
THRESH = 14
METHOD  =  B3LYP
SOLVENT_METHOD = COSMO
$end
$solvent
dielectric 37.219
opticaldielectric 1.43
$end

--------------------------------------------------------------

             Standard Nuclear Orientation (Angstroms)
    I     Atom           X                Y                Z
 ----------------------------------------------------------------
    1      C     -18.7577791577    -1.0162806277     1.6798678287
    2      C     -18.0487541365    -1.6745470375     0.5336613721
    3      C     -17.7256456433    -0.9598122962    -0.5633679826
    4      C     -17.9966181017     0.5061781475    -0.6144491041
    5      C     -18.6636456763     1.1764998114     0.5587374144
    6      C     -19.0074714795     0.4449766717     1.6526154315
    7      O     -19.1480145168    -1.6858635850     2.6272662337
    8      O     -17.6714916715     1.1677765351    -1.5821757048
    9      C     -19.1647155000     0.9275181056     3.9988501161
   10      C     -19.2327990644     3.4054376562     1.3504669185
   11      C     -17.7765796890    -3.1464709793     0.6775632456
   12      H     -19.8637901020     1.4631130956     4.6398304136
   13      H     -18.1901873450     1.4282337102     4.0226558295
   14      H     -19.0687801405    -0.1044873290     4.3319039523
   15      H     -19.1805541601     4.3809126440     0.8696969786
   16      H     -18.5289846221     3.3682947155     2.1851648431
   17      H     -20.2415028296     3.2091898723     1.7090921675
   18      C     -17.0473598410    -1.5483823634    -1.7825216668
   19      C     -15.5400392425    -1.4561375054    -1.6897427475
   20      C     -14.6356310568    -2.4317546498    -1.8514115859
   21      C     -13.1579382408    -2.1170982283    -1.7269100677
   22      C     -12.4932464074    -2.6982984161    -0.4532565921
   23      C     -11.0152312298    -2.4246143857    -0.4082832455
   24      C     -10.3251355415    -1.6739036565     0.4621057969
   25      C      -8.8250089797    -1.5206681867     0.3105979921
   26      C      -8.3694551880    -0.0995779214    -0.1052654910
   27      C      -6.8725342208     0.0160728938    -0.1892402683
   28      C      -6.1092801741     0.2942770921    -1.2557216234
   29      C      -4.6022677988     0.3652861357    -1.1141594369
   30      C     -14.9658899774    -3.8651875626    -2.1879874692
   31      C     -10.9359101678    -0.9474683392     1.6357480258
   32      C      -6.6440825334     0.5537349485    -2.6433917338
   33      C      -4.0154997410     1.7896430473    -1.2828747174
   34      C      -2.5147999898     1.8019155850    -1.1885403166
   35      C      -1.7346501924     2.3760056621    -0.2616081481
   36      C      -0.2271126611     2.2481132431    -0.3518536843
   37      C       0.4007666400     1.3484578023     0.7428080738
   38      C       1.9010955071     1.3042356261     0.6515650023
   39      C       2.6964318744     0.2636601029     0.3650622108
   40      C       4.1996253291     0.4489741458     0.3087505828
   41      C       4.7991573358     0.3475875988    -1.1168246090
   42      C       6.2973662966     0.4765911333    -1.1144133423
   43      C       7.0595407068     1.4429154922    -1.6462031897
   44      C       8.5677632939     1.3832962755    -1.5087955985
   45      C       9.1621678904     2.4573983641    -0.5627210728
   46      C      10.6637175373     2.3981541002    -0.5064153344
   47      C      11.4548571986     2.0820804629     0.5287678804
   48      C      -2.2477580318     3.1822858353     0.9066539489
   49      C       2.2055106135    -1.1375393009     0.0933496818
   50      C       6.5247678341     2.6291107407    -2.4111247878
   51      C      10.9560350297     1.7360060685     1.9106542612
   52      C      12.9607690207     2.0666352674     0.3579526278
   53      C      13.5887038886     0.6505596873     0.3928651453
   54      C      15.0882982559     0.6884219470     0.2876133066
   55      C      15.8749783843     0.1994373321    -0.6816194188
   56      C      15.3681972268    -0.5140286314    -1.9118418268
   57      C      17.3800152697     0.3471266183    -0.5867872145
   58      C      18.1374762494    -0.9885443823    -0.3824705953
   59      C      19.6283637581    -0.7974522825    -0.3395961679
   60      C      20.4798292660    -1.0527129333     0.6638207934
   61      C      20.0723654067    -1.6073128807     2.0076725122
   62      C      21.9617442772    -0.7874170333     0.4927563414
   63      H     -17.3767201380    -0.9772335520    -2.6558655500
   64      H     -17.3760998081    -2.5781707973    -1.9197823364
   65      H     -15.1701402477    -0.4532809700    -1.4877800534
   66      H     -13.0113045281    -1.0335118882    -1.7309664896
   67      H     -12.6287094910    -2.5079870104    -2.6060893731
   68      H     -12.6482945343    -3.7839749586    -0.4312302823
   69      H     -13.0050439289    -2.2950658218     0.4232653676
   70      H     -10.4471654896    -2.9020987593    -1.2070618568
   71      H      -8.4566132682    -2.2342431984    -0.4319588437
   72      H      -8.3365143731    -1.7776628933     1.2603814375
   73      H      -8.7336548988     0.6242393614     0.6341949463
   74      H      -8.8483820101     0.1620264184    -1.0514806310
   75      H      -6.3560307986    -0.1658867838     0.7536896946
   76      H      -4.1363844743    -0.2925846234    -1.8604221012
   77      H      -4.3071925685    -0.0174426584    -0.1329085775
   78      H     -16.0365528436    -4.0583153035    -2.2510623836
   79      H     -14.5456188343    -4.5556085372    -1.4493081444
   80      H     -14.5232750847    -4.1361515735    -3.1536697708
   81      H     -12.0065561938    -1.1226874678     1.7363121941
   82      H     -10.7846400311     0.1341629897     1.5547871463
   83      H     -10.4546744773    -1.2610018381     2.5696421530
   84      H      -7.7157151064     0.3752267722    -2.7267617075
   85      H      -6.1382685950    -0.0900367040    -3.3721854227
   86      H      -6.4566139129     1.5867249655    -2.9562336884
   87      H      -4.4722605517     2.4469713975    -0.5395880871
   88      H      -4.3068062284     2.1822073127    -2.2646420550
   89      H      -2.0116454957     1.2541345031    -1.9858682247
   90      H       0.2267173080     3.2461182656    -0.2838601935
   91      H       0.0493412988     1.8461204657    -1.3307858183
   92      H      -0.0379005310     0.3508514644     0.6697999283
   93      H       0.1223676837     1.7381145409     1.7295004963
   94      H       2.3891421755     2.2618576115     0.8352565568
   95      H       4.6827920038    -0.3062864049     0.9433764368
   96      H       4.4652435210     1.4239477864     0.7273452960
   97      H       4.3296041426     1.1049065154    -1.7484698034
   98      H       4.5329850390    -0.6247778318    -1.5487188043
   99      H       6.8152964382    -0.3292070598    -0.5934410951
  100      H       9.0278264921     1.4997798199    -2.4994311278
  101      H       8.8642423445     0.3966035840    -1.1415049344
  102      H       8.7159144028     2.3373193984     0.4269550339
  103      H       8.8650590149     3.4514993198    -0.9180950256
  104      H      11.1570278540     2.6360769324    -1.4492762521
  105      H      -3.3333064137     3.2745669784     0.9177620763
  106      H      -1.8243005388     4.1934774375     0.8866729367
  107      H      -1.9445606684     2.7364192987     1.8599056761
  108      H       1.1233282290    -1.2339849153     0.1745895251
  109      H       2.6600762904    -1.8436573937     0.7983299331
  110      H       2.4922655670    -1.4707221854    -0.9097353130
  111      H       5.4403276837     2.6162452335    -2.5153001786
  112      H       6.9590854523     2.6604812480    -3.4173912181
  113      H       6.7984452890     3.5711320236    -1.9242076076
  114      H       9.8709153241     1.7821156327     1.9969287973
  115      H      11.3821041907     2.4222398403     2.6521424902
  116      H      11.2679021683     0.7279267921     2.2038229268
  117      H      13.4227335345     2.6712859124     1.1501248760
  118      H      13.2277407728     2.5405519215    -0.5909963987
  119      H      13.1431511854     0.0478666230    -0.4016992198
  120      H      13.3186717602     0.1620314358     1.3371210448
  121      H      15.5828398043     1.1978484791     1.1151330827
  122      H      14.2829958611    -0.4825185096    -2.0046108754
  123      H      15.6692562495    -1.5673741548    -1.9149935844
  124      H      15.7958773083    -0.0641488830    -2.8152410483
  125      H      17.6313491117     1.0192345155     0.2387519767
  126      H      17.7562589744     0.8221699596    -1.5031954696
  127      H      17.8968983928    -1.6663996160    -1.2107477026
  128      H      17.7661642344    -1.4701348886     0.5250304620
  129      H      20.0531312009    -0.3843533416    -1.2549856706
  130      H      18.9916859693    -1.6524618117     2.1394808776
  131      H      20.4841018502    -0.9900786293     2.8143944919
  132      H      20.4652922300    -2.6192610293     2.1562369517
  133      H      22.1262801804    -0.2376070403    -0.4392908961
  134      C      22.8391437278    -2.0643979368     0.4787731324
  135      H      22.3148461241    -0.1388268319     1.3050799651
  136      C      24.2840224842    -1.7580834690     0.1964388332
  137      C      25.3509293576    -1.9454954968     0.9848840550
  138      C      26.7344489539    -1.5615406131     0.5183265524
  139      C      25.3068662554    -2.5395370391     2.3704793800
  140      H      22.4540508731    -2.7306433662    -0.3040527692
  141      H      22.7284329904    -2.6015334860     1.4227016552
  142      H      24.4651938438    -1.3135364050    -0.7823029528
  143      H      26.7205623785    -1.1377167652    -0.4877989679
  144      H      27.4025593097    -2.4311984935     0.5132065643
  145      H      27.1863540217    -0.8248489874     1.1933524105
  146      H      24.3000608962    -2.7942885672     2.7002057705
  147      H      25.7338941662    -1.8413695788     3.1000030368
  148      H      25.9170464016    -3.4493720257     2.4178353812
  149      O     -19.7251200154     0.9943856716     2.6754352825
  150      O     -18.8523248166     2.4778372021     0.3235900326
  151      H     -18.4723898070    -3.7315711288     0.0657791580
  152      H     -17.9116920024    -3.4575715991     1.7120190916
  153      H     -16.7636955345    -3.3904064620     0.3525531771
 ----------------------------------------------------------------

   10   -2603.9144055861      7.05e-07  Convergence criterion met
 Total energy in the final basis set =    -2603.9144055861
    6   -2603.9465524955      4.48e-07  Convergence criterion met
 Total energy in the final basis set =    -2603.9465524955

                    Orbital Energies (a.u.)
 --------------------------------------------------------------

 Alpha MOs
 -- Occupied --
-19.1800 -19.1598 -19.1414 -19.1352 -10.2882 -10.2835 -10.2673 -10.2516
-10.2239 -10.2171 -10.2127 -10.2086 -10.1809 -10.1788 -10.1752 -10.1731
-10.1729 -10.1729 -10.1729 -10.1725 -10.1725 -10.1724 -10.1724 -10.1710
-10.1672 -10.1668 -10.1661 -10.1652 -10.1652 -10.1651 -10.1650 -10.1649
-10.1648 -10.1648 -10.1647 -10.1646 -10.1646 -10.1646 -10.1645 -10.1644
-10.1643 -10.1643 -10.1643 -10.1616 -10.1587 -10.1586 -10.1586 -10.1585
-10.1584 -10.1583 -10.1582 -10.1582 -10.1582 -10.1581 -10.1581 -10.1580
-10.1580 -10.1580 -10.1580 -10.1580 -10.1579 -10.1579 -10.1578  -1.1049
 -1.0820  -1.0689  -1.0561  -0.8649  -0.8305  -0.8298  -0.8282  -0.8259
 -0.8229  -0.8194  -0.8154  -0.8111  -0.8070  -0.8037  -0.8018  -0.7762
 -0.7718  -0.7656  -0.7586  -0.7514  -0.7446  -0.7425  -0.7362  -0.7293
 -0.7234  -0.7193  -0.7172  -0.6897  -0.6896  -0.6864  -0.6861  -0.6855
 -0.6845  -0.6830  -0.6807  -0.6771  -0.6723  -0.6674  -0.6662  -0.6539
 -0.6429  -0.6337  -0.6236  -0.6137  -0.6046  -0.5986  -0.5966  -0.5903
 -0.5864  -0.5829  -0.5807  -0.5566  -0.5336  -0.5230  -0.5224  -0.5207
 -0.5198  -0.5183  -0.5162  -0.5153  -0.5137  -0.5116  -0.5100  -0.5091
 -0.4961  -0.4798  -0.4777  -0.4774  -0.4766  -0.4764  -0.4752  -0.4749
 -0.4732  -0.4707  -0.4679  -0.4656  -0.4642  -0.4608  -0.4531  -0.4483
 -0.4475  -0.4449  -0.4429  -0.4425  -0.4393  -0.4360  -0.4349  -0.4329
 -0.4322  -0.4301  -0.4286  -0.4282  -0.4254  -0.4213  -0.4195  -0.4182
 -0.4149  -0.4134  -0.4126  -0.4110  -0.4101  -0.4089  -0.4071  -0.4065
 -0.4056  -0.4036  -0.4007  -0.4005  -0.4003  -0.3981  -0.3954  -0.3919
 -0.3895  -0.3880  -0.3878  -0.3819  -0.3791  -0.3720  -0.3716  -0.3713
 -0.3712  -0.3708  -0.3705  -0.3698  -0.3691  -0.3690  -0.3679  -0.3677
 -0.3668  -0.3665  -0.3648  -0.3641  -0.3625  -0.3616  -0.3594  -0.3591
 -0.3573  -0.3564  -0.3545  -0.3539  -0.3521  -0.3486  -0.3431  -0.3396
 -0.3354  -0.3353  -0.3336  -0.3324  -0.3313  -0.3295  -0.3279  -0.3260
 -0.3254  -0.3249  -0.3219  -0.3179  -0.3174  -0.3128  -0.3089  -0.3064
 -0.2898  -0.2858  -0.2760  -0.2520  -0.2510  -0.2481  -0.2454  -0.2438
 -0.2406  -0.2367  -0.2323  -0.2288  -0.2255  -0.2222

          Ground-State Mulliken Net Atomic Charges

     Atom                 Charge (a.u.)
  ----------------------------------------
      1 C                    -0.489976
      2 C                     0.692100
      3 C                     1.007686
      4 C                    -0.839280
      5 C                    -0.088569
      6 C                     0.073176
      7 O                    -0.316838
      8 O                    -0.275622
      9 C                    -0.310427
     10 C                    -0.318513
     11 C                    -0.655979
     12 H                     0.183261
     13 H                     0.151775
     14 H                     0.176022
     15 H                     0.206204
     16 H                     0.191812
     17 H                     0.204939
     18 C                     0.109312
     19 C                    -0.807104
     20 C                     0.727760
     21 C                    -0.549165
     22 C                    -0.178714
     23 C                    -0.385407
     24 C                     0.608038
     25 C                    -0.619463
     26 C                    -0.331699
     27 C                    -0.331187
     28 C                     0.578074
     29 C                    -0.396836
     30 C                    -0.746811
     31 C                    -0.763793
     32 C                    -0.724473
     33 C                    -0.384527
     34 C                    -0.316356
     35 C                     0.517800
     36 C                    -0.444945
     37 C                    -0.298467
     38 C                    -0.279495
     39 C                     0.474078
     40 C                    -0.449724
     41 C                    -0.290366
     42 C                    -0.353127
     43 C                     0.520247
     44 C                    -0.444748
     45 C                    -0.231927
     46 C                    -0.310249
     47 C                     0.560335
     48 C                    -0.713053
     49 C                    -0.740724
     50 C                    -0.729095
     51 C                    -0.740423
     52 C                    -0.603893
     53 C                    -0.322665
     54 C                    -0.341063
     55 C                     0.656392
     56 C                    -0.753068
     57 C                    -0.489503
     58 C                    -0.399014
     59 C                    -0.146093
     60 C                     0.668203
     61 C                    -0.759780
     62 C                    -0.756134
     63 H                     0.227548
     64 H                     0.212032
     65 H                     0.235711
     66 H                     0.168863
     67 H                     0.153458
     68 H                     0.141803
     69 H                     0.125908
     70 H                     0.206399
     71 H                     0.168723
     72 H                     0.146981
     73 H                     0.140818
     74 H                     0.152808
     75 H                     0.214290
     76 H                     0.159735
     77 H                     0.170117
     78 H                     0.121516
     79 H                     0.172564
     80 H                     0.179281
     81 H                     0.142891
     82 H                     0.176651
     83 H                     0.169804
     84 H                     0.137341
     85 H                     0.170253
     86 H                     0.178829
     87 H                     0.146407
     88 H                     0.138164
     89 H                     0.193227
     90 H                     0.144230
     91 H                     0.184306
     92 H                     0.152301
     93 H                     0.133734
     94 H                     0.201991
     95 H                     0.146066
     96 H                     0.178034
     97 H                     0.147543
     98 H                     0.134570
     99 H                     0.197058
    100 H                     0.142260
    101 H                     0.181645
    102 H                     0.151078
    103 H                     0.132155
    104 H                     0.210448
    105 H                     0.133914
    106 H                     0.169034
    107 H                     0.173723
    108 H                     0.135584
    109 H                     0.169836
    110 H                     0.174393
    111 H                     0.137237
    112 H                     0.169752
    113 H                     0.173837
    114 H                     0.137749
    115 H                     0.169009
    116 H                     0.173855
    117 H                     0.148400
    118 H                     0.169424
    119 H                     0.153885
    120 H                     0.141820
    121 H                     0.215165
    122 H                     0.134943
    123 H                     0.179394
    124 H                     0.170786
    125 H                     0.158256
    126 H                     0.163511
    127 H                     0.150549
    128 H                     0.145792
    129 H                     0.211479
    130 H                     0.128756
    131 H                     0.165597
    132 H                     0.180025
    133 H                     0.154483
    134 C                    -0.341849
    135 H                     0.184174
    136 C                    -0.041335
    137 C                     0.407265
    138 C                    -0.641494
    139 C                    -0.690377
    140 H                     0.177671
    141 H                     0.120707
    142 H                     0.177008
    143 H                     0.162887
    144 H                     0.152185
    145 H                     0.157663
    146 H                     0.141091
    147 H                     0.158115
    148 H                     0.154223
    149 O                    -0.228012
    150 O                    -0.209520
    151 H                     0.233123
    152 H                     0.186858
    153 H                     0.180964
  ----------------------------------------
  Sum of atomic charges =     0.000000

                    Cartesian Multipole Moments
 -----------------------------------------------------------------
    Charge (ESU x 10^10)
                 0.0000
    Dipole Moment (Debye)
         X       1.7084      Y      -0.6581      Z       2.7766
       Tot       3.3258
    Quadrupole Moments (Debye-Ang)
        XX    -435.0262     XY     -13.0957     YY    -387.7234
        XZ     -22.9292     YZ      19.7194     ZZ    -388.3339

 Total job time:  3263.57s(wall), 24233.15s(cpu)
        *  Thank you very much for using Q-Chem.  Have a nice day.  *
