 Gaussian 16, Revision A.03,
 Gaussian 16:  ES64L-G16RevA.03 25-Dec-2016

 ----------------------------------------------------------------------
 #P UB3LYP/6-311++G(d,p) nosym opt freq SCRF=(PCM,Solvent=n,n-DiMethylF
 ormamide)
 ----------------------------------------------------------------------

 -------
 Radical
 -------
 Symbolic Z-matrix:
 Charge = -1 Multiplicity = 2

 SCF Done:  E(UB3LYP) =  -918.188652873     A.U. after   18 cycles
 SCF Done:  E(UB3LYP) =  -918.189212659     A.U. after   13 cycles
 SCF Done:  E(UB3LYP) =  -918.189333861     A.U. after   13 cycles
 SCF Done:  E(UB3LYP) =  -918.189354445     A.U. after   11 cycles
 SCF Done:  E(UB3LYP) =  -918.189360602     A.U. after   10 cycles
 SCF Done:  E(UB3LYP) =  -918.189361055     A.U. after    9 cycles
 SCF Done:  E(UB3LYP) =  -918.189361356     A.U. after    9 cycles
 SCF Done:  E(UB3LYP) =  -918.189361497     A.U. after    9 cycles
 SCF Done:  E(UB3LYP) =  -918.189361553     A.U. after    8 cycles
 SCF Done:  E(UB3LYP) =  -918.189361571     A.U. after    7 cycles
 Optimization completed.
    -- Stationary point found.
 Normal termination of Gaussian 16 at Sat Feb 10 17:12:00 2024.

 ----------------------------------------------------------------------
 #P Geom=AllCheck Guess=TCheck SCRF=Check GenChk UB3LYP/6-311++G(d,p) F
 req
 ----------------------------------------------------------------------

 Structure from the checkpoint file:  "140-rad.chk"
 -------
 Radical
 -------
 Charge = -1 Multiplicity = 2

                          Input orientation:
 ---------------------------------------------------------------------
 Center     Atomic      Atomic             Coordinates (Angstroms)
 Number     Number       Type             X           Y           Z
 ---------------------------------------------------------------------
      1          6           0       -5.033669   -1.017942    0.051861
      2          8           0       -3.608929   -1.077108    0.055297
      3          6           0       -2.900204    0.084197    0.005005
      4          6           0       -3.535446    1.318202   -0.050568
      5          6           0       -2.782613    2.504421   -0.098303
      6          6           0       -1.408210    2.454795   -0.086213
      7          6           0       -0.727141    1.218021   -0.029236
      8          6           0        0.745647    1.276537   -0.015843
      9          8           0        1.314839    2.402161   -0.041966
     10          6           0        1.464011    0.006510    0.030732
     11          6           0        2.900205   -0.084191    0.038070
     12          8           0        3.608918    1.077097   -0.012722
     13          6           0        5.033658    1.017873   -0.010946
     14          6           0        3.535457   -1.318218    0.093016
     15          6           0        2.782626   -2.504425    0.141089
     16          6           0        1.408218   -2.454757    0.129903
     17          6           0        0.727145   -1.217960    0.073504
     18          6           0       -0.745650   -1.276451    0.060926
     19          8           0       -1.314844   -2.402038    0.088422
     20          6           0       -1.464010   -0.006459    0.013372
     21          1           0       -5.368284   -2.053057    0.098071
     22          1           0       -5.415447   -0.474241    0.921672
     23          1           0       -5.414525   -0.554470   -0.863591
     24          1           0       -4.614064    1.379668   -0.057569
     25          1           0       -3.298897    3.457454   -0.143380
     26          1           0       -0.814152    3.357659   -0.120991
     27          1           0        5.368262    2.052974   -0.057538
     28          1           0        5.414395    0.474150   -0.881198
     29          1           0        5.415566    0.554391    0.904063
     30          1           0        4.614078   -1.379711    0.099218
     31          1           0        3.298915   -3.457479    0.185641
     32          1           0        0.814144   -3.357601    0.164877
 ---------------------------------------------------------------------

 SCF Done:  E(UB3LYP) =  -918.189361571     A.U. after    1 cycles

 Alpha  occ. eigenvalues --  -19.15029 -19.15029 -19.06614 -19.06613 -10.23722
 Alpha  occ. eigenvalues --  -10.23722 -10.22224 -10.22222 -10.21763 -10.21763
 Alpha  occ. eigenvalues --  -10.17502 -10.17501 -10.17175 -10.17174 -10.17081
 Alpha  occ. eigenvalues --  -10.17081 -10.16566 -10.16566 -10.15858 -10.15858
 Alpha  occ. eigenvalues --   -1.06655  -1.06648  -0.99366  -0.99116  -0.85608
 Alpha  occ. eigenvalues --   -0.84581  -0.78288  -0.75702  -0.75475  -0.73994
 Alpha  occ. eigenvalues --   -0.69875  -0.69608  -0.66370  -0.62763  -0.61993
 Alpha  occ. eigenvalues --   -0.57727  -0.55662  -0.54114  -0.53358  -0.49691
 Alpha  occ. eigenvalues --   -0.48498  -0.48297  -0.46848  -0.46749  -0.46581
 Alpha  occ. eigenvalues --   -0.46389  -0.44869  -0.43162  -0.42301  -0.41713
 Alpha  occ. eigenvalues --   -0.40811  -0.40688  -0.39355  -0.38073  -0.38026
 Alpha  occ. eigenvalues --   -0.37200  -0.36160  -0.35613  -0.35267  -0.34434
 Alpha  occ. eigenvalues --   -0.33209  -0.33145  -0.31943  -0.31712  -0.26466
 Alpha  occ. eigenvalues --   -0.24885  -0.23277  -0.22900  -0.22675  -0.22429
 Alpha  occ. eigenvalues --   -0.13595
 Alpha virt. eigenvalues --   -0.04180  -0.02132  -0.00391   0.00064   0.00909
 Alpha virt. eigenvalues --    0.00929   0.01485   0.01856   0.03348   0.03355
 Alpha virt. eigenvalues --    0.03505   0.03754   0.03772   0.04416   0.05601

  Beta  occ. eigenvalues --  -19.15024 -19.15024 -19.06054 -19.06054 -10.23718
  Beta  occ. eigenvalues --  -10.23718 -10.22066 -10.22065 -10.21763 -10.21763
  Beta  occ. eigenvalues --  -10.17460 -10.17459 -10.17067 -10.17067 -10.17019
  Beta  occ. eigenvalues --  -10.17019 -10.16508 -10.16508 -10.15860 -10.15860
  Beta  occ. eigenvalues --   -1.06637  -1.06630  -0.98401  -0.98124  -0.85345
  Beta  occ. eigenvalues --   -0.84460  -0.77896  -0.75536  -0.75386  -0.73783
  Beta  occ. eigenvalues --   -0.69803  -0.69477  -0.65682  -0.62577  -0.61753
  Beta  occ. eigenvalues --   -0.57661  -0.55528  -0.53894  -0.53248  -0.49530
  Beta  occ. eigenvalues --   -0.48447  -0.48089  -0.46780  -0.46709  -0.46445
  Beta  occ. eigenvalues --   -0.46318  -0.44758  -0.43009  -0.42193  -0.40741
  Beta  occ. eigenvalues --   -0.40657  -0.40191  -0.39188  -0.37870  -0.37628
  Beta  occ. eigenvalues --   -0.36124  -0.35493  -0.35286  -0.34502  -0.34251
  Beta  occ. eigenvalues --   -0.33168  -0.33050  -0.31289  -0.31168  -0.24328
  Beta  occ. eigenvalues --   -0.24296  -0.22770  -0.22306  -0.22031  -0.21921
  Beta virt. eigenvalues --   -0.07840  -0.03148  -0.01036  -0.00381   0.00065
  Beta virt. eigenvalues --    0.00934   0.01138   0.01492   0.01867   0.03369
  Beta virt. eigenvalues --    0.03380   0.03516   0.03753   0.03793   0.04421

 Mulliken charges and spin densities:
               1          2
     1  C   -0.288531  -0.000472
     2  O   -0.148916   0.000269
     3  C    0.042583   0.022760
     4  C   -0.063748   0.046603
     5  C   -0.502809   0.052304
     6  C   -0.054444   0.027195
     7  C    0.385558   0.054530
     8  C   -0.384907   0.080651
     9  O   -0.474256   0.211512
    10  C   -0.048426   0.012349
    11  C    0.042768   0.022765
    12  O   -0.148937   0.000270
    13  C   -0.288525  -0.000472
    14  C   -0.063979   0.046599
    15  C   -0.502560   0.052303
    16  C   -0.054724   0.027204
    17  C    0.385544   0.054535
    18  C   -0.384742   0.080645
    19  O   -0.474265   0.211518
    20  C   -0.048578   0.012344
    21  H    0.194876  -0.000188
    22  H    0.158090   0.000449
    23  H    0.158613   0.000468
    24  H    0.181815  -0.003272
    25  H    0.190286  -0.003712
    26  H    0.154270  -0.001451
    27  H    0.194879  -0.000187
    28  H    0.158064   0.000448
    29  H    0.158643   0.000469
    30  H    0.181806  -0.003272
    31  H    0.190294  -0.003712
    32  H    0.154262  -0.001451
 Sum of Mulliken charges =  -1.00000   1.00000

 Dipole moment (field-independent basis, Debye):
    X=             -0.0000    Y=             -0.0005    Z=             -0.1141  Tot=              0.1141
 Quadrupole moment (field-independent basis, Debye-Ang):
   XX=            -93.3911   YY=           -147.5770   ZZ=           -123.1696
   XY=            -15.6913   XZ=              0.4844   YZ=              0.5177

  Exact polarizability: 503.686 -33.946 412.953   3.478  -9.886 160.562
 Approx polarizability: 504.415 -14.051 482.556   2.819 -11.457 182.902

                      1                      2                      3
                      A                      A                      A
 Frequencies --     21.4969                41.2660                51.7663
 Red. masses --      5.4212                 5.0430                 5.6332
 Frc consts  --      0.0015                 0.0051                 0.0089
 IR Inten    --     21.3932                 4.5827                 0.0247

                      4                      5                      6
                      A                      A                      A
 Frequencies --    104.6548               110.7189               148.1982
 Red. masses --      3.8800                 4.0508                 4.3116
 Frc consts  --      0.0250                 0.0293                 0.0558
 IR Inten    --      4.6113                 0.0087                20.5389

                      7                      8                      9
                      A                      A                      A
 Frequencies --    151.1982               183.7902               206.8006
 Red. masses --      4.6931                 2.9043                 4.8949
 Frc consts  --      0.0632                 0.0578                 0.1233
 IR Inten    --      3.8336                 0.0000                 0.0000

                     10                     11                     12
                      A                      A                      A
 Frequencies --    228.5785               266.8429               286.4313
 Red. masses --      2.1494                 1.3795                 1.5300
 Frc consts  --      0.0662                 0.0579                 0.0740
 IR Inten    --      0.4838                 0.0000                 0.6082

                     13                     14                     15
                      A                      A                      A
 Frequencies --    305.8381               309.0769               315.8079
 Red. masses --      3.4998                 3.9895                 3.8821
 Frc consts  --      0.1929                 0.2245                 0.2281
 IR Inten    --      0.0000                 0.0000                 0.8812

                     16                     17                     18
                      A                      A                      A
 Frequencies --    353.2712               372.8086               387.5169
 Red. masses --      7.5300                 7.4694                 7.5133
 Frc consts  --      0.5537                 0.6117                 0.6648
 IR Inten    --      0.0001                 0.0000                14.3159

                     19                     20                     21
                      A                      A                      A
 Frequencies --    407.6688               418.8516               481.4499
 Red. masses --      8.5947                 6.3098                11.9905
 Frc consts  --      0.8416                 0.6522                 1.6375
 IR Inten    --     12.2813                 0.0001                 0.0000

                     22                     23                     24
                      A                      A                      A
 Frequencies --    494.8047               509.2899               546.7139
 Red. masses --      3.9424                 6.5034                 5.1993
 Frc consts  --      0.5687                 0.9938                 0.9156
 IR Inten    --      2.3998                 0.0000                 4.6493

                     25                     26                     27
                      A                      A                      A
 Frequencies --    571.3944               579.3994               626.7523
 Red. masses --      6.8081                 4.5101                 5.5336
 Frc consts  --      1.3096                 0.8921                 1.2807
 IR Inten    --     40.1711                 0.0000                 0.0000

                     28                     29                     30
                      A                      A                      A
 Frequencies --    631.2720               669.0552               700.6233
 Red. masses --      4.8655                 4.3227                 6.5898
 Frc consts  --      1.1424                 1.1401                 1.9059
 IR Inten    --     12.0201                 0.0001                 0.0011

                     31                     32                     33
                      A                      A                      A
 Frequencies --    708.5179               757.8443               765.8197
 Red. masses --      2.3023                 1.4150                 6.4684
 Frc consts  --      0.6810                 0.4788                 2.2351
 IR Inten    --    109.5180                 0.0001                78.3866

                     34                     35                     36
                      A                      A                      A
 Frequencies --    767.2643               793.9050               827.5409
 Red. masses --      5.1725                 2.0997                 5.6192
 Frc consts  --      1.7941                 0.7797                 2.2673
 IR Inten    --      0.3220               135.6992                 0.0000

                     37                     38                     39
                      A                      A                      A
 Frequencies --    838.7381               875.5314               876.0263
 Red. masses --      6.7669                 1.4469                 6.7158
 Frc consts  --      2.8047                 0.6535                 3.0365
 IR Inten    --     47.9393                 0.0002                 0.0000

                     40                     41                     42
                      A                      A                      A
 Frequencies --    879.5126               935.7363               980.7093
 Red. masses --      1.4780                 5.7801                 1.2910
 Frc consts  --      0.6736                 2.9819                 0.7316
 IR Inten    --      0.3496                 0.0000                 1.1516

                     43                     44                     45
                      A                      A                      A
 Frequencies --    980.8552               984.6506              1072.9116
 Red. masses --      1.2911                 7.2777                 7.1974
 Frc consts  --      0.7318                 4.1573                 4.8815
 IR Inten    --      1.3864               145.3223                 0.0005

                     46                     47                     48
                      A                      A                      A
 Frequencies --   1084.8052              1096.7245              1112.2576
 Red. masses --      3.7682                 2.1569                 2.1192
 Frc consts  --      2.6127                 1.5285                 1.5447
 IR Inten    --    337.5158                 0.0034               350.1311

                     49                     50                     51
                      A                      A                      A
 Frequencies --   1155.5725              1162.6284              1162.6571
 Red. masses --      1.9925                 1.2760                 1.2760
 Frc consts  --      1.5676                 1.0162                 1.0163
 IR Inten    --    151.0664                 2.6625                 0.0257

                     52                     53                     54
                      A                      A                      A
 Frequencies --   1177.8405              1180.8692              1193.4382
 Red. masses --      1.4369                 1.8935                 1.5784
 Frc consts  --      1.1745                 1.5557                 1.3246
 IR Inten    --      0.0005                 0.0000                28.6989

                     55                     56                     57
                      A                      A                      A
 Frequencies --   1208.1535              1209.9819              1231.6702
 Red. masses --      1.3492                 2.9274                 2.0096
 Frc consts  --      1.1603                 2.5251                 1.7962
 IR Inten    --      0.0000               227.4240                31.7851

                     58                     59                     60
                      A                      A                      A
 Frequencies --   1262.1066              1267.5539              1324.4565
 Red. masses --      3.7529                 3.5749                 4.3999
 Frc consts  --      3.5221                 3.3842                 4.5475
 IR Inten    --    445.1282                 0.0013                 0.0000

                     61                     62                     63
                      A                      A                      A
 Frequencies --   1341.4480              1373.7917              1404.4590
 Red. masses --      9.7689                 5.8653                 4.3040
 Frc consts  --     10.3572                 6.5220                 5.0019
 IR Inten    --    167.0030                 0.0000               759.1546

                     64                     65                     66
                      A                      A                      A
 Frequencies --   1424.9025              1443.9614              1465.2741
 Red. masses --      2.5073                 3.9090                 1.5931
 Frc consts  --      2.9994                 4.8021                 2.0152
 IR Inten    --    280.1311                 0.0001                 0.0001

                     67                     68                     69
                      A                      A                      A
 Frequencies --   1469.6078              1484.0987              1484.1172
 Red. masses --      1.2669                 1.0455                 1.0492
 Frc consts  --      1.6121                 1.3568                 1.3616
 IR Inten    --    354.2703                23.7376                 0.2772

                     70                     71                     72
                      A                      A                      A
 Frequencies --   1484.6541              1495.9045              1496.5652
 Red. masses --      1.7387                 1.0808                 1.1369
 Frc consts  --      2.2580                 1.4249                 1.5002
 IR Inten    --      0.0003               295.3211                 0.0008

                     73                     74                     75
                      A                      A                      A
 Frequencies --   1515.3113              1518.2894              1561.7575
 Red. masses --      3.2852                 5.1599                 4.9140
 Frc consts  --      4.4445                 7.0081                 7.0617
 IR Inten    --   1509.0591                 0.0035               494.5214

                     76                     77                     78
                      A                      A                      A
 Frequencies --   1607.5096              1612.6621              1618.5066
 Red. masses --      7.6055                 5.3210                 5.9842
 Frc consts  --     11.5794                 8.1532                 9.2361
 IR Inten    --      0.0000                 0.0000                53.4956

                     79                     80                     81
                      A                      A                      A
 Frequencies --   3009.7104              3009.8845              3071.2432
 Red. masses --      1.0335                 1.0335                 1.1064
 Frc consts  --      5.5157                 5.5165                 6.1487
 IR Inten    --    218.7582                 0.0119                 2.0101

                     82                     83                     84
                      A                      A                      A
 Frequencies --   3071.2499              3131.4945              3131.5102
 Red. masses --      1.1064                 1.1002                 1.1002
 Frc consts  --      6.1487                 6.3566                 6.3566
 IR Inten    --    110.2845                67.6868                 0.2867

                     85                     86                     87
                      A                      A                      A
 Frequencies --   3163.8152              3163.9734              3204.8582
 Red. masses --      1.0886                 1.0887                 1.0914
 Frc consts  --      6.4201                 6.4212                 6.6044
 IR Inten    --     58.6208                 0.0000                36.6084

                     88                     89                     90
                      A                      A                      A
 Frequencies --   3205.0713              3216.1760              3216.3144
 Red. masses --      1.0913                 1.0909                 1.0909
 Frc consts  --      6.6052                 6.6481                 6.6489
 IR Inten    --      0.0988                33.7198                 0.0006

 - Thermochemistry -
 -------------------
 Temperature   298.150 Kelvin.  Pressure   1.00000 Atm.
 Atom     1 has atomic number  6 and mass  12.00000

 Molecular mass:   268.07356 amu.
 Principal axes and moments of inertia in atomic units:
                           1         2         3
     Eigenvalues --  2579.726017638.69411**********
           X            0.99982   0.01837  -0.00420
           Y           -0.01819   0.99907   0.03899
           Z            0.00491  -0.03891   0.99923
 This molecule is an asymmetric top.
 Rotational symmetry number  1.
 Warning -- assumption of classical behavior for rotation
           may cause significant error
 Rotational temperatures (Kelvin)      0.03357     0.01134     0.00850
 Rotational constants (GHZ):           0.69959     0.23626     0.17702
 Zero-point vibrational energy     632571.8 (Joules/Mol)
                                  151.18828 (Kcal/Mol)
 Warning -- explicit consideration of  26 degrees of freedom as
           vibrations may cause significant error
 Vibrational temperatures:     30.93    59.37    74.48   150.57   159.30
          (Kelvin)            213.22   217.54   264.43   297.54   328.87
                              383.93   412.11   440.03   444.69   454.38
                              508.28   536.39   557.55   586.54   602.63
                              692.70   711.91   732.75   786.60   822.11
                              833.63   901.76   908.26   962.62  1008.04
                             1019.40  1090.37  1101.84  1103.92  1142.25
                             1190.65  1206.76  1259.69  1260.41  1265.42
                             1346.32  1411.02  1411.23  1416.69  1543.68
                             1560.79  1577.94  1600.29  1662.61  1672.76
                             1672.80  1694.65  1699.01  1717.09  1738.26
                             1740.89  1772.10  1815.89  1823.73  1905.60
                             1930.04  1976.58  2020.70  2050.12  2077.54
                             2108.20  2114.44  2135.29  2135.31  2136.09
                             2152.27  2153.22  2180.20  2184.48  2247.02
                             2312.85  2320.26  2328.67  4330.30  4330.55
                             4418.83  4418.84  4505.52  4505.54  4552.02
                             4552.25  4611.08  4611.38  4627.36  4627.56

 Zero-point correction=                           0.240934 (Hartree/Particle)
 Thermal correction to Energy=                    0.257547
 Thermal correction to Enthalpy=                  0.258492
 Thermal correction to Gibbs Free Energy=         0.195267
 Sum of electronic and zero-point Energies=           -917.948428
 Sum of electronic and thermal Energies=              -917.931814
 Sum of electronic and thermal Enthalpies=            -917.930870
 Sum of electronic and thermal Free Energies=         -917.994095

                     E (Thermal)             CV                S
                      KCal/Mol        Cal/Mol-Kelvin    Cal/Mol-Kelvin
 Total                  161.613             64.756            133.068
 Electronic               0.000              0.000              1.377
 Translational            0.889              2.981             42.657
 Rotational               0.889              2.981             33.662
 Vibrational            159.836             58.795             55.371
 Vibration     1          0.593              1.985              6.491
 Vibration     2          0.594              1.981              5.197
 Vibration     3          0.596              1.977              4.749
 Vibration     4          0.605              1.946              3.366
 Vibration     5          0.607              1.941              3.256
 Vibration     6          0.618              1.905              2.695
 Vibration     7          0.619              1.901              2.657
 Vibration     8          0.631              1.862              2.290
 Vibration     9          0.641              1.830              2.072
 Vibration    10          0.651              1.797              1.890
 Vibration    11          0.672              1.734              1.617
 Vibration    12          0.684              1.699              1.495
 Vibration    13          0.696              1.663              1.385
 Vibration    14          0.698              1.656              1.367
 Vibration    15          0.703              1.643              1.332
 Vibration    16          0.729              1.569              1.152
 Vibration    17          0.744              1.528              1.068
 Vibration    18          0.756              1.497              1.010
 Vibration    19          0.772              1.454              0.935
 Vibration    20          0.782              1.429              0.896
 Vibration    21          0.838              1.291              0.706
 Vibration    22          0.850              1.262              0.671
 Vibration    23          0.864              1.229              0.635
 Vibration    24          0.902              1.147              0.551
 Vibration    25          0.928              1.093              0.502
 Vibration    26          0.936              1.076              0.486

                           ! Non-Optimized Parameters !
 Normal termination of Gaussian 16 at Sat Feb 10 18:48:47 2024.
