 Gaussian 16, Revision A.03,
 Gaussian 16:  ES64L-G16RevA.03 25-Dec-2016

 --------------------------------------
 #P UB3LYP/6-311++G(d,p) nosym opt freq
 --------------------------------------

 -------
 Radical
 -------
 Symbolic Z-matrix:
 Charge = -1 Multiplicity = 2

 SCF Done:  E(UB3LYP) =  -839.520804410     A.U. after   22 cycles
 SCF Done:  E(UB3LYP) =  -839.520804425     A.U. after   10 cycles
 SCF Done:  E(UB3LYP) =  -839.520804439     A.U. after   10 cycles
 Optimization completed.
    -- Stationary point found.
 Normal termination of Gaussian 16 at Sun Jan  7 05:15:02 2024.

 ----------------------------------------------------------------------
 #P Geom=AllCheck Guess=TCheck SCRF=Check GenChk UB3LYP/6-311++G(d,p) F
 req
 ----------------------------------------------------------------------

 Structure from the checkpoint file:  "187-rad.chk"
 -------
 Radical
 -------
 Charge = -1 Multiplicity = 2

                          Input orientation:
 ---------------------------------------------------------------------
 Center     Atomic      Atomic             Coordinates (Angstroms)
 Number     Number       Type             X           Y           Z
 ---------------------------------------------------------------------
      1          8           0       -2.291891   -2.686675   -0.434123
      2          6           0       -2.340457   -1.336128   -0.202929
      3          6           0       -3.575048   -0.714457   -0.083237
      4          6           0       -3.665579    0.669126    0.154090
      5          6           0       -2.516648    1.418109    0.269461
      6          6           0       -1.245718    0.815902    0.152694
      7          6           0       -0.073970    1.685552    0.288439
      8          8           0       -0.194066    2.917205    0.499975
      9          6           0        1.238674    1.052313    0.166192
     10          6           0        2.397908    1.843674    0.288891
     11          6           0        3.650015    1.267259    0.177026
     12          6           0        3.790387   -0.108309   -0.059349
     13          6           0        2.662648   -0.913999   -0.184829
     14          8           0        2.821623   -2.231975   -0.411456
     15          6           0        1.352972   -0.345190   -0.073671
     16          6           0        0.187478   -1.208966   -0.208783
     17          8           0        0.345103   -2.456471   -0.424047
     18          6           0       -1.126797   -0.593663   -0.089354
     19          1           0       -3.201519   -3.000897   -0.477875
     20          1           0       -4.478424   -1.314202   -0.175813
     21          1           0       -4.642064    1.134793    0.244319
     22          1           0       -2.543777    2.484867    0.451976
     23          1           0        2.269173    2.903033    0.471190
     24          1           0        4.540388    1.882476    0.272542
     25          1           0        4.766580   -0.571878   -0.148941
     26          1           0        1.873007   -2.591501   -0.462388
 ---------------------------------------------------------------------

 SCF Done:  E(UB3LYP) =  -839.520804439     A.U. after    1 cycles

 Alpha  occ. eigenvalues --  -19.04466 -19.00209 -18.96179 -18.94865 -10.13016
 Alpha  occ. eigenvalues --  -10.11260 -10.11254 -10.09908 -10.06633 -10.06388
 Alpha  occ. eigenvalues --  -10.06273 -10.05809 -10.05756 -10.05298 -10.05194
 Alpha  occ. eigenvalues --  -10.04963 -10.04611 -10.04149  -0.95762  -0.92807
 Alpha  occ. eigenvalues --   -0.87933  -0.87511  -0.74333  -0.72823  -0.67047
 Alpha  occ. eigenvalues --   -0.63302  -0.62695  -0.61719  -0.55167  -0.52891
 Alpha  occ. eigenvalues --   -0.51425  -0.48245  -0.45508  -0.44030  -0.41253
 Alpha  occ. eigenvalues --   -0.38823  -0.37774  -0.36289  -0.35580  -0.34121
 Alpha  occ. eigenvalues --   -0.33144  -0.31658  -0.30571  -0.30134  -0.29268
 Alpha  occ. eigenvalues --   -0.28711  -0.27453  -0.26758  -0.26719  -0.25530
 Alpha  occ. eigenvalues --   -0.24794  -0.24120  -0.23501  -0.22167  -0.22129
 Alpha  occ. eigenvalues --   -0.20378  -0.15112  -0.13358  -0.12525  -0.12110
 Alpha  occ. eigenvalues --   -0.11161  -0.10338  -0.01984
 Alpha virt. eigenvalues --    0.07000   0.07295   0.08862   0.08905   0.09100
 Alpha virt. eigenvalues --    0.10978   0.11213   0.12492   0.12700   0.13352
 Alpha virt. eigenvalues --    0.14575   0.14937   0.15436   0.16223   0.16555

  Beta  occ. eigenvalues --  -19.04460 -19.00196 -18.95662 -18.94270 -10.13026
  Beta  occ. eigenvalues --  -10.11265 -10.11068 -10.09786 -10.06553 -10.06312
  Beta  occ. eigenvalues --  -10.06211 -10.05772 -10.05618 -10.05282 -10.05115
  Beta  occ. eigenvalues --  -10.04977 -10.04529 -10.04127  -0.95744  -0.92683
  Beta  occ. eigenvalues --   -0.87117  -0.86487  -0.74071  -0.72683  -0.66647
  Beta  occ. eigenvalues --   -0.63078  -0.62491  -0.61532  -0.54488  -0.52726
  Beta  occ. eigenvalues --   -0.51189  -0.48157  -0.45345  -0.43824  -0.41109
  Beta  occ. eigenvalues --   -0.38705  -0.37645  -0.36061  -0.35422  -0.34035
  Beta  occ. eigenvalues --   -0.33008  -0.31027  -0.30442  -0.29948  -0.28973
  Beta  occ. eigenvalues --   -0.28294  -0.27285  -0.26573  -0.25490  -0.25449
  Beta  occ. eigenvalues --   -0.24040  -0.23341  -0.22950  -0.21949  -0.21697
  Beta  occ. eigenvalues --   -0.19423  -0.13120  -0.12666  -0.12080  -0.11368
  Beta  occ. eigenvalues --   -0.10635  -0.09644
  Beta virt. eigenvalues --    0.03720   0.06996   0.08285   0.08855   0.08897
  Beta virt. eigenvalues --    0.10187   0.10975   0.11209   0.12698   0.12728
  Beta virt. eigenvalues --    0.13352   0.14578   0.15022   0.15447   0.16570

 Mulliken charges and spin densities:
               1          2
     1  O   -0.180549   0.002444
     2  C   -0.003156   0.013702
     3  C   -0.240458   0.055762
     4  C   -0.297345   0.065887
     5  C   -0.013428   0.016962
     6  C    0.385651   0.083403
     7  C   -0.584127   0.063138
     8  O   -0.355695   0.224122
     9  C    0.333236   0.041004
    10  C   -0.076295   0.044639
    11  C   -0.324923   0.030440
    12  C   -0.198286   0.057160
    13  C   -0.141241   0.019344
    14  O   -0.375013   0.005095
    15  C    0.406133  -0.002216
    16  C   -0.361507   0.100440
    17  O   -0.410415   0.189074
    18  C    0.044184   0.015744
    19  H    0.240735  -0.000433
    20  H    0.069348  -0.005705
    21  H    0.136006  -0.004805
    22  H    0.149796  -0.001289
    23  H    0.147746  -0.002836
    24  H    0.130412  -0.002509
    25  H    0.138934  -0.005086
    26  H    0.380257  -0.003479
 Sum of Mulliken charges =  -1.00000   1.00000

 Dipole moment (field-independent basis, Debye):
    X=             -3.5733    Y=             -0.6182    Z=             -0.0647  Tot=              3.6270
 Quadrupole moment (field-independent basis, Debye-Ang):
   XX=           -116.7611   YY=           -137.5323   ZZ=           -111.3711
   XY=             11.6804   XZ=              2.0622   YZ=             -4.7394

  Exact polarizability: 331.778   9.699 224.887  -0.902  22.034  99.026
 Approx polarizability: 500.442   4.554 431.211  -2.997  47.737 159.629

                      1                      2                      3
                      A                      A                      A
 Frequencies --     46.5104                62.2905               110.5344
 Red. masses --      7.0758                 6.9170                10.3116
 Frc consts  --      0.0090                 0.0158                 0.0742
 IR Inten    --      4.8143                 1.1116                 0.6322

                      4                      5                      6
                      A                      A                      A
 Frequencies --    163.7776               200.3998               202.9928
 Red. masses --      6.8136                 4.5722                 6.4188
 Frc consts  --      0.1077                 0.1082                 0.1558
 IR Inten    --      0.0001                 1.0288                 4.2456

                      7                      8                      9
                      A                      A                      A
 Frequencies --    226.4969               252.4199               300.9763
 Red. masses --      1.5539                 3.1154                 3.0697
 Frc consts  --      0.0470                 0.1170                 0.1638
 IR Inten    --     45.2556                15.1338                18.5815

                     10                     11                     12
                      A                      A                      A
 Frequencies --    315.7053               349.2087               364.2302
 Red. masses --      7.0583                 6.7133                11.2073
 Frc consts  --      0.4145                 0.4823                 0.8760
 IR Inten    --      2.5932                 2.6032                 3.1543

                     13                     14                     15
                      A                      A                      A
 Frequencies --    412.8600               440.0395               446.8257
 Red. masses --      6.3404                11.3509                 7.4653
 Frc consts  --      0.6368                 1.2950                 0.8782
 IR Inten    --      0.1108                27.1889                 3.2750

                     16                     17                     18
                      A                      A                      A
 Frequencies --    468.6670               488.0562               499.5605
 Red. masses --      6.7742                 4.2975                 7.4449
 Frc consts  --      0.8767                 0.6031                 1.0947
 IR Inten    --     12.3562                 0.1813                 4.2143

                     19                     20                     21
                      A                      A                      A
 Frequencies --    529.8093               552.7785               582.3541
 Red. masses --      4.6281                 8.2367                 5.3889
 Frc consts  --      0.7654                 1.4829                 1.0768
 IR Inten    --      5.0605                 0.3629                 3.6518

                     22                     23                     24
                      A                      A                      A
 Frequencies --    592.5513               622.8538               637.7348
 Red. masses --      4.7557                 6.8532                 4.0167
 Frc consts  --      0.9838                 1.5664                 0.9625
 IR Inten    --      0.1084                23.9167                 8.1128

                     25                     26                     27
                      A                      A                      A
 Frequencies --    706.5052               714.3532               736.3584
 Red. masses --      6.8374                 2.0760                 2.2862
 Frc consts  --      2.0108                 0.6242                 0.7304
 IR Inten    --     10.5972                 5.8417                78.2506

                     28                     29                     30
                      A                      A                      A
 Frequencies --    753.1015               782.3652               792.7885
 Red. masses --      2.7193                 2.2786                 6.3168
 Frc consts  --      0.9087                 0.8218                 2.3392
 IR Inten    --     16.7677                 9.6808                 6.3121

                     31                     32                     33
                      A                      A                      A
 Frequencies --    806.8260               833.4478               835.1879
 Red. masses --      3.6634                 8.8589                 1.4990
 Frc consts  --      1.4051                 3.6256                 0.6160
 IR Inten    --     22.3305                45.7825                 4.1650

                     34                     35                     36
                      A                      A                      A
 Frequencies --    871.7419               926.6959               961.4322
 Red. masses --      1.4655                 6.4287                 1.2638
 Frc consts  --      0.6562                 3.2527                 0.6883
 IR Inten    --      0.2538                 3.3994                 0.1508

                     37                     38                     39
                      A                      A                      A
 Frequencies --    965.1712               975.8119               988.6725
 Red. masses --      1.2864                 1.0542                 6.2559
 Frc consts  --      0.7060                 0.5914                 3.6028
 IR Inten    --      1.8667                71.0055                97.5563

                     40                     41                     42
                      A                      A                      A
 Frequencies --   1047.2717              1074.7477              1090.1789
 Red. masses --      3.8839                 1.9874                 1.8910
 Frc consts  --      2.5098                 1.3525                 1.3241
 IR Inten    --      1.5338                20.7240                58.5726

                     43                     44                     45
                      A                      A                      A
 Frequencies --   1158.2873              1172.9977              1177.0927
 Red. masses --      1.4163                 1.4359                 1.8775
 Frc consts  --      1.1195                 1.1641                 1.5327
 IR Inten    --     45.6203                 1.5116                 0.9142

                     46                     47                     48
                      A                      A                      A
 Frequencies --   1201.8191              1233.4854              1243.9883
 Red. masses --      1.7918                 2.9801                 2.2886
 Frc consts  --      1.5249                 2.6714                 2.0866
 IR Inten    --     78.0680                36.5260                 1.7308

                     49                     50                     51
                      A                      A                      A
 Frequencies --   1276.8350              1297.1906              1306.7918
 Red. masses --      3.1999                 4.4754                 3.0602
 Frc consts  --      3.0736                 4.4370                 3.0790
 IR Inten    --     43.4412                10.4658               238.6099

                     52                     53                     54
                      A                      A                      A
 Frequencies --   1355.4924              1373.4282              1401.1495
 Red. masses --      6.5192                 5.6506                 3.4055
 Frc consts  --      7.0573                 6.2800                 3.9391
 IR Inten    --     14.2480                 6.4409               172.5412

                     55                     56                     57
                      A                      A                      A
 Frequencies --   1432.0568              1467.7200              1483.1986
 Red. masses --      2.9665                 2.8573                 3.5456
 Frc consts  --      3.5844                 3.6265                 4.5956
 IR Inten    --     94.2159                67.4551                39.9124

                     58                     59                     60
                      A                      A                      A
 Frequencies --   1499.0525              1536.9830              1563.7317
 Red. masses --      3.3073                 5.8404                 4.6773
 Frc consts  --      4.3788                 8.1289                 6.7386
 IR Inten    --    145.5917               655.0537               137.6198

                     61                     62                     63
                      A                      A                      A
 Frequencies --   1579.2833              1615.9463              1620.7802
 Red. masses --      2.8477                 6.6856                 5.6718
 Frc consts  --      4.1847                10.2860                 8.7785
 IR Inten    --     40.0541               129.3227                34.3013

                     64                     65                     66
                      A                      A                      A
 Frequencies --   1656.0304              2814.4442              3116.4926
 Red. masses --      2.6675                 1.0762                 1.0869
 Frc consts  --      4.3102                 5.0224                 6.2199
 IR Inten    --     76.5880               505.3393                42.2808

                     67                     68                     69
                      A                      A                      A
 Frequencies --   3138.1464              3152.9478              3173.0007
 Red. masses --      1.0867                 1.0906                 1.0917
 Frc consts  --      6.3053                 6.3877                 6.4758
 IR Inten    --     34.0535                39.4612                32.7560

                     70                     71                     72
                      A                      A                      A
 Frequencies --   3195.3275              3196.7354              3808.9299
 Red. masses --      1.0917                 1.0920                 1.0654
 Frc consts  --      6.5673                 6.5751                 9.1069
 IR Inten    --     18.8368                10.0308                20.9362

 - Thermochemistry -
 -------------------
 Temperature   298.150 Kelvin.  Pressure   1.00000 Atm.
 Atom     1 has atomic number  8 and mass  15.99491

 Molecular mass:   240.04226 amu.
 Principal axes and moments of inertia in atomic units:
                           1         2         3
     Eigenvalues --  2434.717474808.634057243.35142
           X            0.99593  -0.08951   0.01065
           Y            0.09002   0.98161  -0.16834
           Z            0.00461   0.16862   0.98567
 This molecule is an asymmetric top.
 Rotational symmetry number  1.
 Warning -- assumption of classical behavior for rotation
           may cause significant error
 Rotational temperatures (Kelvin)      0.03557     0.01801     0.01196
 Rotational constants (GHZ):           0.74125     0.37531     0.24916
 Zero-point vibrational energy     484377.9 (Joules/Mol)
                                  115.76909 (Kcal/Mol)
 Warning -- explicit consideration of  22 degrees of freedom as
           vibrations may cause significant error
 Vibrational temperatures:     66.92    89.62   159.03   235.64   288.33
          (Kelvin)            292.06   325.88   363.18   433.04   454.23
                              502.43   524.05   594.01   633.12   642.88
                              674.31   702.20   718.76   762.28   795.32
                              837.88   852.55   896.15   917.56  1016.50
                             1027.79  1059.46  1083.55  1125.65  1140.65
                             1160.84  1199.15  1201.65  1254.24  1333.31
                             1383.29  1388.67  1403.98  1422.48  1506.79
                             1546.32  1568.52  1666.52  1687.68  1693.57
                             1729.15  1774.71  1789.82  1837.08  1866.37
                             1880.18  1950.25  1976.06  2015.94  2060.41
                             2111.72  2133.99  2156.80  2211.38  2249.86
                             2272.24  2324.99  2331.94  2382.66  4049.36
                             4483.94  4515.09  4536.39  4565.24  4597.36
                             4599.39  5480.20

 Zero-point correction=                           0.184490 (Hartree/Particle)
 Thermal correction to Energy=                    0.197859
 Thermal correction to Enthalpy=                  0.198803
 Thermal correction to Gibbs Free Energy=         0.143919
 Sum of electronic and zero-point Energies=           -839.336315
 Sum of electronic and thermal Energies=              -839.322946
 Sum of electronic and thermal Enthalpies=            -839.322001
 Sum of electronic and thermal Free Energies=         -839.376885

                     E (Thermal)             CV                S
                      KCal/Mol        Cal/Mol-Kelvin    Cal/Mol-Kelvin
 Total                  124.158             54.365            115.512
 Electronic               0.000              0.000              1.377
 Translational            0.889              2.981             42.328
 Rotational               0.889              2.981             32.805
 Vibrational            122.381             48.403             39.001
 Vibration     1          0.595              1.979              4.961
 Vibration     2          0.597              1.972              4.383
 Vibration     3          0.606              1.941              3.260
 Vibration     4          0.623              1.887              2.506
 Vibration     5          0.638              1.839              2.129
 Vibration     6          0.639              1.836              2.106
 Vibration     7          0.650              1.801              1.907
 Vibration     8          0.664              1.759              1.714
 Vibration     9          0.693              1.672              1.411
 Vibration    10          0.703              1.644              1.332
 Vibration    11          0.726              1.577              1.170
 Vibration    12          0.738              1.546              1.104
 Vibration    13          0.777              1.442              0.917
 Vibration    14          0.800              1.383              0.826
 Vibration    15          0.806              1.368              0.805
 Vibration    16          0.826              1.320              0.741
 Vibration    17          0.844              1.277              0.689
 Vibration    18          0.855              1.251              0.659
 Vibration    19          0.885              1.184              0.588
 Vibration    20          0.908              1.134              0.538
 Vibration    21          0.939              1.069              0.481
 Vibration    22          0.950              1.048              0.463

 Optimization completed.
    -- Stationary point found.
 Normal termination of Gaussian 16 at Sun Jan  7 06:23:01 2024.
