 Q-Chem 5.4, Q-Chem, Inc., Pleasanton, CA (2021)
 Q-Chem 5.4.0 for Intel X86 EM64T Linux

User input:
--------------------------------------------------------------
$molecule
-1 2
O                 -2.2918910000     -2.6866750000     -0.4341230000
C                 -2.3404570000     -1.3361280000     -0.2029290000
C                 -3.5750480000     -0.7144570000     -0.0832370000
C                 -3.6655790000      0.6691260000      0.1540900000
C                 -2.5166480000      1.4181090000      0.2694610000
C                 -1.2457180000      0.8159020000      0.1526940000
C                 -0.0739700000      1.6855520000      0.2884390000
O                 -0.1940660000      2.9172050000      0.4999750000
C                  1.2386740000      1.0523130000      0.1661920000
C                  2.3979080000      1.8436740000      0.2888910000
C                  3.6500150000      1.2672590000      0.1770260000
C                  3.7903870000     -0.1083090000     -0.0593490000
C                  2.6626480000     -0.9139990000     -0.1848290000
O                  2.8216230000     -2.2319750000     -0.4114560000
C                  1.3529720000     -0.3451900000     -0.0736710000
C                  0.1874780000     -1.2089660000     -0.2087830000
O                  0.3451030000     -2.4564710000     -0.4240470000
C                 -1.1267970000     -0.5936630000     -0.0893540000
H                 -3.2015190000     -3.0008970000     -0.4778750000
H                 -4.4784240000     -1.3142020000     -0.1758130000
H                 -4.6420640000      1.1347930000      0.2443190000
H                 -2.5437770000      2.4848670000      0.4519760000
H                  2.2691730000      2.9030330000      0.4711900000
H                  4.5403880000      1.8824760000      0.2725420000
H                  4.7665800000     -0.5718780000     -0.1489410000
H                  1.8730070000     -2.5915010000     -0.4623880000
$end
$rem
MAX_SCF_CYCLES=200
BASIS  =  6-311++G(d,p)
GUI  =  2
JOB_TYPE  =  SP
METHOD  =  B3LYP
SOLVENT_METHOD = COSMO
$end
$solvent
dielectric 37.219
opticaldielectric 1.43
$end

--------------------------------------------------------------

             Standard Nuclear Orientation (Angstroms)
    I     Atom           X                Y                Z
 ----------------------------------------------------------------
    1      O       2.5987974699    -2.3729267929    -0.0000355510
    2      C       2.5161980439    -1.0043640957    -0.0000436926
    3      C       3.6847204785    -0.2563191535    -0.0002133141
    4      C       3.6406859545     1.1496975048    -0.0002580961
    5      C       2.4245343649     1.7941381457    -0.0001301041
    6      C       1.2179564974     1.0622087183     0.0000459165
    7      C      -0.0326038768     1.8262832827     0.0001622519
    8      O      -0.0324814554     3.0817272730     0.0002774787
    9      C      -1.2776928510     1.0589999784     0.0000713040
   10      C      -2.5082088149     1.7452661084     0.0000005891
   11      C      -3.6985542702     1.0412649336    -0.0001126999
   12      C      -3.7049045214    -0.3614910788    -0.0001880012
   13      C      -2.5043465269    -1.0652931505    -0.0001238696
   14      O      -2.5347967069    -2.4116832634    -0.0003104520
   15      C      -1.2559647445    -0.3633715670     0.0000191985
   16      C      -0.0121967981    -1.1221744117     0.0002011535
   17      O      -0.0481317023    -2.3973847461     0.0006921015
   18      C       1.2362531562    -0.3728063198     0.0000676914
   19      H       3.5346190491    -2.6016422635    -0.0001166621
   20      H       4.6420012084    -0.7739736467    -0.0003025429
   21      H       4.5674390239     1.7150635021    -0.0003989496
   22      H       2.3481121883     2.8740362837    -0.0001591565
   23      H      -2.4827843488     2.8275787770     0.0000213605
   24      H      -4.6443939585     1.5758363715    -0.0001782032
   25      H      -4.6315719183    -0.9246635531    -0.0003187246
   26      H      -1.5557786371    -2.6823286060    -0.0005257034
 ----------------------------------------------------------------

   11    -839.5208657932      4.53e-06  Convergence criterion met
 Total energy in the final basis set =     -839.5208657932
    5    -839.6091591103      5.44e-06  Convergence criterion met
 Total energy in the final basis set =     -839.6091591103

                    Orbital Energies (a.u.)
 --------------------------------------------------------------

 Alpha MOs
 -- Occupied --
-19.1539 -19.1322 -19.0929 -19.0805 -10.2441 -10.2410 -10.2368 -10.2289
-10.1838 -10.1793 -10.1784 -10.1765 -10.1764 -10.1747 -10.1722 -10.1652
-10.1651 -10.1632  -1.0672  -1.0581  -1.0109  -1.0083  -0.8633  -0.8488
 -0.7897  -0.7512  -0.7449  -0.7404  -0.6735  -0.6453  -0.6339  -0.5994
 -0.5764  -0.5566  -0.5312  -0.5112  -0.4967  -0.4834  -0.4703  -0.4602
 -0.4495  -0.4409  -0.4291  -0.4234  -0.4178  -0.4134  -0.3974  -0.3908
 -0.3903  -0.3768  -0.3722  -0.3568  -0.3539  -0.3483  -0.3403  -0.3297
 -0.2756  -0.2574  -0.2536  -0.2436  -0.2397  -0.2295  -0.1465

 Beta MOs
 -- Occupied --
-19.1538 -19.1320 -19.0882 -19.0752 -10.2441 -10.2388 -10.2368 -10.2271
-10.1835 -10.1783 -10.1782 -10.1758 -10.1758 -10.1743 -10.1714 -10.1649
-10.1643 -10.1628  -1.0667  -1.0569  -1.0034  -0.9990  -0.8606  -0.8475
 -0.7859  -0.7485  -0.7428  -0.7386  -0.6665  -0.6435  -0.6315  -0.5985
 -0.5745  -0.5544  -0.5297  -0.5100  -0.4947  -0.4812  -0.4689  -0.4593
 -0.4480  -0.4324  -0.4269  -0.4219  -0.4137  -0.4115  -0.3899  -0.3889
 -0.3827  -0.3715  -0.3600  -0.3561  -0.3525  -0.3468  -0.3366  -0.3193
 -0.2577  -0.2533  -0.2487  -0.2391  -0.2307  -0.2229

          Ground-State Mulliken Net Atomic Charges

     Atom                 Charge (a.u.)    Spin (a.u.)
  --------------------------------------------------------
      1 O                    -0.267699       0.004253
      2 C                    -0.004202       0.022944
      3 C                    -0.240869       0.054407
      4 C                    -0.358668       0.047021
      5 C                    -0.033980       0.043107
      6 C                     0.291151       0.047247
      7 C                    -0.374195       0.108200
      8 O                    -0.482823       0.196103
      9 C                     0.256559       0.031428
     10 C                    -0.080360       0.060974
     11 C                    -0.426364       0.028814
     12 C                    -0.314617       0.060798
     13 C                    -0.045622       0.023037
     14 O                    -0.433154       0.006294
     15 C                     0.434353      -0.001269
     16 C                    -0.271414       0.128657
     17 O                    -0.508730       0.168502
     18 C                    -0.014368      -0.005146
     19 H                     0.318794      -0.000314
     20 H                     0.182596      -0.005129
     21 H                     0.216360      -0.003534
     22 H                     0.166588      -0.002360
     23 H                     0.170177      -0.003300
     24 H                     0.210452      -0.002386
     25 H                     0.203698      -0.005227
     26 H                     0.406338      -0.003121
  --------------------------------------------------------
  Sum of atomic charges =    -1.000000

                    Cartesian Multipole Moments
 -----------------------------------------------------------------
    Charge (ESU x 10^10)
                -4.8032
    Dipole Moment (Debye)
         X       4.9803      Y      -0.9236      Z      -0.0027
       Tot       5.0652
    Quadrupole Moments (Debye-Ang)
        XX     -93.5349     XY     -11.6002     YY    -144.4405
        XZ       0.0035     YZ       0.0025     ZZ    -110.4185

 Total job time:  89.22s(wall), 648.20s(cpu)
        *  Thank you very much for using Q-Chem.  Have a nice day.  *
