 Q-Chem 5.4, Q-Chem, Inc., Pleasanton, CA (2021)
 Q-Chem 5.4.0 for Intel X86 EM64T Linux

User input:
--------------------------------------------------------------
$molecule
-2 1
N                 -3.4330760000      1.6096380000      0.6423390000
C                 -2.8512930000      0.3416850000      0.3674620000
C                 -3.6698940000     -0.7664150000      0.3016760000
C                 -3.1407720000     -2.0562210000      0.0600430000
C                 -1.7816900000     -2.2618570000     -0.0540180000
N                 -1.3061570000     -3.5736720000     -0.3263120000
C                 -0.8652770000     -1.1436600000      0.0548150000
C                  0.5598050000     -1.3542440000      0.0400960000
O                  1.0644300000     -2.5749740000     -0.0182300000
C                  1.4208430000     -0.2003750000      0.0904120000
C                  2.8620250000     -0.3514930000      0.1382010000
N                  3.4585230000     -1.6333300000      0.2867760000
C                  3.6763830000      0.7605090000      0.0865970000
C                  3.1342060000      2.0621380000     -0.0311660000
C                  1.7709690000      2.2715230000     -0.0335970000
N                  1.2799520000      3.5972060000     -0.1854430000
C                  0.8621350000      1.1464620000      0.0677370000
C                 -0.5597350000      1.3542250000      0.1702040000
O                 -1.0641170000      2.5748610000      0.2301650000
C                 -1.4176900000      0.1974790000      0.2062670000
H                 -2.7125480000      2.3295590000      0.4656100000
H                 -4.2736130000      1.7531860000      0.0955320000
H                 -4.7408550000     -0.6377080000      0.4529200000
H                 -3.8117330000     -2.9068740000     -0.0522380000
H                 -1.7784790000     -4.2613130000      0.2482520000
H                 -0.2817770000     -3.5704410000     -0.1871570000
H                  4.2587470000     -1.7384590000     -0.3252940000
H                  2.7255640000     -2.3416440000      0.1142410000
H                  4.7551690000      0.6247670000      0.1515620000
H                  3.7973730000      2.9198660000     -0.1357380000
H                  0.2683860000      3.5823510000      0.0274020000
H                  1.7941980000      4.2472280000      0.3968930000
$end

$rem
BASIS  =  6-311++G(d,p)
GUI  =  2
JOB_TYPE  =  SP
METHOD  =  B3LYP
SCF_CONVERGENCE  = 8
SOLVENT_METHOD = sm12
$end

$smx
solvent dimethylformamide
charges CM5
$end

--------------------------------------------------------------

             Standard Nuclear Orientation (Angstroms)
    I     Atom           X                Y                Z
 ----------------------------------------------------------------
    1      N      -3.4330760000     1.6096380000     0.6423390000
    2      C      -2.8512930000     0.3416850000     0.3674620000
    3      C      -3.6698940000    -0.7664150000     0.3016760000
    4      C      -3.1407720000    -2.0562210000     0.0600430000
    5      C      -1.7816900000    -2.2618570000    -0.0540180000
    6      N      -1.3061570000    -3.5736720000    -0.3263120000
    7      C      -0.8652770000    -1.1436600000     0.0548150000
    8      C       0.5598050000    -1.3542440000     0.0400960000
    9      O       1.0644300000    -2.5749740000    -0.0182300000
   10      C       1.4208430000    -0.2003750000     0.0904120000
   11      C       2.8620250000    -0.3514930000     0.1382010000
   12      N       3.4585230000    -1.6333300000     0.2867760000
   13      C       3.6763830000     0.7605090000     0.0865970000
   14      C       3.1342060000     2.0621380000    -0.0311660000
   15      C       1.7709690000     2.2715230000    -0.0335970000
   16      N       1.2799520000     3.5972060000    -0.1854430000
   17      C       0.8621350000     1.1464620000     0.0677370000
   18      C      -0.5597350000     1.3542250000     0.1702040000
   19      O      -1.0641170000     2.5748610000     0.2301650000
   20      C      -1.4176900000     0.1974790000     0.2062670000
   21      H      -2.7125480000     2.3295590000     0.4656100000
   22      H      -4.2736130000     1.7531860000     0.0955320000
   23      H      -4.7408550000    -0.6377080000     0.4529200000
   24      H      -3.8117330000    -2.9068740000    -0.0522380000
   25      H      -1.7784790000    -4.2613130000     0.2482520000
   26      H      -0.2817770000    -3.5704410000    -0.1871570000
   27      H       4.2587470000    -1.7384590000    -0.3252940000
   28      H       2.7255640000    -2.3416440000     0.1142410000
   29      H       4.7551690000     0.6247670000     0.1515620000
   30      H       3.7973730000     2.9198660000    -0.1357380000
   31      H       0.2683860000     3.5823510000     0.0274020000
   32      H       1.7941980000     4.2472280000     0.3968930000
 ----------------------------------------------------------------

   15    -910.4333720230      4.38e-09  Convergence criterion met
 Total energy in the final basis set =     -910.7102016479

                    Orbital Energies (a.u.)
 --------------------------------------------------------------

 Alpha MOs
 -- Occupied --
-19.0436 -19.0436 -14.2900 -14.2900 -14.2899 -14.2899 -10.2018 -10.2018
-10.1983 -10.1983 -10.1982 -10.1982 -10.1636 -10.1635 -10.1632 -10.1632
-10.1582 -10.1582 -10.1578 -10.1577  -0.9642  -0.9613  -0.9004  -0.8905
 -0.8902  -0.8814  -0.8188  -0.8007  -0.7670  -0.7260  -0.7103  -0.6953
 -0.6540  -0.6247  -0.6201  -0.5656  -0.5454  -0.5415  -0.5201  -0.4998
 -0.4934  -0.4802  -0.4679  -0.4599  -0.4580  -0.4516  -0.4370  -0.4235
 -0.4202  -0.4048  -0.3983  -0.3799  -0.3769  -0.3741  -0.3701  -0.3655
 -0.3531  -0.3516  -0.3434  -0.3324  -0.3176  -0.3050  -0.2704  -0.2590
 -0.2413  -0.2361  -0.2245  -0.2127  -0.1948  -0.1841  -0.1207

          Ground-State Mulliken Net Atomic Charges

     Atom                 Charge (a.u.)
  ----------------------------------------
      1 N                    -0.240983
      2 C                    -0.570902
      3 C                     1.592834
      4 C                     1.588259
      5 C                    -0.571210
      6 N                    -0.241090
      7 C                    -0.932051
      8 C                    -2.371854
      9 O                    -0.299768
     10 C                    -0.939148
     11 C                    -0.561655
     12 N                    -0.242420
     13 C                     1.604306
     14 C                     1.598459
     15 C                    -0.562682
     16 N                    -0.241918
     17 C                    -0.938308
     18 C                    -2.379349
     19 O                    -0.297967
     20 C                    -0.940859
     21 H                     0.309317
     22 H                     0.363394
     23 H                     0.313504
     24 H                     0.313700
     25 H                     0.363550
     26 H                     0.309852
     27 H                     0.363722
     28 H                     0.309950
     29 H                     0.314555
     30 H                     0.313670
     31 H                     0.309566
     32 H                     0.363526
  ----------------------------------------
  Sum of atomic charges =    -2.000000

                    Cartesian Multipole Moments
 -----------------------------------------------------------------
    Charge (ESU x 10^10)
                -9.6064
    Dipole Moment (Debye)
         X       0.0193      Y      -0.0030      Z      -1.0104
       Tot       1.0105
    Quadrupole Moments (Debye-Ang)
        XX    -170.7200     XY       0.5337     YY    -171.8218
        XZ       1.2228     YZ      -1.1610     ZZ    -137.8297

 Total job time:  940.66s(wall), 7198.95s(cpu)
        *  Thank you very much for using Q-Chem.  Have a nice day.  *
