 Q-Chem 5.4, Q-Chem, Inc., Pleasanton, CA (2021)
 Q-Chem 5.4.0 for Intel X86 EM64T Linux

User input:
--------------------------------------------------------------
$molecule
-1 2
C                  4.8943170000     -1.0910130000      0.0375460000
C                  3.5318330000     -1.0927410000     -0.6002200000
O                  3.2992660000     -0.9165980000     -1.7672800000
O                  2.5799470000     -1.3802440000      0.3338340000
C                  1.2408530000     -1.0946320000      0.0480130000
C                  0.4272220000     -2.1805160000     -0.1883720000
C                 -0.9421180000     -1.9862420000     -0.3909350000
C                 -1.4641930000     -0.7129140000     -0.3354560000
O                 -2.8235360000     -0.5917140000     -0.6419800000
C                 -3.7063290000     -0.3177050000      0.3614120000
C                 -5.0087600000      0.1643190000     -0.2168740000
O                 -3.4735120000     -0.4886640000      1.5291940000
C                 -0.6660340000      0.4286410000     -0.0823630000
C                 -1.2542880000      1.7853440000     -0.0080090000
O                 -2.4895740000      2.0094660000     -0.1288220000
C                 -0.3310710000      2.8585710000      0.2273560000
C                  1.0145190000      2.6717870000      0.3930600000
C                  1.6459650000      1.3842930000      0.3366780000
O                  2.8947630000      1.2698180000      0.4713710000
C                  0.7475790000      0.2313410000      0.1004210000
H                  5.6627510000     -1.1454660000     -0.7325280000
H                  4.9802750000     -0.1530550000      0.5903570000
H                  4.9951330000     -1.9181110000      0.7433070000
H                  0.8651670000     -3.1710140000     -0.2125910000
H                 -1.6053270000     -2.8187300000     -0.5923980000
H                 -5.2841310000     -0.4201510000     -1.0971760000
H                 -4.8501780000      1.1997840000     -0.5257600000
H                 -5.7904930000      0.1130590000      0.5399130000
H                 -0.7691390000      3.8509220000      0.2771940000
H                  1.6790930000      3.5121660000      0.5698470000
$end

$rem
BASIS  =  6-311++G(d,p)
GUI  =  2
JOB_TYPE  =  SP
METHOD  =  B3LYP
SCF_CONVERGENCE  = 8
SOLVENT_METHOD = sm12
$end

$smx
solvent dimethylformamide
charges CM5
$end

--------------------------------------------------------------

             Standard Nuclear Orientation (Angstroms)
    I     Atom           X                Y                Z
 ----------------------------------------------------------------
    1      C       4.8943170000    -1.0910130000     0.0375460000
    2      C       3.5318330000    -1.0927410000    -0.6002200000
    3      O       3.2992660000    -0.9165980000    -1.7672800000
    4      O       2.5799470000    -1.3802440000     0.3338340000
    5      C       1.2408530000    -1.0946320000     0.0480130000
    6      C       0.4272220000    -2.1805160000    -0.1883720000
    7      C      -0.9421180000    -1.9862420000    -0.3909350000
    8      C      -1.4641930000    -0.7129140000    -0.3354560000
    9      O      -2.8235360000    -0.5917140000    -0.6419800000
   10      C      -3.7063290000    -0.3177050000     0.3614120000
   11      C      -5.0087600000     0.1643190000    -0.2168740000
   12      O      -3.4735120000    -0.4886640000     1.5291940000
   13      C      -0.6660340000     0.4286410000    -0.0823630000
   14      C      -1.2542880000     1.7853440000    -0.0080090000
   15      O      -2.4895740000     2.0094660000    -0.1288220000
   16      C      -0.3310710000     2.8585710000     0.2273560000
   17      C       1.0145190000     2.6717870000     0.3930600000
   18      C       1.6459650000     1.3842930000     0.3366780000
   19      O       2.8947630000     1.2698180000     0.4713710000
   20      C       0.7475790000     0.2313410000     0.1004210000
   21      H       5.6627510000    -1.1454660000    -0.7325280000
   22      H       4.9802750000    -0.1530550000     0.5903570000
   23      H       4.9951330000    -1.9181110000     0.7433070000
   24      H       0.8651670000    -3.1710140000    -0.2125910000
   25      H      -1.6053270000    -2.8187300000    -0.5923980000
   26      H      -5.2841310000    -0.4201510000    -1.0971760000
   27      H      -4.8501780000     1.1997840000    -0.5257600000
   28      H      -5.7904930000     0.1130590000     0.5399130000
   29      H      -0.7691390000     3.8509220000     0.2771940000
   30      H       1.6790930000     3.5121660000     0.5698470000
 ----------------------------------------------------------------

   16    -991.2164686013      8.74e-09  Convergence criterion met
 Total energy in the final basis set =     -991.3015438056

                    Orbital Energies (a.u.)
 --------------------------------------------------------------

 Alpha MOs
 -- Occupied --
-19.1706 -19.1706 -19.1132 -19.1132 -19.0784 -19.0784 -10.3072 -10.3072
-10.2455 -10.2455 -10.2302 -10.2302 -10.1957 -10.1953 -10.1877 -10.1872
-10.1714 -10.1714 -10.1705 -10.1699  -1.1134  -1.1132  -1.0311  -1.0305
 -1.0039  -1.0018  -0.8733  -0.8155  -0.7876  -0.7583  -0.7546  -0.7285
 -0.6880  -0.6571  -0.6369  -0.6106  -0.5993  -0.5290  -0.5199  -0.5137
 -0.4947  -0.4920  -0.4853  -0.4838  -0.4751  -0.4673  -0.4617  -0.4429
 -0.4304  -0.4265  -0.4168  -0.4115  -0.4093  -0.4056  -0.3932  -0.3916
 -0.3832  -0.3813  -0.3751  -0.3690  -0.3687  -0.3535  -0.3229  -0.3201
 -0.2858  -0.2843  -0.2822  -0.2669  -0.2556  -0.2437  -0.2382  -0.1583

 Beta MOs
 -- Occupied --
-19.1706 -19.1706 -19.1132 -19.1132 -19.0715 -19.0715 -10.3072 -10.3072
-10.2454 -10.2454 -10.2291 -10.2291 -10.1951 -10.1947 -10.1872 -10.1867
-10.1714 -10.1714 -10.1691 -10.1684  -1.1133  -1.1131  -1.0309  -1.0304
 -0.9923  -0.9898  -0.8716  -0.8101  -0.7868  -0.7562  -0.7543  -0.7276
 -0.6796  -0.6567  -0.6331  -0.6083  -0.5987  -0.5273  -0.5173  -0.5122
 -0.4936  -0.4918  -0.4847  -0.4833  -0.4731  -0.4668  -0.4602  -0.4424
 -0.4292  -0.4208  -0.4145  -0.4090  -0.4054  -0.4022  -0.3894  -0.3875
 -0.3797  -0.3781  -0.3689  -0.3670  -0.3522  -0.3468  -0.3220  -0.3183
 -0.2855  -0.2842  -0.2610  -0.2512  -0.2491  -0.2375  -0.2321

          Ground-State Mulliken Net Atomic Charges

     Atom                 Charge (a.u.)    Spin (a.u.)
  --------------------------------------------------------
      1 C                     0.061014       0.004505
      2 C                    -0.271632      -0.002834
      3 O                    -0.271539      -0.000225
      4 O                     0.048494      -0.002277
      5 C                    -0.445603       0.042687
      6 C                     1.322719       0.031481
      7 C                     1.320419       0.031478
      8 C                    -0.449296       0.042612
      9 O                     0.048098      -0.002258
     10 C                    -0.269044      -0.002838
     11 C                     0.059639       0.004503
     12 O                    -0.271574      -0.000241
     13 C                    -0.939936       0.030161
     14 C                    -0.759682       0.059000
     15 O                    -0.300874       0.253223
     16 C                    -0.108068       0.097386
     17 C                    -0.108647       0.097407
     18 C                    -0.756766       0.059002
     19 O                    -0.300223       0.253292
     20 C                    -0.951291       0.029974
     21 H                     0.213925      -0.000224
     22 H                     0.188400      -0.000715
     23 H                     0.227947       0.000387
     24 H                     0.322599      -0.003008
     25 H                     0.322565      -0.003000
     26 H                     0.227762       0.000388
     27 H                     0.188511      -0.000720
     28 H                     0.213922      -0.000223
     29 H                     0.219099      -0.009466
     30 H                     0.219061      -0.009459
  --------------------------------------------------------
  Sum of atomic charges =    -1.000000

                    Cartesian Multipole Moments
 -----------------------------------------------------------------
    Charge (ESU x 10^10)
                -4.8032
    Dipole Moment (Debye)
         X      -0.6320      Y      -5.1230      Z      -0.4827
       Tot       5.1843
    Quadrupole Moments (Debye-Ang)
        XX    -141.7706     XY       0.5395     YY    -124.9646
        XZ      12.4008     YZ      -0.3681     ZZ    -133.0129

 Total job time:  817.57s(wall), 6353.38s(cpu)
        *  Thank you very much for using Q-Chem.  Have a nice day.  *
