 Q-Chem 5.4, Q-Chem, Inc., Pleasanton, CA (2021)
 Q-Chem 5.4.0 for Intel X86 EM64T Linux

User input:
--------------------------------------------------------------
$molecule
-2 1
C                 -1.2954710000      2.1049270000      0.5864480000
C                 -2.4965310000      1.4063430000      0.2286040000
C                 -2.6246850000      0.1274750000     -0.3090710000
C                 -1.4829040000     -0.6947020000     -0.5852750000
C                 -0.2461600000     -0.0538830000     -0.2498650000
C                 -0.1942360000      1.2306760000      0.2858350000
O                 -1.5619940000     -1.8891130000     -1.0854920000
H                 -3.6065920000     -0.2758510000     -0.5320500000
O                 -1.2115220000      3.2833500000      1.0794100000
Cl                 1.4594860000      1.8894220000      0.6520820000
Br                -4.1837130000      2.4052860000      0.5472250000
H                  0.6746330000     -0.6015600000     -0.4251820000
$end

$rem
BASIS  =  6-311++G(d,p)
GUI  =  2
JOB_TYPE  =  SP
METHOD  =  B3LYP
SCF_CONVERGENCE  = 8
SOLVENT_METHOD = sm12
$end

$smx
solvent dimethylformamide
charges CM5
$end

--------------------------------------------------------------

             Standard Nuclear Orientation (Angstroms)
    I     Atom           X                Y                Z
 ----------------------------------------------------------------
    1      C      -1.2954710000     2.1049270000     0.5864480000
    2      C      -2.4965310000     1.4063430000     0.2286040000
    3      C      -2.6246850000     0.1274750000    -0.3090710000
    4      C      -1.4829040000    -0.6947020000    -0.5852750000
    5      C      -0.2461600000    -0.0538830000    -0.2498650000
    6      C      -0.1942360000     1.2306760000     0.2858350000
    7      O      -1.5619940000    -1.8891130000    -1.0854920000
    8      H      -3.6065920000    -0.2758510000    -0.5320500000
    9      O      -1.2115220000     3.2833500000     1.0794100000
   10      Cl      1.4594860000     1.8894220000     0.6520820000
   11      Br     -4.1837130000     2.4052860000     0.5472250000
   12      H       0.6746330000    -0.6015600000    -0.4251820000
 ----------------------------------------------------------------

   17   -3414.7288092217      7.72e-09  Convergence criterion met
 Total energy in the final basis set =    -3415.0060716321

                    Orbital Energies (a.u.)
 --------------------------------------------------------------

 Alpha MOs
 -- Occupied --
********-101.5300 -62.4569 -56.2772 -56.2738 -56.2736 -19.0216 -19.0191
-10.1969 -10.1945 -10.1922 -10.1882 -10.1455 -10.1454  -9.4427  -8.6650
 -7.2067  -7.1982  -7.1976  -6.4953  -6.4841  -6.4835  -2.6064  -2.6030
 -2.6026  -2.5939  -2.5939  -0.9414  -0.9317  -0.8380  -0.8035  -0.7544
 -0.6920  -0.6651  -0.5613  -0.5429  -0.4559  -0.4497  -0.4124  -0.3860
 -0.3828  -0.3629  -0.3447  -0.3352  -0.3260  -0.3162  -0.2891  -0.2796
 -0.2653  -0.2287  -0.2200  -0.1997  -0.1989  -0.1284

          Ground-State Mulliken Net Atomic Charges

     Atom                 Charge (a.u.)
  ----------------------------------------
      1 C                    -1.639389
      2 C                     1.798094
      3 C                    -1.016485
      4 C                    -1.698184
      5 C                    -1.449540
      6 C                     1.773714
      7 O                    -0.488664
      8 H                     0.016099
      9 O                    -0.315973
     10 Cl                    0.707741
     11 Br                    0.301729
     12 H                     0.010858
  ----------------------------------------
  Sum of atomic charges =    -2.000000

                    Cartesian Multipole Moments
 -----------------------------------------------------------------
    Charge (ESU x 10^10)
                -9.6064
    Dipole Moment (Debye)
         X      13.7187      Y      -8.2465      Z      -0.5906
       Tot      16.0174
    Quadrupole Moments (Debye-Ang)
        XX    -128.5724     XY      10.7316     YY    -143.9865
        XZ      -0.8389     YZ     -21.3293     ZZ     -95.6064

 Total job time:  146.82s(wall), 922.31s(cpu)
        *  Thank you very much for using Q-Chem.  Have a nice day.  *
