 Q-Chem 5.4, Q-Chem, Inc., Pleasanton, CA (2021)
 Q-Chem 5.4.0 for Intel X86 EM64T Linux

User input:
--------------------------------------------------------------
$molecule
0 1
Cl                 2.9875740000      2.8527520000      0.3363760000
C                  2.6320530000      1.1413480000      0.2643020000
C                  3.7413060000      0.2985990000      0.3449430000
C                  3.5842240000     -1.0803480000      0.2985710000
C                  2.3144800000     -1.6264500000      0.1710380000
C                  1.1995650000     -0.7939240000      0.0896800000
C                 -0.1337920000     -1.4664010000     -0.0464120000
O                 -0.2165250000     -2.6831350000     -0.0822090000
C                 -1.3387340000     -0.6065830000     -0.1350460000
C                 -2.5990320000     -1.2005600000     -0.2625390000
C                 -3.7357300000     -0.4073790000     -0.3467190000
C                 -3.6210640000      0.9852310000     -0.3040720000
C                 -2.3721180000      1.5809360000     -0.1774940000
C                 -1.2211670000      0.7904150000     -0.0919500000
C                  0.1035470000      1.4753220000      0.0435630000
O                  0.1518480000      2.6908590000      0.0763030000
C                  1.3300390000      0.6168230000      0.1343800000
H                  4.7244620000      0.7403280000      0.4441600000
H                  4.4550020000     -1.7225400000      0.3623380000
H                  2.1577530000     -2.6965160000      0.1319320000
H                 -2.6603890000     -2.2812780000     -0.2931430000
H                 -4.7116910000     -0.8687430000     -0.4454990000
H                 -4.5088980000      1.6038500000     -0.3698780000
H                 -2.2627130000      2.6573930000     -0.1426240000
$end
$rem
MAX_SCF_CYCLES=200
BASIS  =  6-311++G(d,p)
GUI  =  2
JOB_TYPE  =  SP
METHOD  =  B3LYP
SOLVENT_METHOD = COSMO
$end
$solvent
dielectric 37.219
opticaldielectric 1.43
$end

--------------------------------------------------------------

             Standard Nuclear Orientation (Angstroms)
    I     Atom           X                Y                Z
 ----------------------------------------------------------------
    1      Cl      3.0914103496    -1.8905377496    -0.0000866338
    2      C       2.3799255674    -0.2923253441    -0.0000107926
    3      C       3.2904656373     0.7650713821    -0.0001132932
    4      C       2.8442098038     2.0800526272    -0.0000686359
    5      C       1.4819713599     2.3466014812     0.0000598808
    6      C       0.5637105982     1.2980065686     0.0001298882
    7      C      -0.8877316891     1.6747060831     0.0001272963
    8      O      -1.2266341706     2.8467610767     0.0000928949
    9      C      -1.8885762651     0.5804765298    -0.0000203093
   10      C      -3.2516520682     0.8958152607    -0.0001932500
   11      C      -4.1996250829    -0.1189023737    -0.0001853311
   12      C      -3.7921373378    -1.4561695048    -0.0000182001
   13      C      -2.4398339145    -1.7755877080     0.0000850770
   14      C      -1.4773032998    -0.7604698591     0.0000624635
   15      C      -0.0317220088    -1.1511401507     0.0001528108
   16      O       0.2731308137    -2.3292742038     0.0001069765
   17      C       0.9905777465    -0.0536639124     0.0000953120
   18      H       4.3492417896     0.5402219085    -0.0002413834
   19      H       3.5631002895     2.8911799795    -0.0001601840
   20      H       1.1014827306     3.3596968760     0.0000701431
   21      H      -3.5407543371     1.9394016462    -0.0003194464
   22      H      -5.2554731623     0.1266560153    -0.0003010273
   23      H      -4.5327601836    -2.2478429900     0.0000227365
   24      H      -2.1044604956    -2.8048931552     0.0001854668
 ----------------------------------------------------------------

    9   -1148.5644218940      2.94e-06  Convergence criterion met
 Total energy in the final basis set =    -1148.5644218940
    5   -1148.5788895397      3.52e-06  Convergence criterion met
 Total energy in the final basis set =    -1148.5788895397

                    Orbital Energies (a.u.)
 --------------------------------------------------------------

 Alpha MOs
 -- Occupied --
******** -19.1347 -19.1336 -10.2901 -10.2871 -10.2652 -10.2254 -10.2171
-10.2097 -10.2083 -10.2062 -10.2035 -10.1998 -10.1974 -10.1972 -10.1965
-10.1962  -9.4807  -7.2454  -7.2359  -7.2346  -1.0725  -1.0702  -0.9161
 -0.8897  -0.8623  -0.8153  -0.7788  -0.7749  -0.7640  -0.6924  -0.6704
 -0.6494  -0.6141  -0.5851  -0.5668  -0.5597  -0.5108  -0.4961  -0.4922
 -0.4886  -0.4651  -0.4614  -0.4573  -0.4502  -0.4483  -0.4461  -0.4258
 -0.4090  -0.4013  -0.3878  -0.3789  -0.3775  -0.3682  -0.3517  -0.3359
 -0.2947  -0.2902  -0.2798  -0.2787  -0.2720  -0.2706

          Ground-State Mulliken Net Atomic Charges

     Atom                 Charge (a.u.)
  ----------------------------------------
      1 Cl                    0.399971
      2 C                     1.016164
      3 C                    -0.059314
      4 C                    -0.586229
      5 C                     0.359661
      6 C                     0.213015
      7 C                    -0.790041
      8 O                    -0.284110
      9 C                    -0.029897
     10 C                     0.192802
     11 C                    -0.416995
     12 C                    -0.447032
     13 C                     0.272087
     14 C                     0.046405
     15 C                    -1.264677
     16 O                    -0.194194
     17 C                     0.026703
     18 H                     0.248562
     19 H                     0.234256
     20 H                     0.206587
     21 H                     0.200970
     22 H                     0.226443
     23 H                     0.228268
     24 H                     0.200594
  ----------------------------------------
  Sum of atomic charges =     0.000000

                    Cartesian Multipole Moments
 -----------------------------------------------------------------
    Charge (ESU x 10^10)
                -0.0000
    Dipole Moment (Debye)
         X      -0.9073      Y       1.6780      Z      -0.0007
       Tot       1.9076
    Quadrupole Moments (Debye-Ang)
        XX     -76.2640     XY      18.0069     YY    -113.1322
        XZ       0.0002     YZ       0.0000     ZZ    -106.2054

 Total job time:  52.20s(wall), 393.48s(cpu)
        *  Thank you very much for using Q-Chem.  Have a nice day.  *
