 Q-Chem 5.4, Q-Chem, Inc., Pleasanton, CA (2021)
 Q-Chem 5.4.0 for Intel X86 EM64T Linux

User input:
--------------------------------------------------------------
$molecule
0 1
C                  4.1593240000     -1.3195150000      3.8517880000
C                  3.3650120000     -0.9824240000      4.9492070000
C                  2.4725130000      0.0986620000      4.8570630000
C                  4.0515270000     -0.5723860000      2.6758220000
C                  3.1643330000      0.5063550000      2.5765620000
C                  2.3763410000      0.8308830000      3.6858500000
C                  4.8879100000     -0.9243030000      1.5114420000
C                  4.7440090000     -0.1139800000      0.2698790000
C                  3.8992760000      0.9392570000      0.1574950000
C                  3.0519090000      1.3038080000      1.3175630000
O                  5.6957120000     -1.8473480000      1.5040120000
O                  2.2729530000      2.2457400000      1.2486020000
O                  5.5374740000     -0.5149220000     -0.7395180000
O                  3.3827850000     -1.6334080000      6.1384510000
C                  4.2652760000     -2.7417280000      6.3017470000
C                  3.7620670000      1.7331110000     -1.1106840000
C                  2.6348250000      1.2052350000     -2.0252300000
C                  2.4990470000      2.0301550000     -3.3105260000
C                  1.3402410000      1.6125310000     -4.2325550000
C                  1.5234690000      0.2030580000     -4.8268880000
C                  1.1400450000      2.6389490000     -5.3636380000
C                 -0.0076360000      2.2574160000     -6.3089960000
C                  0.1830110000      0.8490140000     -6.8876650000
C                  0.3771640000     -0.1863560000     -5.7721390000
H                  4.8605280000     -2.1419300000      3.8747420000
H                  1.8667300000      0.3408280000      5.7219580000
H                  1.6906020000      1.6654590000      3.6082530000
H                  6.0493640000     -1.2712900000     -0.3966120000
H                  4.1061190000     -3.0967310000      7.3179390000
H                  5.3095280000     -2.4375370000      6.1804240000
H                  4.0301150000     -3.5426330000      5.5939480000
H                  4.7098980000      1.7068230000     -1.6544850000
H                  3.5475120000      2.7719110000     -0.8479090000
H                  1.6890580000      1.2311360000     -1.4733210000
H                  2.8380400000      0.1570310000     -2.2639230000
H                  3.4401790000      1.9834750000     -3.8752820000
H                  2.3613320000      3.0834100000     -3.0350130000
H                  0.4197600000      1.6033930000     -3.6289920000
H                  1.6077980000     -0.5403590000     -4.0284840000
H                  2.4736870000      0.1755350000     -5.3789350000
H                  2.0725010000      2.7171870000     -5.9401150000
H                  0.9585950000      3.6302940000     -4.9334570000
H                 -0.0892060000      2.9925050000     -7.1167470000
H                 -0.9565150000      2.2953010000     -5.7579130000
H                  1.0644870000      0.8439930000     -7.5424480000
H                 -0.6722190000      0.5763920000     -7.5150740000
H                  0.5664420000     -1.1760560000     -6.2012780000
H                 -0.5525500000     -0.2718150000     -5.1942660000
$end
$rem
MAX_SCF_CYCLES=200
BASIS  =  6-311++G(d,p)
GUI  =  2
JOB_TYPE  =  SP
METHOD  =  B3LYP
SCF_CONVERGENCE = 8
SCF_ALGORITHM = RCA_DIIS
scf_guess = GWH
THRESH = 14
SOLVENT_METHOD = PCM
$end
$pcm
theory = CPCM
$end
$solvent
dielectric 37.219
opticaldielectric 1.43
$end

--------------------------------------------------------------

             Standard Nuclear Orientation (Angstroms)
    I     Atom           X                Y                Z
 ----------------------------------------------------------------
    1      C       4.1593240000    -1.3195150000     3.8517880000
    2      C       3.3650120000    -0.9824240000     4.9492070000
    3      C       2.4725130000     0.0986620000     4.8570630000
    4      C       4.0515270000    -0.5723860000     2.6758220000
    5      C       3.1643330000     0.5063550000     2.5765620000
    6      C       2.3763410000     0.8308830000     3.6858500000
    7      C       4.8879100000    -0.9243030000     1.5114420000
    8      C       4.7440090000    -0.1139800000     0.2698790000
    9      C       3.8992760000     0.9392570000     0.1574950000
   10      C       3.0519090000     1.3038080000     1.3175630000
   11      O       5.6957120000    -1.8473480000     1.5040120000
   12      O       2.2729530000     2.2457400000     1.2486020000
   13      O       5.5374740000    -0.5149220000    -0.7395180000
   14      O       3.3827850000    -1.6334080000     6.1384510000
   15      C       4.2652760000    -2.7417280000     6.3017470000
   16      C       3.7620670000     1.7331110000    -1.1106840000
   17      C       2.6348250000     1.2052350000    -2.0252300000
   18      C       2.4990470000     2.0301550000    -3.3105260000
   19      C       1.3402410000     1.6125310000    -4.2325550000
   20      C       1.5234690000     0.2030580000    -4.8268880000
   21      C       1.1400450000     2.6389490000    -5.3636380000
   22      C      -0.0076360000     2.2574160000    -6.3089960000
   23      C       0.1830110000     0.8490140000    -6.8876650000
   24      C       0.3771640000    -0.1863560000    -5.7721390000
   25      H       4.8605280000    -2.1419300000     3.8747420000
   26      H       1.8667300000     0.3408280000     5.7219580000
   27      H       1.6906020000     1.6654590000     3.6082530000
   28      H       6.0493640000    -1.2712900000    -0.3966120000
   29      H       4.1061190000    -3.0967310000     7.3179390000
   30      H       5.3095280000    -2.4375370000     6.1804240000
   31      H       4.0301150000    -3.5426330000     5.5939480000
   32      H       4.7098980000     1.7068230000    -1.6544850000
   33      H       3.5475120000     2.7719110000    -0.8479090000
   34      H       1.6890580000     1.2311360000    -1.4733210000
   35      H       2.8380400000     0.1570310000    -2.2639230000
   36      H       3.4401790000     1.9834750000    -3.8752820000
   37      H       2.3613320000     3.0834100000    -3.0350130000
   38      H       0.4197600000     1.6033930000    -3.6289920000
   39      H       1.6077980000    -0.5403590000    -4.0284840000
   40      H       2.4736870000     0.1755350000    -5.3789350000
   41      H       2.0725010000     2.7171870000    -5.9401150000
   42      H       0.9585950000     3.6302940000    -4.9334570000
   43      H      -0.0892060000     2.9925050000    -7.1167470000
   44      H      -0.9565150000     2.2953010000    -5.7579130000
   45      H       1.0644870000     0.8439930000    -7.5424480000
   46      H      -0.6722190000     0.5763920000    -7.5150740000
   47      H       0.5664420000    -1.1760560000    -6.2012780000
   48      H      -0.5525500000    -0.2718150000    -5.1942660000
 ----------------------------------------------------------------

   98   -1077.8088050793      8.10E-09 Convergence criterion met
 Total energy in the final basis set = -1077.80880508

                    Orbital Energies (a.u.)
 --------------------------------------------------------------

 Alpha MOs
 -- Occupied --
-19.1763 -19.1727 -19.1495 -19.1270 -10.2934 -10.2787 -10.2647 -10.2610
-10.2237 -10.2128 -10.2023 -10.2021 -10.1986 -10.1981 -10.1950 -10.1741
-10.1644 -10.1627 -10.1574 -10.1558 -10.1557 -10.1553 -10.1544 -10.1541
 -1.1065  -1.0881  -1.0663  -1.0606  -0.8912  -0.8428  -0.8295  -0.7992
 -0.7808  -0.7751  -0.7434  -0.7335  -0.7166  -0.7020  -0.6691  -0.6497
 -0.6265  -0.6069  -0.6056  -0.5940  -0.5740  -0.5692  -0.5468  -0.5451
 -0.5222  -0.5120  -0.5096  -0.4813  -0.4719  -0.4715  -0.4687  -0.4662
 -0.4576  -0.4502  -0.4437  -0.4352  -0.4313  -0.4274  -0.4245  -0.4190
 -0.4166  -0.4120  -0.3973  -0.3931  -0.3870  -0.3801  -0.3786  -0.3715
 -0.3631  -0.3519  -0.3487  -0.3417  -0.3392  -0.3356  -0.3308  -0.3216
 -0.3087  -0.3038  -0.2931  -0.2889  -0.2851  -0.2776  -0.2650  -0.2440

          Ground-State Mulliken Net Atomic Charges

     Atom                 Charge (a.u.)
  ----------------------------------------
      1 C                     0.994377
      2 C                    -0.969131
      3 C                    -0.460247
      4 C                     0.884818
      5 C                    -0.494191
      6 C                     0.237095
      7 C                    -0.596797
      8 C                    -0.738220
      9 C                     1.622001
     10 C                    -1.052240
     11 O                    -0.315593
     12 O                    -0.298368
     13 O                    -0.228880
     14 O                    -0.183757
     15 C                    -0.372635
     16 C                     0.014247
     17 C                    -0.554037
     18 C                    -0.749529
     19 C                     0.979251
     20 C                    -0.487709
     21 C                    -0.472409
     22 C                    -0.328984
     23 C                    -0.398724
     24 C                    -0.357134
     25 H                     0.200901
     26 H                     0.243625
     27 H                     0.214297
     28 H                     0.324894
     29 H                     0.207609
     30 H                     0.186573
     31 H                     0.186067
     32 H                     0.239390
     33 H                     0.223416
     34 H                     0.184043
     35 H                     0.171087
     36 H                     0.124370
     37 H                     0.143590
     38 H                     0.150474
     39 H                     0.144188
     40 H                     0.160626
     41 H                     0.155942
     42 H                     0.145896
     43 H                     0.180285
     44 H                     0.131207
     45 H                     0.124857
     46 H                     0.174447
     47 H                     0.169091
     48 H                     0.139923
  ----------------------------------------
  Sum of atomic charges =     0.000000

                    Cartesian Multipole Moments
 -----------------------------------------------------------------
    Charge (ESU x 10^10)
                 0.0000
    Dipole Moment (Debye)
         X       1.2388      Y      -3.3792      Z       2.7734
       Tot       4.5437
    Quadrupole Moments (Debye-Ang)
        XX    -138.5903     XY     -10.5232     YY    -145.9432
        XZ      14.8715     YZ     -13.8344     ZZ    -122.1875

 Total job time:  3217.96s(wall), 19817.45s(cpu)
        *  Thank you very much for using Q-Chem.  Have a nice day.  *
