 Gaussian 16, Revision A.03,
 Gaussian 16:  ES64L-G16RevA.03 25-Dec-2016

 ----------------------------------------------------------------
 #P UB3LYP/6-311++G(d,p) SCRF=(PCM,Solvent=n,n-DiMethylFormamide)
 ----------------------------------------------------------------

 ------------------
 Quinone PCM in DMF
 ------------------
 Symbolic Z-matrix:
 Charge =  0 Multiplicity = 1

                         Standard orientation:
 ---------------------------------------------------------------------
 Center     Atomic      Atomic             Coordinates (Angstroms)
 Number     Number       Type             X           Y           Z
 ---------------------------------------------------------------------
      1          6           0       -4.289266   -1.565122    0.055260
      2          6           0       -2.981266   -0.820862    0.029188
      3          6           0       -2.953067    0.553579    0.054605
      4          6           0       -1.755729    1.283306    0.018099
      5         17           0       -1.963530    3.023171    0.063259
      6          6           0       -0.526754    0.626052   -0.033849
      7          6           0        0.767353    1.382350   -0.095735
      8          8           0        0.812026    2.594791   -0.208399
      9          6           0        2.035608    0.603923   -0.019884
     10          6           0        3.252275    1.294779    0.014277
     11          6           0        4.448924    0.593544    0.078326
     12          6           0        4.441731   -0.805163    0.100883
     13          6           0        3.238358   -1.496465    0.060383
     14          6           0        2.028154   -0.794536    0.002826
     15          6           0        0.751166   -1.552032   -0.041434
     16          8           0        0.797962   -2.788511   -0.063496
     17          6           0       -0.520405   -0.808502   -0.040902
     18          6           0       -1.747737   -1.534740   -0.023114
     19          7           0       -1.784550   -2.891113   -0.061890
     20          1           0       -4.414215   -2.189700   -0.836776
     21          1           0       -4.363747   -2.221619    0.930354
     22          1           0       -5.129221   -0.871307    0.093392
     23          1           0       -3.884620    1.104652    0.099253
     24          1           0        3.231989    2.376950   -0.010109
     25          1           0        5.389789    1.131307    0.109219
     26          1           0        5.377201   -1.351103    0.148594
     27          1           0        3.208694   -2.578379    0.072062
     28          1           0       -0.901995   -3.390099   -0.056070
     29          1           0       -2.658012   -3.377739    0.029482
 ---------------------------------------------------------------------

 SCF Done:  E(UB3LYP) =  -1243.28771033     A.U. after   16 cycles

 The electronic state is 1-A.
 Alpha  occ. eigenvalues -- -101.56166 -19.12645 -19.12632 -14.33808 -10.28311
 Alpha  occ. eigenvalues --  -10.28002 -10.25353 -10.25168 -10.21924 -10.21097
 Alpha  occ. eigenvalues --  -10.20918 -10.20600 -10.20524 -10.20258 -10.19720
 Alpha  occ. eigenvalues --  -10.19661 -10.19563 -10.19524 -10.18235  -9.47655
 Alpha  occ. eigenvalues --   -7.24122  -7.23169  -7.23053  -1.06548  -1.06059
 Alpha  occ. eigenvalues --   -0.95162  -0.90408  -0.88777  -0.84737  -0.82147
 Alpha  occ. eigenvalues --   -0.78220  -0.77689  -0.74823  -0.72493  -0.68318
 Alpha  occ. eigenvalues --   -0.66255  -0.64279  -0.60907  -0.58984  -0.57960
 Alpha  occ. eigenvalues --   -0.55106  -0.53885  -0.51274  -0.50262  -0.48013
 Alpha  occ. eigenvalues --   -0.47809  -0.47243  -0.46219  -0.45360  -0.45066
 Alpha  occ. eigenvalues --   -0.44837  -0.44000  -0.43478  -0.42069  -0.41572
 Alpha  occ. eigenvalues --   -0.40058  -0.39445  -0.39124  -0.37823  -0.37419
 Alpha  occ. eigenvalues --   -0.36779  -0.36722  -0.33188  -0.31736  -0.28707
 Alpha  occ. eigenvalues --   -0.28345  -0.27724  -0.27538  -0.26672  -0.22736
 Alpha virt. eigenvalues --   -0.11566  -0.06868  -0.03766  -0.02031  -0.00886
 Alpha virt. eigenvalues --   -0.00101   0.00407   0.01012   0.01688   0.01943
 Alpha virt. eigenvalues --    0.02786   0.03560   0.03639   0.03733   0.04035

  Beta  occ. eigenvalues -- -101.56166 -19.12645 -19.12632 -14.33808 -10.28311
  Beta  occ. eigenvalues --  -10.28002 -10.25353 -10.25168 -10.21924 -10.21097
  Beta  occ. eigenvalues --  -10.20918 -10.20600 -10.20524 -10.20258 -10.19720
  Beta  occ. eigenvalues --  -10.19661 -10.19563 -10.19524 -10.18235  -9.47655
  Beta  occ. eigenvalues --   -7.24122  -7.23169  -7.23053  -1.06548  -1.06059
  Beta  occ. eigenvalues --   -0.95162  -0.90408  -0.88777  -0.84737  -0.82147
  Beta  occ. eigenvalues --   -0.78220  -0.77689  -0.74823  -0.72493  -0.68318
  Beta  occ. eigenvalues --   -0.66255  -0.64279  -0.60907  -0.58984  -0.57960
  Beta  occ. eigenvalues --   -0.55106  -0.53885  -0.51274  -0.50262  -0.48013
  Beta  occ. eigenvalues --   -0.47809  -0.47243  -0.46219  -0.45360  -0.45066
  Beta  occ. eigenvalues --   -0.44837  -0.44000  -0.43478  -0.42069  -0.41572
  Beta  occ. eigenvalues --   -0.40058  -0.39445  -0.39124  -0.37823  -0.37419
  Beta  occ. eigenvalues --   -0.36779  -0.36722  -0.33188  -0.31736  -0.28707
  Beta  occ. eigenvalues --   -0.28345  -0.27724  -0.27538  -0.26672  -0.22736
  Beta virt. eigenvalues --   -0.11566  -0.06868  -0.03766  -0.02031  -0.00886
  Beta virt. eigenvalues --   -0.00101   0.00407   0.01012   0.01688   0.01943
  Beta virt. eigenvalues --    0.02786   0.03560   0.03639   0.03733   0.04035

 Mulliken charges and spin densities:
               1          2
     1  C   -0.435404   0.000000
     2  C    0.495869  -0.000000
     3  C   -0.807815   0.000000
     4  C    0.927494  -0.000000
     5  Cl   0.398222   0.000000
     6  C    0.511993  -0.000000
     7  C   -1.511382   0.000000
     8  O   -0.184864  -0.000000
     9  C   -0.026331   0.000000
    10  C    0.211815  -0.000000
    11  C   -0.407814   0.000000
    12  C   -0.482072  -0.000000
    13  C    0.200208   0.000000
    14  C   -0.149148   0.000000
    15  C   -0.385914   0.000000
    16  O   -0.309703  -0.000000
    17  C    0.154321   0.000000
    18  C   -0.006429   0.000000
    19  N   -0.397124  -0.000000
    20  H    0.186626   0.000000
    21  H    0.189677  -0.000000
    22  H    0.184342  -0.000000
    23  H    0.208959   0.000000
    24  H    0.179324   0.000000
    25  H    0.207002  -0.000000
    26  H    0.204932   0.000000
    27  H    0.186976   0.000000
    28  H    0.348848   0.000000
    29  H    0.307394   0.000000
 Sum of Mulliken charges =  -0.00000   0.00000

 Dipole moment (field-independent basis, Debye):
    X=             -2.2391    Y=             -4.8550    Z=              0.6414  Tot=              5.3848
 Quadrupole moment (field-independent basis, Debye-Ang):
   XX=            -79.5586   YY=           -124.9962   ZZ=           -119.8803
   XY=             11.9096   XZ=              0.2139   YZ=              0.0172

 Normal termination of Gaussian 16 at Sun Jan 14 01:05:58 2024.
