 Q-Chem 5.4, Q-Chem, Inc., Pleasanton, CA (2021)
 Q-Chem 5.4.0 for Intel X86 EM64T Linux

User input:
--------------------------------------------------------------
$molecule
0 1
C                 -1.4501230000     -2.6074110000      0.9637230000
C                 -2.2887670000     -2.1473870000     -0.2019070000
C                 -1.9865880000     -0.9651080000     -0.7834070000
C                 -0.8719370000     -0.1041010000     -0.3438820000
C                 -0.0680470000     -0.5635220000      0.8146380000
C                 -0.3467790000     -1.7233570000      1.4198200000
O                 -1.6410820000     -3.6745180000      1.5201260000
O                 -0.6242220000      0.9531760000     -0.9052570000
C                 -3.3930650000     -3.0013170000     -0.6906320000
C                 -4.2643220000     -3.6572560000      0.1935080000
C                 -3.6051770000     -3.1422450000     -2.0715010000
C                 -4.6620380000     -3.9058850000     -2.5557700000
C                 -5.3270390000     -4.4111150000     -0.2945350000
C                 -5.5295490000     -4.5399520000     -1.6676970000
H                 -2.5714890000     -0.5740730000     -1.6085340000
H                  0.7405460000      0.0867380000      1.1297250000
H                  0.2185400000     -2.0941750000      2.2677340000
H                 -4.1142590000     -3.5717570000      1.2607270000
H                 -2.9215640000     -2.6702370000     -2.7679430000
H                 -4.8030330000     -4.0119920000     -3.6253530000
H                 -5.9972290000     -4.9025450000      0.4015030000
H                 -6.3536970000     -5.1357000000     -2.0433660000
$end
$rem
MAX_SCF_CYCLES=200
BASIS  =  6-311++G(d,p)
GUI  =  2
JOB_TYPE  =  SP
METHOD  =  B3LYP
SOLVENT_METHOD = PCM
$end
$pcm
theory = CPCM
$end
$solvent
dielectric 37.219
opticaldielectric 1.43
$end

--------------------------------------------------------------

             Standard Nuclear Orientation (Angstroms)
    I     Atom           X                Y                Z
 ----------------------------------------------------------------
    1      C      -1.4501230000    -2.6074110000     0.9637230000
    2      C      -2.2887670000    -2.1473870000    -0.2019070000
    3      C      -1.9865880000    -0.9651080000    -0.7834070000
    4      C      -0.8719370000    -0.1041010000    -0.3438820000
    5      C      -0.0680470000    -0.5635220000     0.8146380000
    6      C      -0.3467790000    -1.7233570000     1.4198200000
    7      O      -1.6410820000    -3.6745180000     1.5201260000
    8      O      -0.6242220000     0.9531760000    -0.9052570000
    9      C      -3.3930650000    -3.0013170000    -0.6906320000
   10      C      -4.2643220000    -3.6572560000     0.1935080000
   11      C      -3.6051770000    -3.1422450000    -2.0715010000
   12      C      -4.6620380000    -3.9058850000    -2.5557700000
   13      C      -5.3270390000    -4.4111150000    -0.2945350000
   14      C      -5.5295490000    -4.5399520000    -1.6676970000
   15      H      -2.5714890000    -0.5740730000    -1.6085340000
   16      H       0.7405460000     0.0867380000     1.1297250000
   17      H       0.2185400000    -2.0941750000     2.2677340000
   18      H      -4.1142590000    -3.5717570000     1.2607270000
   19      H      -2.9215640000    -2.6702370000    -2.7679430000
   20      H      -4.8030330000    -4.0119920000    -3.6253530000
   21      H      -5.9972290000    -4.9025450000     0.4015030000
   22      H      -6.3536970000    -5.1357000000    -2.0433660000
 ----------------------------------------------------------------

    9    -612.6881083213      2.06e-06  Convergence criterion met
 Total energy in the final basis set =     -612.6881083213

                    Orbital Energies (a.u.)
 --------------------------------------------------------------

 Alpha MOs
 -- Occupied --
-19.1471 -19.1425 -10.2931 -10.2867 -10.2260 -10.2119 -10.2110 -10.2066
-10.2023 -10.1872 -10.1861 -10.1846 -10.1831 -10.1826  -1.0791  -1.0719
 -0.8826  -0.8588  -0.8085  -0.7598  -0.7534  -0.7093  -0.6524  -0.6287
 -0.6092  -0.5894  -0.5324  -0.5253  -0.5100  -0.4885  -0.4711  -0.4661
 -0.4544  -0.4490  -0.4412  -0.4318  -0.4302  -0.4226  -0.4073  -0.3841
 -0.3653  -0.3562  -0.3186  -0.3096  -0.2947  -0.2828  -0.2672  -0.2575

          Ground-State Mulliken Net Atomic Charges

     Atom                 Charge (a.u.)
  ----------------------------------------
      1 C                    -1.021692
      2 C                     1.601741
      3 C                    -0.611584
      4 C                    -0.513775
      5 C                     0.135877
      6 C                     0.006864
      7 O                    -0.259502
      8 O                    -0.313178
      9 C                     1.309613
     10 C                    -0.568354
     11 C                    -0.642226
     12 C                    -0.286309
     13 C                    -0.192090
     14 C                    -0.479608
     15 H                     0.246645
     16 H                     0.262222
     17 H                     0.263354
     18 H                     0.206121
     19 H                     0.213512
     20 H                     0.215533
     21 H                     0.219583
     22 H                     0.207253
  ----------------------------------------
  Sum of atomic charges =     0.000000

                    Cartesian Multipole Moments
 -----------------------------------------------------------------
    Charge (ESU x 10^10)
                 0.0000
    Dipole Moment (Debye)
         X      -1.0991      Y      -1.0869      Z      -0.0597
       Tot       1.5469
    Quadrupole Moments (Debye-Ang)
        XX     -66.7067     XY       7.8498     YY     -91.8378
        XZ       7.5597     YZ      10.6304     ZZ     -74.4589

 Total job time:  24.29s(wall), 178.92s(cpu)
        *  Thank you very much for using Q-Chem.  Have a nice day.  *
