 Gaussian 16, Revision A.03,
 Gaussian 16:  ES64L-G16RevA.03 25-Dec-2016

 --------------------------------------
 #P UB3LYP/6-311++G(d,p) nosym opt freq
 --------------------------------------

 -------
 Reduced
 -------
 Symbolic Z-matrix:
 Charge = -2 Multiplicity = 1

 SCF Done:  E(UB3LYP) =  -803.486494744     A.U. after   48 cycles
 Optimization completed.
    -- Stationary point found.
 Normal termination of Gaussian 16 at Wed Dec 27 20:32:25 2023.

 ----------------------------------------------------------------------
 #P Geom=AllCheck Guess=TCheck SCRF=Check GenChk UB3LYP/6-311++G(d,p) F
 req
 ----------------------------------------------------------------------

 Structure from the checkpoint file:  "138-an.chk"
 -------
 Reduced
 -------
 Charge = -2 Multiplicity = 1

                          Input orientation:
 ---------------------------------------------------------------------
 Center     Atomic      Atomic             Coordinates (Angstroms)
 Number     Number       Type             X           Y           Z
 ---------------------------------------------------------------------
      1          6           0        4.703044   -0.673732    0.915081
      2          8           0        4.276360    0.302356   -0.012027
      3          6           0        2.903888    0.460319   -0.184246
      4          6           0        2.530216    1.547920   -1.019137
      5          6           0        1.194902    1.788395   -1.255583
      6          6           0        0.167537    0.989967   -0.696593
      7          6           0       -1.219452    1.306506   -0.990946
      8          8           0       -1.559831    2.288778   -1.736123
      9          6           0       -2.187151    0.416415   -0.376740
     10          6           0       -3.568659    0.631675   -0.601783
     11          6           0       -4.540540   -0.177292   -0.047331
     12          6           0       -4.154280   -1.267088    0.782541
     13          6           0       -2.816469   -1.505436    1.020015
     14          6           0       -1.792746   -0.695404    0.463672
     15          6           0       -0.407986   -1.005660    0.755490
     16          8           0       -0.059843   -1.991094    1.499447
     17          6           0        0.555640   -0.117077    0.140254
     18          6           0        1.942594   -0.347859    0.376083
     19          1           0        4.427797   -1.687357    0.596412
     20          1           0        4.271952   -0.499040    1.910940
     21          1           0        5.791826   -0.604039    0.978087
     22          1           0        3.310017    2.167795   -1.451353
     23          1           0        0.880457    2.612346   -1.888371
     24          1           0       -3.829158    1.471740   -1.238469
     25          1           0       -5.593998    0.016348   -0.240667
     26          1           0       -4.912703   -1.909505    1.226763
     27          1           0       -2.491609   -2.329267    1.647971
     28          1           0        2.178196   -1.190710    1.013687
 ---------------------------------------------------------------------

 SCF Done:  E(UB3LYP) =  -803.486494744     A.U. after    4 cycles

 Alpha  occ. eigenvalues --  -18.93883 -18.80254 -18.79713 -10.02057  -9.99917
 Alpha  occ. eigenvalues --   -9.96035  -9.95445  -9.94318  -9.94219  -9.93978
 Alpha  occ. eigenvalues --   -9.93756  -9.93534  -9.93403  -9.92975  -9.92227
 Alpha  occ. eigenvalues --   -9.92039  -9.91994  -9.91882  -0.84800  -0.72064
 Alpha  occ. eigenvalues --   -0.71339  -0.61432  -0.60911  -0.54402  -0.51624
 Alpha  occ. eigenvalues --   -0.50984  -0.50880  -0.47491  -0.41947  -0.39598
 Alpha  occ. eigenvalues --   -0.37424  -0.35121  -0.31962  -0.30877  -0.29400
 Alpha  occ. eigenvalues --   -0.26160  -0.25805  -0.25601  -0.22893  -0.21641
 Alpha  occ. eigenvalues --   -0.20638  -0.19327  -0.18558  -0.17248  -0.16427
 Alpha  occ. eigenvalues --   -0.16064  -0.15301  -0.14409  -0.13623  -0.13104
 Alpha  occ. eigenvalues --   -0.11194  -0.10950  -0.10249  -0.10083  -0.08308
 Alpha  occ. eigenvalues --   -0.07027  -0.01911  -0.00804  -0.00163   0.01082
 Alpha  occ. eigenvalues --    0.02153   0.02914   0.12184
 Alpha virt. eigenvalues --    0.13497   0.15390   0.17163   0.17296   0.18066
 Alpha virt. eigenvalues --    0.19003   0.19534   0.19654   0.20403   0.21456
 Alpha virt. eigenvalues --    0.21693   0.22447   0.23420   0.24452   0.24523

  Beta  occ. eigenvalues --  -18.93883 -18.80254 -18.79713 -10.02057  -9.99917
  Beta  occ. eigenvalues --   -9.96035  -9.95445  -9.94318  -9.94219  -9.93978
  Beta  occ. eigenvalues --   -9.93756  -9.93534  -9.93403  -9.92975  -9.92227
  Beta  occ. eigenvalues --   -9.92039  -9.91994  -9.91882  -0.84800  -0.72064
  Beta  occ. eigenvalues --   -0.71339  -0.61432  -0.60911  -0.54402  -0.51624
  Beta  occ. eigenvalues --   -0.50984  -0.50880  -0.47491  -0.41947  -0.39598
  Beta  occ. eigenvalues --   -0.37424  -0.35121  -0.31962  -0.30877  -0.29400
  Beta  occ. eigenvalues --   -0.26160  -0.25805  -0.25601  -0.22893  -0.21641
  Beta  occ. eigenvalues --   -0.20638  -0.19327  -0.18558  -0.17248  -0.16427
  Beta  occ. eigenvalues --   -0.16064  -0.15301  -0.14409  -0.13623  -0.13104
  Beta  occ. eigenvalues --   -0.11194  -0.10950  -0.10249  -0.10083  -0.08308
  Beta  occ. eigenvalues --   -0.07027  -0.01911  -0.00804  -0.00163   0.01082
  Beta  occ. eigenvalues --    0.02153   0.02914   0.12184
  Beta virt. eigenvalues --    0.13497   0.15390   0.17163   0.17296   0.18066
  Beta virt. eigenvalues --    0.19003   0.19534   0.19654   0.20403   0.21456
  Beta virt. eigenvalues --    0.21693   0.22447   0.23420   0.24452   0.24523

 Mulliken charges and spin densities:
               1          2
     1  C    0.906866   0.000000
     2  O   -0.223604  -0.000000
     3  C   -1.361230   0.000000
     4  C   -0.746682   0.000000
     5  C    0.084373   0.000000
     6  C    0.376691   0.000000
     7  C   -0.983127  -0.000000
     8  O   -0.474904   0.000000
     9  C    0.244407  -0.000000
    10  C    0.059170  -0.000000
    11  C   -0.427889  -0.000000
    12  C   -0.459141  -0.000000
    13  C    0.003148   0.000000
    14  C    0.408157   0.000000
    15  C   -0.783259   0.000000
    16  O   -0.484029   0.000000
    17  C    0.864834  -0.000000
    18  C    1.380349  -0.000000
    19  H    0.118998  -0.000000
    20  H    0.000897  -0.000000
    21  H   -1.355270  -0.000000
    22  H    0.084153  -0.000000
    23  H    0.140111   0.000000
    24  H    0.131025   0.000000
    25  H    0.078758  -0.000000
    26  H    0.079220   0.000000
    27  H    0.131612  -0.000000
    28  H    0.206363   0.000000
 Sum of Mulliken charges =  -2.00000   0.00000

 Dipole moment (field-independent basis, Debye):
    X=             -3.9184    Y=             -0.4213    Z=             -0.6684  Tot=              3.9973
 Quadrupole moment (field-independent basis, Debye-Ang):
   XX=           -241.7734   YY=           -147.3869   ZZ=           -139.2798
   XY=              7.5921   XZ=            -14.6486   YZ=             20.5303

  Exact polarizability:2126.032-137.987 311.082 256.736-124.522 358.545
 Approx polarizability:********-922.344 536.2251633.645-324.585 674.924

                      1                      2                      3
                      A                      A                      A
 Frequencies --     48.1364                70.2417               122.1048
 Red. masses --      5.8000                 3.8605                 3.9393
 Frc consts  --      0.0079                 0.0112                 0.0346
 IR Inten    --      0.1216                 4.8238                 0.9423

                      4                      5                      6
                      A                      A                      A
 Frequencies --    136.9588               149.2036               165.8619
 Red. masses --      5.1210                 4.4603                 6.7708
 Frc consts  --      0.0566                 0.0585                 0.1097
 IR Inten    --      5.4084                 4.0981                 6.9231

                      7                      8                      9
                      A                      A                      A
 Frequencies --    209.3095               246.8694               284.5800
 Red. masses --      4.0606                 4.4345                 1.5833
 Frc consts  --      0.1048                 0.1592                 0.0755
 IR Inten    --      7.1582                 9.7437                74.8537

                     10                     11                     12
                      A                      A                      A
 Frequencies --    293.8662               334.5302               351.9021
 Red. masses --      6.5090                 2.7503                 6.8045
 Frc consts  --      0.3312                 0.1813                 0.4965
 IR Inten    --      5.9321                52.1353                47.7486

                     13                     14                     15
                      A                      A                      A
 Frequencies --    368.7728               417.1003               429.5111
 Red. masses --      9.9143                 5.5134                 6.3006
 Frc consts  --      0.7944                 0.5651                 0.6848
 IR Inten    --     12.8187                 3.1710                17.1662

                     16                     17                     18
                      A                      A                      A
 Frequencies --    435.7598               468.8690               474.1660
 Red. masses --      4.0561                 5.2002                 3.1918
 Frc consts  --      0.4538                 0.6736                 0.4228
 IR Inten    --      3.3366               223.7344                49.1201

                     19                     20                     21
                      A                      A                      A
 Frequencies --    492.4703               544.6316               568.0183
 Red. masses --      6.5248                 4.3286                 6.3879
 Frc consts  --      0.9324                 0.7565                 1.2143
 IR Inten    --    303.2794                 4.4431                 7.4751

                     22                     23                     24
                      A                      A                      A
 Frequencies --    636.3560               651.5772               669.9384
 Red. masses --      6.8939                 3.1572                 6.2127
 Frc consts  --      1.6448                 0.7897                 1.6429
 IR Inten    --      3.5808                10.5347                 3.5264

                     25                     26                     27
                      A                      A                      A
 Frequencies --    690.7441               696.6363               727.6935
 Red. masses --      1.8587                 6.3424                 3.6365
 Frc consts  --      0.5225                 1.8135                 1.1346
 IR Inten    --     68.6453                 1.1871                 3.2606

                     28                     29                     30
                      A                      A                      A
 Frequencies --    742.3273               753.4019               772.5318
 Red. masses --      6.4641                 2.3429                 1.6639
 Frc consts  --      2.0987                 0.7835                 0.5851
 IR Inten    --     12.4026                 2.3991                14.2192

                     31                     32                     33
                      A                      A                      A
 Frequencies --    794.1126               838.0177               851.2058
 Red. masses --      1.5680                 3.4361                 6.2213
 Frc consts  --      0.5826                 1.4217                 2.6558
 IR Inten    --      8.6575                 0.6940                18.7727

                     34                     35                     36
                      A                      A                      A
 Frequencies --    910.6934               930.5324               957.4988
 Red. masses --      1.6631                 6.6164                 1.2593
 Frc consts  --      0.8127                 3.3755                 0.6802
 IR Inten    --      7.3008                 6.4157                 0.2345

                     37                     38                     39
                      A                      A                      A
 Frequencies --    963.0763               969.9461               981.3713
 Red. masses --      1.3524                 1.3249                 3.9195
 Frc consts  --      0.7390                 0.7344                 2.2241
 IR Inten    --      2.9841                 2.3966               132.6646

                     40                     41                     42
                      A                      A                      A
 Frequencies --   1014.2747              1051.8375              1093.6024
 Red. masses --      2.0484                 3.5626                 2.4476
 Frc consts  --      1.2416                 2.3223                 1.7247
 IR Inten    --    349.3506                84.8042               100.5708

                     43                     44                     45
                      A                      A                      A
 Frequencies --   1099.3143              1124.4662              1141.9921
 Red. masses --      1.7249                 1.6747                 1.6572
 Frc consts  --      1.2282                 1.2476                 1.2734
 IR Inten    --     28.6135                18.8737               317.4335

                     46                     47                     48
                      A                      A                      A
 Frequencies --   1171.8040              1181.8849              1196.7129
 Red. masses --      1.2831                 2.2284                 1.6648
 Frc consts  --      1.0381                 1.8340                 1.4047
 IR Inten    --     63.7000               152.9292               530.9959

                     49                     50                     51
                      A                      A                      A
 Frequencies --   1208.4598              1218.5451              1223.3117
 Red. masses --      1.7418                 2.1534                 5.7828
 Frc consts  --      1.4987                 1.8839                 5.0988
 IR Inten    --     26.1272                 0.9099               137.3183

                     52                     53                     54
                      A                      A                      A
 Frequencies --   1249.3221              1329.3536              1336.4532
 Red. masses --      2.0769                 2.5371                 7.2085
 Frc consts  --      1.9099                 2.6416                 7.5859
 IR Inten    --    105.1684               156.0277               563.3833

                     55                     56                     57
                      A                      A                      A
 Frequencies --   1358.0223              1383.8761              1448.8375
 Red. masses --      7.1445                 2.9055                 2.5470
 Frc consts  --      7.7631                 3.2784                 3.1500
 IR Inten    --    403.5972               445.4146               125.7202

                     58                     59                     60
                      A                      A                      A
 Frequencies --   1462.2158              1463.2735              1471.4875
 Red. masses --      4.1921                 1.6180                 3.2291
 Frc consts  --      5.2808                 2.0412                 4.1195
 IR Inten    --    149.7997              1091.5990              1866.8677

                     61                     62                     63
                      A                      A                      A
 Frequencies --   1481.6819              1487.3049              1492.2359
 Red. masses --      1.1297                 3.4053                 3.0770
 Frc consts  --      1.4613                 4.4381                 4.0369
 IR Inten    --    331.2973               393.5259                39.2822

                     64                     65                     66
                      A                      A                      A
 Frequencies --   1506.3258              1533.7660              1571.6016
 Red. masses --      1.0901                 5.7220                 7.8410
 Frc consts  --      1.4574                 7.9308                11.4105
 IR Inten    --     51.1530               320.6181              3062.3999

                     67                     68                     69
                      A                      A                      A
 Frequencies --   1587.8112              1602.3202              2965.5965
 Red. masses --      5.4622                 6.0957                 1.0353
 Frc consts  --      8.1136                 9.2209                 5.3646
 IR Inten    --    190.2865                98.6923                24.4026

                     70                     71                     72
                      A                      A                      A
 Frequencies --   3017.4146              3074.6765              3094.7751
 Red. masses --      1.1018                 1.0999                 1.0827
 Frc consts  --      5.9106                 6.1264                 6.1096
 IR Inten    --     56.0955               131.4612                36.8257

                     73                     74                     75
                      A                      A                      A
 Frequencies --   3118.1395              3142.9126              3157.7546
 Red. masses --      1.0904                 1.0858                 1.0905
 Frc consts  --      6.2462                 6.3192                 6.4067
 IR Inten    --    283.0254                13.3482                59.0677

                     76                     77                     78
                      A                      A                      A
 Frequencies --   3160.9987              3165.8762              3192.3707
 Red. masses --      1.0914                 1.0928                 1.0881
 Frc consts  --      6.4252                 6.4533                 6.5337
 IR Inten    --    174.7374                54.7929                24.7531

 - Thermochemistry -
 -------------------
 Temperature   298.150 Kelvin.  Pressure   1.00000 Atm.
 Atom     1 has atomic number  6 and mass  12.00000

 Molecular mass:   238.06299 amu.
 Principal axes and moments of inertia in atomic units:
                           1         2         3
     Eigenvalues --  1948.820746532.635998468.40133
           X            0.99759  -0.05541  -0.04171
           Y            0.06935   0.79680   0.60025
           Z           -0.00003  -0.60170   0.79872
 This molecule is an asymmetric top.
 Rotational symmetry number  1.
 Warning -- assumption of classical behavior for rotation
           may cause significant error
 Rotational temperatures (Kelvin)      0.04444     0.01326     0.01023
 Rotational constants (GHZ):           0.92607     0.27627     0.21311
 Zero-point vibrational energy     542704.7 (Joules/Mol)
                                  129.70953 (Kcal/Mol)
 Warning -- explicit consideration of  21 degrees of freedom as
           vibrations may cause significant error
 Vibrational temperatures:     69.26   101.06   175.68   197.05   214.67
          (Kelvin)            238.64   301.15   355.19   409.45   422.81
                              481.31   506.31   530.58   600.11   617.97
                              626.96   674.60   682.22   708.55   783.60
                              817.25   915.57   937.47   963.89   993.83
                             1002.30  1046.99  1068.04  1083.98  1111.50
                             1142.55  1205.72  1224.70  1310.28  1338.83
                             1377.63  1385.65  1395.54  1411.97  1459.32
                             1513.36  1573.45  1581.67  1617.86  1643.07
                             1685.96  1700.47  1721.80  1738.70  1753.21
                             1760.07  1797.50  1912.64  1922.86  1953.89
                             1991.09  2084.55  2103.80  2105.32  2117.14
                             2131.81  2139.90  2146.99  2167.27  2206.75
                             2261.18  2284.51  2305.38  4266.83  4341.39
                             4423.77  4452.69  4486.31  4521.95  4543.30
                             4547.97  4554.99  4593.11

 Zero-point correction=                           0.206705 (Hartree/Particle)
 Thermal correction to Energy=                    0.220575
 Thermal correction to Enthalpy=                  0.221519
 Thermal correction to Gibbs Free Energy=         0.166208
 Sum of electronic and zero-point Energies=           -803.279789
 Sum of electronic and thermal Energies=              -803.265919
 Sum of electronic and thermal Enthalpies=            -803.264975
 Sum of electronic and thermal Free Energies=         -803.320286

                     E (Thermal)             CV                S
                      KCal/Mol        Cal/Mol-Kelvin    Cal/Mol-Kelvin
 Total                  138.413             55.989            116.412
 Electronic               0.000              0.000              0.000
 Translational            0.889              2.981             42.303
 Rotational               0.889              2.981             33.044
 Vibrational            136.636             50.028             41.064
 Vibration     1          0.595              1.978              4.893
 Vibration     2          0.598              1.968              4.147
 Vibration     3          0.610              1.931              3.067
 Vibration     4          0.614              1.916              2.846
 Vibration     5          0.618              1.904              2.682
 Vibration     6          0.624              1.884              2.482
 Vibration     7          0.642              1.827              2.050
 Vibration     8          0.661              1.768              1.753
 Vibration     9          0.683              1.702              1.506
 Vibration    10          0.689              1.685              1.452
 Vibration    11          0.716              1.607              1.238
 Vibration    12          0.728              1.571              1.158
 Vibration    13          0.741              1.536              1.085
 Vibration    14          0.780              1.433              0.902
 Vibration    15          0.791              1.406              0.860
 Vibration    16          0.796              1.392              0.840
 Vibration    17          0.826              1.319              0.741
 Vibration    18          0.831              1.307              0.726
 Vibration    19          0.848              1.267              0.677
 Vibration    20          0.900              1.151              0.555
 Vibration    21          0.924              1.100              0.508

 Optimization completed.
    -- Stationary point found.
 Normal termination of Gaussian 16 at Wed Dec 27 21:10:06 2023.
