 Q-Chem 5.4, Q-Chem, Inc., Pleasanton, CA (2021)
 Q-Chem 5.4.0 for Intel X86 EM64T Linux

User input:
--------------------------------------------------------------
$molecule
-2 1
C                  4.7030440000     -0.6737320000      0.9150810000
O                  4.2763600000      0.3023560000     -0.0120270000
C                  2.9038880000      0.4603190000     -0.1842460000
C                  2.5302160000      1.5479200000     -1.0191370000
C                  1.1949020000      1.7883950000     -1.2555830000
C                  0.1675370000      0.9899670000     -0.6965930000
C                 -1.2194520000      1.3065060000     -0.9909460000
O                 -1.5598310000      2.2887780000     -1.7361230000
C                 -2.1871510000      0.4164150000     -0.3767400000
C                 -3.5686590000      0.6316750000     -0.6017830000
C                 -4.5405400000     -0.1772920000     -0.0473310000
C                 -4.1542800000     -1.2670880000      0.7825410000
C                 -2.8164690000     -1.5054360000      1.0200150000
C                 -1.7927460000     -0.6954040000      0.4636720000
C                 -0.4079860000     -1.0056600000      0.7554900000
O                 -0.0598430000     -1.9910940000      1.4994470000
C                  0.5556400000     -0.1170770000      0.1402540000
C                  1.9425940000     -0.3478590000      0.3760830000
H                  4.4277970000     -1.6873570000      0.5964120000
H                  4.2719520000     -0.4990400000      1.9109400000
H                  5.7918260000     -0.6040390000      0.9780870000
H                  3.3100170000      2.1677950000     -1.4513530000
H                  0.8804570000      2.6123460000     -1.8883710000
H                 -3.8291580000      1.4717400000     -1.2384690000
H                 -5.5939980000      0.0163480000     -0.2406670000
H                 -4.9127030000     -1.9095050000      1.2267630000
H                 -2.4916090000     -2.3292670000      1.6479710000
H                  2.1781960000     -1.1907100000      1.0136870000
$end
$rem
MAX_SCF_CYCLES=200
BASIS  =  6-311++G(d,p)
GUI  =  2
JOB_TYPE  =  SP
METHOD  =  B3LYP
SOLVENT_METHOD = COSMO
$end
$solvent
dielectric 37.219
opticaldielectric 1.43
$end

--------------------------------------------------------------

             Standard Nuclear Orientation (Angstroms)
    I     Atom           X                Y                Z
 ----------------------------------------------------------------
    1      C       4.7684978657    -1.4096029455     0.0913733682
    2      O       4.4008288757    -0.0528185604    -0.0438742174
    3      C       3.0405018448     0.2430701769    -0.0280215153
    4      C       2.7333401197     1.6305829358    -0.0249071323
    5      C       1.4150768309     2.0291073369    -0.0123127658
    6      C       0.3413217951     1.1058603138    -0.0022632861
    7      C      -1.0239096324     1.6023663284     0.0120209804
    8      O      -1.3041704545     2.8503080924     0.0220275847
    9      C      -2.0437362733     0.5699450436     0.0085186118
   10      C      -3.4096605044     0.9437420273     0.0170264537
   11      C      -4.4287450059     0.0121525529     0.0147603166
   12      C      -4.1091866670    -1.3746933525     0.0057854387
   13      C      -2.7882900506    -1.7722630579    -0.0048164259
   14      C      -1.7174118852    -0.8411897758    -0.0056248626
   15      C      -0.3540139530    -1.3310552546    -0.0180618783
   16      O      -0.0662140887    -2.5811562293    -0.0312726973
   17      C       0.6616463431    -0.2990181804    -0.0161145807
   18      C       2.0320616246    -0.6919425235    -0.0255730987
   19      H       4.4272204921    -2.0118951948    -0.7604014165
   20      H       4.3543563138    -1.8495408645     1.0095422838
   21      H       5.8598017217    -1.4446212540     0.1372288549
   22      H       3.5492024489     2.3471596594    -0.0305413886
   23      H       1.1510826825     3.0819542619    -0.0088481678
   24      H      -3.6188053311     2.0091698729     0.0247687467
   25      H      -5.4685325806     0.3337791217     0.0216280758
   26      H      -4.9051035568    -2.1174947793     0.0065463926
   27      H      -2.5139183057    -2.8226064540    -0.0125086332
   28      H       2.2161867419    -1.7589405440    -0.0331978497
 ----------------------------------------------------------------

   36    -803.4866843847      2.51e-06  Convergence criterion met
 Total energy in the final basis set =     -803.4866843847
    6    -803.7605722927      3.35e-06  Convergence criterion met
 Total energy in the final basis set =     -803.7605722927

                    Orbital Energies (a.u.)
 --------------------------------------------------------------

 Alpha MOs
 -- Occupied --
-19.1434 -19.0288 -19.0243 -10.2126 -10.2072 -10.1802 -10.1741 -10.1533
-10.1517 -10.1498 -10.1485 -10.1474 -10.1463 -10.1447 -10.1408 -10.1381
-10.1378 -10.1373  -1.0522  -0.9498  -0.9436  -0.8315  -0.8234  -0.7575
 -0.7292  -0.7241  -0.7198  -0.6798  -0.6370  -0.6074  -0.5867  -0.5634
 -0.5318  -0.5188  -0.5071  -0.4676  -0.4620  -0.4559  -0.4408  -0.4311
 -0.4154  -0.4065  -0.3994  -0.3858  -0.3857  -0.3763  -0.3722  -0.3644
 -0.3544  -0.3376  -0.3331  -0.3262  -0.3228  -0.3158  -0.3033  -0.2870
 -0.2372  -0.2296  -0.2270  -0.2102  -0.2071  -0.2018  -0.1086

          Ground-State Mulliken Net Atomic Charges

     Atom                 Charge (a.u.)
  ----------------------------------------
      1 C                    -0.357285
      2 O                    -0.250785
      3 C                    -0.658786
      4 C                    -0.442690
      5 C                     0.064741
      6 C                     0.170281
      7 C                    -0.565530
      8 O                    -0.684899
      9 C                     0.081348
     10 C                     0.053097
     11 C                    -0.536092
     12 C                    -0.527312
     13 C                    -0.006186
     14 C                     0.297173
     15 C                    -0.559294
     16 O                    -0.709698
     17 C                     0.499849
     18 C                     0.430702
     19 H                     0.165407
     20 H                     0.165377
     21 H                     0.192513
     22 H                     0.204800
     23 H                     0.167585
     24 H                     0.155550
     25 H                     0.176318
     26 H                     0.178327
     27 H                     0.154275
     28 H                     0.141213
  ----------------------------------------
  Sum of atomic charges =    -2.000000

                    Cartesian Multipole Moments
 -----------------------------------------------------------------
    Charge (ESU x 10^10)
                -9.6064
    Dipole Moment (Debye)
         X       6.4399      Y      -2.2268      Z       0.2409
       Tot       6.8183
    Quadrupole Moments (Debye-Ang)
        XX    -136.8768     XY       2.1068     YY    -162.7073
        XZ       1.1180     YZ      -0.6370     ZZ    -117.2474

 Total job time:  167.19s(wall), 1298.41s(cpu)
        *  Thank you very much for using Q-Chem.  Have a nice day.  *
