 Gaussian 16, Revision A.03,
 Gaussian 16:  ES64L-G16RevA.03 25-Dec-2016

 ----------------------------------------------------------------
 #P UB3LYP/6-311++G(d,p) SCRF=(PCM,Solvent=n,n-DiMethylFormamide)
 ----------------------------------------------------------------

 ------------------
 Radical PCM in DMF
 ------------------
 Symbolic Z-matrix:
 Charge = -1 Multiplicity = 2

                         Standard orientation:
 ---------------------------------------------------------------------
 Center     Atomic      Atomic             Coordinates (Angstroms)
 Number     Number       Type             X           Y           Z
 ---------------------------------------------------------------------
      1          6           0        3.165300   -0.641571    1.264979
      2          6           0        2.709913    0.126061   -0.000066
      3          6           0        3.165328   -0.643560   -1.263882
      4          6           0        3.424791    1.491042   -0.001073
      5          6           0        1.176401    0.271449   -0.000079
      6          6           0        0.564271    1.497027   -0.000031
      7          6           0       -0.866013    1.721662    0.000009
      8          8           0       -1.358319    2.875969    0.000066
      9          6           0       -1.670162    0.509340   -0.000017
     10          6           0       -1.088948   -0.734781    0.000001
     11         17           0       -2.068910   -2.193935   -0.000005
     12          6           0        0.357253   -0.946265    0.000149
     13          8           0        0.843648   -2.104614    0.000088
     14         17           0       -3.413535    0.721772   -0.000064
     15          1           0        2.710141   -1.630661    1.298045
     16          1           0        4.256890   -0.750423    1.267260
     17          1           0        2.878408   -0.093432    2.168379
     18          1           0        2.710441   -1.632820   -1.295234
     19          1           0        4.256950   -0.752056   -1.266191
     20          1           0        2.878078   -0.097018   -2.168138
     21          1           0        4.508078    1.330229   -0.001198
     22          1           0        3.175713    2.083454    0.884083
     23          1           0        3.175365    2.082303   -0.886895
     24          1           0        1.140082    2.413928   -0.000106
 ---------------------------------------------------------------------

 SCF Done:  E(UB3LYP) =  -1458.26353916     A.U. after   19 cycles

 The electronic state is 2-A.
 Alpha  occ. eigenvalues -- -101.55496-101.55401 -19.08705 -19.08538 -10.23706
 Alpha  occ. eigenvalues --  -10.23578 -10.23451 -10.23303 -10.18656 -10.18179
 Alpha  occ. eigenvalues --  -10.16694 -10.15291 -10.14805 -10.14802  -9.46949
 Alpha  occ. eigenvalues --   -9.46856  -7.23391  -7.23300  -7.22475  -7.22384
 Alpha  occ. eigenvalues --   -7.22379  -7.22282  -1.01552  -1.01248  -0.89467
 Alpha  occ. eigenvalues --   -0.84742  -0.83493  -0.79228  -0.72323  -0.69009
 Alpha  occ. eigenvalues --   -0.67774  -0.67724  -0.60571  -0.58273  -0.53287
 Alpha  occ. eigenvalues --   -0.50248  -0.47776  -0.45727  -0.44462  -0.44004
 Alpha  occ. eigenvalues --   -0.42959  -0.42753  -0.41773  -0.40705  -0.39956
 Alpha  occ. eigenvalues --   -0.38088  -0.37859  -0.37388  -0.36252  -0.35270
 Alpha  occ. eigenvalues --   -0.34268  -0.33399  -0.32841  -0.32591  -0.32250
 Alpha  occ. eigenvalues --   -0.30399  -0.28164  -0.25427  -0.24905  -0.24663
 Alpha  occ. eigenvalues --   -0.17033
 Alpha virt. eigenvalues --   -0.01688  -0.01151  -0.00137   0.01461   0.01586
 Alpha virt. eigenvalues --    0.02095   0.02489   0.02790   0.03677   0.04076
 Alpha virt. eigenvalues --    0.04308   0.04577   0.05330   0.05971   0.06666

  Beta  occ. eigenvalues -- -101.55491-101.55396 -19.08030 -19.07849 -10.23567
  Beta  occ. eigenvalues --  -10.23448 -10.23306 -10.23159 -10.18661 -10.18083
  Beta  occ. eigenvalues --  -10.16619 -10.15292 -10.14799 -10.14796  -9.46943
  Beta  occ. eigenvalues --   -9.46851  -7.23395  -7.23304  -7.22450  -7.22377
  Beta  occ. eigenvalues --   -7.22360  -7.22280  -1.00395  -1.00055  -0.89176
  Beta  occ. eigenvalues --   -0.84612  -0.83249  -0.78950  -0.72113  -0.68445
  Beta  occ. eigenvalues --   -0.67752  -0.67257  -0.60221  -0.57886  -0.53092
  Beta  occ. eigenvalues --   -0.50045  -0.47463  -0.45564  -0.44290  -0.43464
  Beta  occ. eigenvalues --   -0.42652  -0.42001  -0.41131  -0.40415  -0.38891
  Beta  occ. eigenvalues --   -0.37845  -0.37362  -0.36592  -0.35875  -0.34493
  Beta  occ. eigenvalues --   -0.34158  -0.32865  -0.32520  -0.32288  -0.32194
  Beta  occ. eigenvalues --   -0.30360  -0.25392  -0.24806  -0.24193  -0.24054
  Beta virt. eigenvalues --   -0.09928  -0.01052  -0.00219  -0.00111   0.01610
  Beta virt. eigenvalues --    0.02005   0.02133   0.02844   0.03691   0.04098
  Beta virt. eigenvalues --    0.04332   0.04385   0.04631   0.05371   0.06022

 Mulliken charges and spin densities:
               1          2
     1  C   -0.685277   0.010255
     2  C    0.466842  -0.025414
     3  C   -0.684959   0.010250
     4  C   -0.493985   0.001526
     5  C    0.720095   0.108416
     6  C   -0.397054   0.046790
     7  C   -0.894237   0.093127
     8  O   -0.432852   0.241030
     9  C    0.764716   0.095626
    10  C   -0.067887   0.062720
    11  Cl   0.356345   0.005621
    12  C   -1.190133   0.097851
    13  O   -0.362719   0.253068
    14  Cl   0.324503   0.006892
    15  H    0.179546  -0.001309
    16  H    0.151814   0.000315
    17  H    0.133639   0.000288
    18  H    0.179524  -0.001311
    19  H    0.151802   0.000310
    20  H    0.133612   0.000294
    21  H    0.173920   0.000082
    22  H    0.133420  -0.000243
    23  H    0.133468  -0.000244
    24  H    0.205854  -0.005941
 Sum of Mulliken charges =  -1.00000   1.00000

 Dipole moment (field-independent basis, Debye):
    X=              5.3941    Y=             -0.8782    Z=              0.0001  Tot=              5.4651
 Quadrupole moment (field-independent basis, Debye-Ang):
   XX=           -114.9336   YY=           -135.3527   ZZ=           -101.4330
   XY=             13.5034   XZ=              0.0011   YZ=             -0.0000

 Normal termination of Gaussian 16 at Sun Jan 21 07:13:23 2024.
