 Gaussian 16, Revision A.03,
 Gaussian 16:  ES64L-G16RevA.03 25-Dec-2016

 --------------------------------------
 #P UB3LYP/6-311++G(d,p) nosym opt freq
 --------------------------------------

 -------
 Radical
 -------
 Symbolic Z-matrix:
 Charge = -1 Multiplicity = 2

 SCF Done:  E(UB3LYP) =  -1458.19029441     A.U. after   22 cycles
 SCF Done:  E(UB3LYP) =  -1458.19029437     A.U. after   10 cycles
 SCF Done:  E(UB3LYP) =  -1458.19029440     A.U. after   10 cycles
 Optimization completed.
    -- Stationary point found.
 Normal termination of Gaussian 16 at Sat Jan  6 05:48:31 2024.

 ----------------------------------------------------------------------
 #P Geom=AllCheck Guess=TCheck SCRF=Check GenChk UB3LYP/6-311++G(d,p) F
 req
 ----------------------------------------------------------------------

 Structure from the checkpoint file:  "014-rad.chk"
 -------
 Radical
 -------
 Charge = -1 Multiplicity = 2

                          Input orientation:
 ---------------------------------------------------------------------
 Center     Atomic      Atomic             Coordinates (Angstroms)
 Number     Number       Type             X           Y           Z
 ---------------------------------------------------------------------
      1          6           0       -1.565966   -1.546715   -0.638892
      2          6           0       -1.172687   -0.138555   -0.129584
      3          6           0       -1.556380   -0.003123    1.364199
      4          6           0       -2.000885    0.892535   -0.920258
      5          6           0        0.342929    0.075756   -0.302137
      6          6           0        0.848771    1.082407   -1.081574
      7          6           0        2.254803    1.352504   -1.296735
      8          8           0        2.647306    2.295138   -2.026236
      9          6           0        3.158989    0.448284   -0.603040
     10          6           0        2.685526   -0.571029    0.185935
     11         17           0        3.785849   -1.658582    1.020186
     12          6           0        1.262517   -0.831899    0.393816
     13          8           0        0.876246   -1.777335    1.125457
     14         17           0        4.878014    0.729141   -0.827873
     15          1           0       -1.028587   -2.317702   -0.088106
     16          1           0       -2.644371   -1.704885   -0.514601
     17          1           0       -1.330033   -1.647613   -1.703340
     18          1           0       -1.019016   -0.734902    1.966097
     19          1           0       -2.634829   -0.158210    1.491909
     20          1           0       -1.313203    0.999241    1.731667
     21          1           0       -3.066595    0.695379   -0.762896
     22          1           0       -1.806321    0.835257   -1.995134
     23          1           0       -1.799261    1.916459   -0.592523
     24          1           0        0.197183    1.768447   -1.607929
 ---------------------------------------------------------------------

 SCF Done:  E(UB3LYP) =  -1458.19029440     A.U. after    1 cycles

 Alpha  occ. eigenvalues -- -101.42605-101.42531 -18.95395 -18.95278 -10.10824
 Alpha  occ. eigenvalues --  -10.10635 -10.10498 -10.10397 -10.08166 -10.05902
 Alpha  occ. eigenvalues --  -10.05773 -10.04621 -10.04617 -10.04426  -9.34056
 Alpha  occ. eigenvalues --   -9.33985  -7.10503  -7.10434  -7.09588  -7.09516
 Alpha  occ. eigenvalues --   -7.09478  -7.09405  -0.88386  -0.87838  -0.76543
 Alpha  occ. eigenvalues --   -0.72223  -0.71808  -0.67413  -0.59986  -0.58327
 Alpha  occ. eigenvalues --   -0.57571  -0.55800  -0.48585  -0.45759  -0.41944
 Alpha  occ. eigenvalues --   -0.37755  -0.35975  -0.33938  -0.33402  -0.32309
 Alpha  occ. eigenvalues --   -0.31759  -0.30838  -0.28468  -0.28369  -0.28311
 Alpha  occ. eigenvalues --   -0.27176  -0.26326  -0.25681  -0.25140  -0.23245
 Alpha  occ. eigenvalues --   -0.23096  -0.22210  -0.21933  -0.20438  -0.19613
 Alpha  occ. eigenvalues --   -0.17478  -0.15420  -0.12334  -0.12020  -0.11585
 Alpha  occ. eigenvalues --   -0.03969
 Alpha virt. eigenvalues --    0.07605   0.09929   0.09981   0.10293   0.10694
 Alpha virt. eigenvalues --    0.11116   0.12810   0.12848   0.13113   0.14041
 Alpha virt. eigenvalues --    0.14108   0.14388   0.14707   0.15867   0.16335

  Beta  occ. eigenvalues -- -101.42600-101.42527 -18.94698 -18.94534 -10.10698
  Beta  occ. eigenvalues --  -10.10508 -10.10354 -10.10309 -10.08172 -10.05810
  Beta  occ. eigenvalues --  -10.05773 -10.04615 -10.04612 -10.04316  -9.34051
  Beta  occ. eigenvalues --   -9.33982  -7.10508  -7.10439  -7.09564  -7.09497
  Beta  occ. eigenvalues --   -7.09476  -7.09403  -0.87209  -0.86572  -0.76252
  Beta  occ. eigenvalues --   -0.72076  -0.71678  -0.67059  -0.59772  -0.58263
  Beta  occ. eigenvalues --   -0.57552  -0.54870  -0.48264  -0.45399  -0.41732
  Beta  occ. eigenvalues --   -0.37569  -0.35799  -0.33698  -0.33341  -0.32204
  Beta  occ. eigenvalues --   -0.31619  -0.29758  -0.28281  -0.27871  -0.27601
  Beta  occ. eigenvalues --   -0.27019  -0.26010  -0.25358  -0.23356  -0.22972
  Beta  occ. eigenvalues --   -0.22915  -0.21886  -0.21321  -0.19550  -0.19538
  Beta  occ. eigenvalues --   -0.17444  -0.12492  -0.11473  -0.11358  -0.10918
  Beta virt. eigenvalues --    0.03205   0.07606   0.09934   0.10069   0.10341
  Beta virt. eigenvalues --    0.11145   0.11739   0.12815   0.13137   0.13242
  Beta virt. eigenvalues --    0.14075   0.14139   0.14437   0.15906   0.16283

 Mulliken charges and spin densities:
               1          2
     1  C   -0.688307   0.011385
     2  C    0.510076  -0.029952
     3  C   -0.687913   0.011377
     4  C   -0.512685   0.001953
     5  C    0.810128   0.104420
     6  C   -0.325078   0.077555
     7  C   -1.150132   0.057875
     8  O   -0.332240   0.269376
     9  C    0.859386   0.102703
    10  C   -0.035540   0.050934
    11  Cl   0.377060   0.004115
    12  C   -1.303643   0.085120
    13  O   -0.292248   0.257177
    14  Cl   0.337394   0.006029
    15  H    0.199387  -0.001612
    16  H    0.117346   0.000499
    17  H    0.116015   0.000426
    18  H    0.199397  -0.001614
    19  H    0.117317   0.000492
    20  H    0.115970   0.000432
    21  H    0.145112   0.000081
    22  H    0.122220  -0.000451
    23  H    0.122284  -0.000452
    24  H    0.178694  -0.007870
 Sum of Mulliken charges =  -1.00000   1.00000

 Dipole moment (field-independent basis, Debye):
    X=            -11.0779    Y=             -0.5478    Z=              1.6382  Tot=             11.2118
 Quadrupole moment (field-independent basis, Debye-Ang):
   XX=           -143.7657   YY=           -122.4917   ZZ=           -114.8994
   XY=             -8.0115   XZ=              9.0630   YZ=             15.7584

  Exact polarizability: 211.997  11.243 162.081  -9.172 -42.557 139.903
 Approx polarizability: 277.479  29.162 279.257 -23.056 -91.627 231.554

                      1                      2                      3
                      A                      A                      A
 Frequencies --     54.2622                63.4579                98.0509
 Red. masses --      5.1138                 4.8427                 9.4427
 Frc consts  --      0.0089                 0.0115                 0.0535
 IR Inten    --      2.9317                 0.3407                 0.0111

                      4                      5                      6
                      A                      A                      A
 Frequencies --    160.9428               171.8645               206.9713
 Red. masses --      5.0683                 5.1137                23.6282
 Frc consts  --      0.0773                 0.0890                 0.5964
 IR Inten    --      6.2716                 1.8652                 0.2762

                      7                      8                      9
                      A                      A                      A
 Frequencies --    227.2317               244.2362               259.3029
 Red. masses --      1.4059                 2.8212                 4.4896
 Frc consts  --      0.0428                 0.0992                 0.1779
 IR Inten    --      0.5234                 0.0134                 2.9323

                     10                     11                     12
                      A                      A                      A
 Frequencies --    261.6284               276.0949               294.3959
 Red. masses --      1.3863                 3.1905                 3.5054
 Frc consts  --      0.0559                 0.1433                 0.1790
 IR Inten    --      0.4332                 0.1735                 0.1158

                     13                     14                     15
                      A                      A                      A
 Frequencies --    315.9342               329.3523               357.8151
 Red. masses --      2.9754                 1.0514                13.1130
 Frc consts  --      0.1750                 0.0672                 0.9892
 IR Inten    --      1.7897                 0.0496                 3.4805

                     16                     17                     18
                      A                      A                      A
 Frequencies --    374.3597               377.9714               420.0655
 Red. masses --      9.6287                 2.5975                 2.7287
 Frc consts  --      0.7951                 0.2186                 0.2837
 IR Inten    --      2.2663                 0.2193                 0.9974

                     19                     20                     21
                      A                      A                      A
 Frequencies --    443.7335               478.5279               525.2150
 Red. masses --      5.6537                 6.1153                 4.1503
 Frc consts  --      0.6559                 0.8251                 0.6745
 IR Inten    --      0.0272                 0.0944                16.2876

                     22                     23                     24
                      A                      A                      A
 Frequencies --    548.5464               605.2064               692.2308
 Red. masses --      4.5774                 5.9776                 6.2704
 Frc consts  --      0.8115                 1.2900                 1.7703
 IR Inten    --      0.4528                17.7527                 3.2004

                     25                     26                     27
                      A                      A                      A
 Frequencies --    696.2213               764.4339               766.8761
 Red. masses --      5.7215                 5.7993                 8.3605
 Frc consts  --      1.6340                 1.9967                 2.8969
 IR Inten    --      1.3632                 9.2088                 4.4689

                     28                     29                     30
                      A                      A                      A
 Frequencies --    846.8412               872.3832               883.0018
 Red. masses --      3.4965                 7.9841                 1.5345
 Frc consts  --      1.4774                 3.5801                 0.7049
 IR Inten    --     39.3794                97.2301                14.7853

                     31                     32                     33
                      A                      A                      A
 Frequencies --    925.8378               933.1862               959.0771
 Red. masses --      1.7703                 1.7431                 1.2032
 Frc consts  --      0.8941                 0.8943                 0.6521
 IR Inten    --      0.4405                 4.6587                 0.2449

                     34                     35                     36
                      A                      A                      A
 Frequencies --    993.2609              1041.1056              1049.0864
 Red. masses --      5.7310                 1.4739                 1.3784
 Frc consts  --      3.3312                 0.9413                 0.8938
 IR Inten    --     22.4066                14.3665                 0.0795

                     37                     38                     39
                      A                      A                      A
 Frequencies --   1101.2777              1145.6260              1216.1174
 Red. masses --      3.1287                 9.0726                 2.6826
 Frc consts  --      2.2356                 7.0156                 2.3375
 IR Inten    --    103.4411                28.0937                 4.4182

                     40                     41                     42
                      A                      A                      A
 Frequencies --   1223.6245              1266.9911              1295.3091
 Red. masses --      2.4717                 2.6383                 1.9149
 Frc consts  --      2.1804                 2.4952                 1.8930
 IR Inten    --     11.8161                27.9350                20.8539

                     43                     44                     45
                      A                      A                      A
 Frequencies --   1370.7835              1376.8590              1387.1084
 Red. masses --      3.0632                 1.2102                 1.5521
 Frc consts  --      3.3913                 1.3517                 1.7595
 IR Inten    --     38.8050                11.6284                 5.2588

                     46                     47                     48
                      A                      A                      A
 Frequencies --   1412.6060              1472.3274              1484.9125
 Red. masses --      1.2464                 1.0466                 7.2911
 Frc consts  --      1.4654                 1.3367                 9.4720
 IR Inten    --     23.4955                 0.1930                 2.1974

                     49                     50                     51
                      A                      A                      A
 Frequencies --   1489.4189              1496.0604              1497.1432
 Red. masses --      1.1832                 1.0463                 1.0673
 Frc consts  --      1.5465                 1.3797                 1.4094
 IR Inten    --     67.3427                 0.9563                 1.9003

                     52                     53                     54
                      A                      A                      A
 Frequencies --   1511.6372              1523.6594              1526.8253
 Red. masses --      1.0513                 5.9955                 1.7035
 Frc consts  --      1.4154                 8.2008                 2.3397
 IR Inten    --      3.9321                85.9999               110.6294

                     55                     56                     57
                      A                      A                      A
 Frequencies --   1536.3473              1620.8414              2997.0220
 Red. masses --      2.1066                 7.6560                 1.0422
 Frc consts  --      2.9296                11.8505                 5.5155
 IR Inten    --    179.7832                28.8259                46.6979

                     58                     59                     60
                      A                      A                      A
 Frequencies --   3001.4603              3014.2664              3055.5739
 Red. masses --      1.0409                 1.0362                 1.0975
 Frc consts  --      5.5251                 5.5470                 6.0371
 IR Inten    --     79.3946                93.7923                29.7788

                     61                     62                     63
                      A                      A                      A
 Frequencies --   3057.7664              3070.3398              3082.4169
 Red. masses --      1.0975                 1.0998                 1.1017
 Frc consts  --      6.0460                 6.1083                 6.1670
 IR Inten    --     25.1459                91.8910                42.2305

                     64                     65                     66
                      A                      A                      A
 Frequencies --   3124.4911              3126.9591              3188.5629
 Red. masses --      1.0971                 1.0964                 1.0879
 Frc consts  --      6.3105                 6.3166                 6.5168
 IR Inten    --      0.0748                10.6440                 9.3223

 - Thermochemistry -
 -------------------
 Temperature   298.150 Kelvin.  Pressure   1.00000 Atm.
 Atom     1 has atomic number  6 and mass  12.00000

 Molecular mass:   232.00579 amu.
 Principal axes and moments of inertia in atomic units:
                           1         2         3
     Eigenvalues --  2103.363684665.407376368.44949
           X            0.99579  -0.09157   0.00373
           Y            0.07022   0.78850   0.61101
           Z           -0.05889  -0.60818   0.79161
 This molecule is an asymmetric top.
 Rotational symmetry number  1.
 Warning -- assumption of classical behavior for rotation
           may cause significant error
 Rotational temperatures (Kelvin)      0.04118     0.01857     0.01360
 Rotational constants (GHZ):           0.85803     0.38683     0.28339
 Zero-point vibrational energy     461716.9 (Joules/Mol)
                                  110.35300 (Kcal/Mol)
 Warning -- explicit consideration of  23 degrees of freedom as
           vibrations may cause significant error
 Vibrational temperatures:     78.07    91.30   141.07   231.56   247.27
          (Kelvin)            297.79   326.94   351.40   373.08   376.42
                              397.24   423.57   454.56   473.86   514.82
                              538.62   543.82   604.38   638.43   688.49
                              755.67   789.24   870.76   995.97  1001.71
                             1099.85  1103.36  1218.42  1255.16  1270.44
                             1332.07  1342.65  1379.90  1429.08  1497.92
                             1509.40  1584.49  1648.30  1749.72  1760.52
                             1822.92  1863.66  1972.25  1980.99  1995.74
                             2032.42  2118.35  2136.46  2142.94  2152.50
                             2154.06  2174.91  2192.21  2196.76  2210.46
                             2332.03  4312.05  4318.43  4336.86  4396.29
                             4399.44  4417.53  4434.91  4495.45  4499.00
                             4587.63

 Zero-point correction=                           0.175859 (Hartree/Particle)
 Thermal correction to Energy=                    0.189847
 Thermal correction to Enthalpy=                  0.190791
 Thermal correction to Gibbs Free Energy=         0.134683
 Sum of electronic and zero-point Energies=          -1458.014436
 Sum of electronic and thermal Energies=             -1458.000447
 Sum of electronic and thermal Enthalpies=           -1457.999503
 Sum of electronic and thermal Free Energies=        -1458.055611

                     E (Thermal)             CV                S
                      KCal/Mol        Cal/Mol-Kelvin    Cal/Mol-Kelvin
 Total                  119.131             52.749            118.088
 Electronic               0.000              0.000              1.377
 Translational            0.889              2.981             42.227
 Rotational               0.889              2.981             32.502
 Vibrational            117.353             46.788             41.982
 Vibration     1          0.596              1.976              4.656
 Vibration     2          0.597              1.972              4.347
 Vibration     3          0.603              1.951              3.493
 Vibration     4          0.622              1.890              2.539
 Vibration     5          0.626              1.877              2.415
 Vibration     6          0.641              1.830              2.070
 Vibration     7          0.651              1.800              1.901
 Vibration     8          0.660              1.772              1.772
 Vibration     9          0.668              1.747              1.666
 Vibration    10          0.669              1.743              1.651
 Vibration    11          0.678              1.718              1.558
 Vibration    12          0.689              1.684              1.449
 Vibration    13          0.703              1.643              1.331
 Vibration    14          0.712              1.617              1.263
 Vibration    15          0.733              1.559              1.132
 Vibration    16          0.745              1.525              1.062
 Vibration    17          0.748              1.517              1.047
 Vibration    18          0.783              1.427              0.892
 Vibration    19          0.803              1.375              0.815
 Vibration    20          0.835              1.298              0.714
 Vibration    21          0.880              1.194              0.598
 Vibration    22          0.904              1.143              0.547
 Vibration    23          0.964              1.021              0.441

 Optimization completed.
    -- Stationary point found.
 Normal termination of Gaussian 16 at Sat Jan  6 06:25:41 2024.
