 Gaussian 16, Revision A.03,
 Gaussian 16:  ES64L-G16RevA.03 25-Dec-2016

 --------------------------------------
 #P UB3LYP/6-311++G(d,p) nosym opt freq
 --------------------------------------

 -------
 Radical
 -------
 Symbolic Z-matrix:
 Charge = -1 Multiplicity = 2

 SCF Done:  E(UB3LYP) =  -843.843928212     A.U. after   25 cycles
 SCF Done:  E(UB3LYP) =  -843.858093975     A.U. after   22 cycles
 SCF Done:  E(UB3LYP) =  -843.860234993     A.U. after   21 cycles
 SCF Done:  E(UB3LYP) =  -843.860861858     A.U. after   19 cycles
 SCF Done:  E(UB3LYP) =  -843.860997981     A.U. after   18 cycles
 SCF Done:  E(UB3LYP) =  -843.861096556     A.U. after   16 cycles
 SCF Done:  E(UB3LYP) =  -843.861103173     A.U. after   14 cycles
 SCF Done:  E(UB3LYP) =  -843.861107543     A.U. after   14 cycles
 SCF Done:  E(UB3LYP) =  -843.861107651     A.U. after   13 cycles
 Optimization completed.
    -- Stationary point found.
 Normal termination of Gaussian 16 at Wed Dec 20 02:29:10 2023.

 ----------------------------------------------------------------------
 #P Geom=AllCheck Guess=TCheck SCRF=Check GenChk UB3LYP/6-311++G(d,p) F
 req
 ----------------------------------------------------------------------

 Structure from the checkpoint file:  "063-rad.chk"
 -------
 Radical
 -------
 Charge = -1 Multiplicity = 2

                          Input orientation:
 ---------------------------------------------------------------------
 Center     Atomic      Atomic             Coordinates (Angstroms)
 Number     Number       Type             X           Y           Z
 ---------------------------------------------------------------------
      1          6           0       -1.470450   -2.066416    1.406923
      2          6           0       -2.050052   -2.060848    0.081014
      3          6           0       -1.789839   -1.081244   -0.827240
      4          6           0       -0.901678    0.025733   -0.544743
      5          6           0       -0.279385    0.036094    0.784984
      6          6           0       -0.581430   -0.944088    1.731814
      7          8           0       -1.741098   -2.985655    2.227529
      8          8           0       -0.674312    0.911016   -1.414355
      9          1           0       -2.236571   -1.090665   -1.817480
     10          6           0        0.519748   -1.993000    3.743600
     11          6           0       -0.246555    0.277457    3.909038
     12          6           0        0.970498   -1.935190    5.060051
     13          6           0        0.812767   -0.770453    5.811983
     14          6           0        0.195209    0.335382    5.228821
     15          1           0       -2.716944   -2.887019   -0.149044
     16          1           0        0.621965   -2.908675    3.176766
     17          1           0       -0.726570    1.142267    3.466534
     18          1           0        1.439843   -2.807957    5.503955
     19          1           0        1.159929   -0.727945    6.839597
     20          1           0        0.055538    1.246751    5.801983
     21          6           0        0.729958    1.102800    1.032801
     22          6           0        0.443316    2.452251    0.770402
     23          6           0        2.018402    0.788298    1.491462
     24          6           0        1.394505    3.445543    0.989889
     25          6           0        2.974783    1.778626    1.703400
     26          6           0        2.666671    3.116419    1.459110
     27          1           0       -0.531501    2.713626    0.381015
     28          1           0        2.269340   -0.248229    1.683145
     29          1           0        1.143352    4.481863    0.784886
     30          1           0        3.962641    1.503213    2.059631
     31          1           0        3.409022    3.890790    1.625198
     32          6           0       -0.083944   -0.881192    3.134152
 ---------------------------------------------------------------------

 SCF Done:  E(UB3LYP) =  -843.861107651     A.U. after    1 cycles

 Alpha  occ. eigenvalues --  -18.94538 -18.94538 -10.09393 -10.09392 -10.07139
 Alpha  occ. eigenvalues --  -10.07139 -10.07123 -10.07122 -10.06982 -10.06982
 Alpha  occ. eigenvalues --  -10.06914 -10.06913 -10.06366 -10.06366 -10.06122
 Alpha  occ. eigenvalues --  -10.06121 -10.05581 -10.05527 -10.04082 -10.04013
 Alpha  occ. eigenvalues --   -0.87045  -0.86770  -0.75547  -0.74785  -0.70441
 Alpha  occ. eigenvalues --   -0.66152  -0.64896  -0.63946  -0.63904  -0.60065
 Alpha  occ. eigenvalues --   -0.55657  -0.51335  -0.50146  -0.49733  -0.49375
 Alpha  occ. eigenvalues --   -0.45825  -0.44148  -0.40483  -0.40405  -0.36369
 Alpha  occ. eigenvalues --   -0.35493  -0.35401  -0.34774  -0.33525  -0.32849
 Alpha  occ. eigenvalues --   -0.31994  -0.31592  -0.31440  -0.30450  -0.27903
 Alpha  occ. eigenvalues --   -0.27409  -0.26919  -0.25991  -0.25692  -0.25569
 Alpha  occ. eigenvalues --   -0.24418  -0.23813  -0.23735  -0.23243  -0.22816
 Alpha  occ. eigenvalues --   -0.16575  -0.15803  -0.14844  -0.14620  -0.14608
 Alpha  occ. eigenvalues --   -0.11060  -0.11036  -0.10440  -0.03272
 Alpha virt. eigenvalues --    0.07096   0.07465   0.07796   0.08881   0.09078
 Alpha virt. eigenvalues --    0.09133   0.09488   0.10003   0.10125   0.10439
 Alpha virt. eigenvalues --    0.11010   0.12120   0.12646   0.12966   0.13196

  Beta  occ. eigenvalues --  -18.93813 -18.93813 -10.09303 -10.09302 -10.07140
  Beta  occ. eigenvalues --  -10.07139 -10.07124 -10.07124 -10.06989 -10.06989
  Beta  occ. eigenvalues --  -10.06920 -10.06919 -10.06347 -10.06347 -10.06106
  Beta  occ. eigenvalues --  -10.06105 -10.05441 -10.05386 -10.03986 -10.03916
  Beta  occ. eigenvalues --   -0.85821  -0.85505  -0.75471  -0.74758  -0.69979
  Beta  occ. eigenvalues --   -0.65913  -0.64800  -0.63928  -0.63886  -0.59877
  Beta  occ. eigenvalues --   -0.54833  -0.51025  -0.50084  -0.49703  -0.49313
  Beta  occ. eigenvalues --   -0.45615  -0.43929  -0.40395  -0.40285  -0.36254
  Beta  occ. eigenvalues --   -0.35321  -0.35300  -0.34688  -0.33374  -0.32656
  Beta  occ. eigenvalues --   -0.31828  -0.31569  -0.31425  -0.30376  -0.27097
  Beta  occ. eigenvalues --   -0.26743  -0.26303  -0.25751  -0.25335  -0.25231
  Beta  occ. eigenvalues --   -0.23815  -0.23713  -0.23244  -0.22651  -0.21292
  Beta  occ. eigenvalues --   -0.15797  -0.15677  -0.14531  -0.14522  -0.12120
  Beta  occ. eigenvalues --   -0.10369  -0.10241  -0.09724
  Beta virt. eigenvalues --    0.03696   0.07097   0.07795   0.08104   0.08907
  Beta virt. eigenvalues --    0.09167   0.09224   0.09490   0.10024   0.10171
  Beta virt. eigenvalues --    0.10448   0.11012   0.12153   0.12678   0.13211

 Mulliken charges and spin densities:
               1          2
     1  C   -0.888953   0.060716
     2  C   -0.009466   0.075159
     3  C   -0.009879   0.075194
     4  C   -0.888812   0.060742
     5  C    0.056930   0.085917
     6  C    0.057261   0.086015
     7  O   -0.351478   0.263204
     8  O   -0.351451   0.263219
     9  H    0.154851  -0.007088
    10  C   -0.057384   0.028351
    11  C   -0.500278   0.010814
    12  C   -0.266011  -0.003734
    13  C   -0.346470   0.010795
    14  C   -0.444951  -0.004681
    15  H    0.154811  -0.007087
    16  H    0.215538  -0.001873
    17  H    0.182565  -0.001212
    18  H    0.142219   0.000452
    19  H    0.121802  -0.000940
    20  H    0.144399   0.000518
    21  C    1.346691  -0.016491
    22  C   -0.057665   0.028392
    23  C   -0.499736   0.010809
    24  C   -0.266080  -0.003738
    25  C   -0.444855  -0.004691
    26  C   -0.346468   0.010804
    27  H    0.215606  -0.001871
    28  H    0.182570  -0.001216
    29  H    0.142214   0.000453
    30  H    0.144393   0.000518
    31  H    0.121814  -0.000940
    32  C    1.346272  -0.016512
 Sum of Mulliken charges =  -1.00000   1.00000

 Dipole moment (field-independent basis, Debye):
    X=              3.2426    Y=              3.0637    Z=             -4.7552  Tot=              6.5202
 Quadrupole moment (field-independent basis, Debye-Ang):
   XX=           -130.5380   YY=           -140.3611   ZZ=           -151.8353
   XY=            -14.8203   XZ=              6.2675   YZ=             17.3082

  Exact polarizability: 205.062  47.697 262.728  42.027 -27.026 266.989
 Approx polarizability: 322.412  48.007 449.650  58.207 -62.642 411.902

                      1                      2                      3
                      A                      A                      A
 Frequencies --     41.9075                57.1875                58.3120
 Red. masses --      7.6719                 3.7327                 5.0153
 Frc consts  --      0.0079                 0.0072                 0.0100
 IR Inten    --      0.1615                 0.1671                 1.2951

                      4                      5                      6
                      A                      A                      A
 Frequencies --     71.1098                88.6281               106.5456
 Red. masses --      4.1134                 4.7985                 7.0028
 Frc consts  --      0.0123                 0.0222                 0.0468
 IR Inten    --      0.4354                 3.0561                 4.5297

                      7                      8                      9
                      A                      A                      A
 Frequencies --    137.1081               219.8427               232.8800
 Red. masses --      6.2594                 5.0895                 6.5360
 Frc consts  --      0.0693                 0.1449                 0.2088
 IR Inten    --      1.7772                 0.0727                 0.7436

                     10                     11                     12
                      A                      A                      A
 Frequencies --    259.5524               300.8307               308.6484
 Red. masses --      5.1278                 7.1949                 6.0397
 Frc consts  --      0.2035                 0.3836                 0.3390
 IR Inten    --      0.1919                 8.6738                 1.2511

                     13                     14                     15
                      A                      A                      A
 Frequencies --    330.8238               389.4760               415.9505
 Red. masses --      4.8974                 5.5752                 2.8952
 Frc consts  --      0.3158                 0.4983                 0.2951
 IR Inten    --      0.3423                 1.0897                 0.0121

                     16                     17                     18
                      A                      A                      A
 Frequencies --    416.7047               442.0452               486.9413
 Red. masses --      2.8941                 8.3040                10.3314
 Frc consts  --      0.2961                 0.9560                 1.4433
 IR Inten    --      0.1791                 4.1900                 0.0649

                     19                     20                     21
                      A                      A                      A
 Frequencies --    499.2748               520.2762               580.3258
 Red. masses --      3.6107                 4.1324                 4.8866
 Frc consts  --      0.5303                 0.6591                 0.9696
 IR Inten    --      4.6738                 6.9761                 0.5935

                     22                     23                     24
                      A                      A                      A
 Frequencies --    588.5643               629.4783               634.0142
 Red. masses --      4.7220                 4.5352                 6.2530
 Frc consts  --      0.9637                 1.0588                 1.4809
 IR Inten    --      1.7229                 1.7895                 0.2334

                     25                     26                     27
                      A                      A                      A
 Frequencies --    640.6501               651.4878               683.5927
 Red. masses --      2.9693                 4.9753                 6.7509
 Frc consts  --      0.7180                 1.2442                 1.8587
 IR Inten    --     19.5164                 2.0110                 2.5140

                     28                     29                     30
                      A                      A                      A
 Frequencies --    701.9161               702.0132               748.6624
 Red. masses --      1.5727                 1.6046                 7.0460
 Frc consts  --      0.4565                 0.4659                 2.3268
 IR Inten    --     63.5676                20.2187                24.4895

                     31                     32                     33
                      A                      A                      A
 Frequencies --    756.7368               761.8979               804.6047
 Red. masses --      2.5185                 2.2906                 5.0279
 Frc consts  --      0.8497                 0.7834                 1.9178
 IR Inten    --      9.7657                32.8654                 3.1722

                     34                     35                     36
                      A                      A                      A
 Frequencies --    837.9004               841.0316               841.2093
 Red. masses --      1.9317                 1.2968                 1.2579
 Frc consts  --      0.7991                 0.5404                 0.5245
 IR Inten    --     36.2338                 5.3689                 0.6572

                     37                     38                     39
                      A                      A                      A
 Frequencies --    887.8047               907.7809               919.0080
 Red. masses --      2.5395                 3.0706                 2.0430
 Frc consts  --      1.1793                 1.4908                 1.0166
 IR Inten    --     16.5650                 2.8528                 0.0172

                     40                     41                     42
                      A                      A                      A
 Frequencies --    924.1812               964.8854               971.4535
 Red. masses --      2.3265                 1.2897                 1.3653
 Frc consts  --      1.1708                 0.7074                 0.7591
 IR Inten    --     14.9293                 0.2064                 1.3482

                     43                     44                     45
                      A                      A                      A
 Frequencies --    971.6393               979.0792               979.7663
 Red. masses --      1.3656                 1.2798                 1.2732
 Frc consts  --      0.7596                 0.7228                 0.7201
 IR Inten    --      0.8492                 0.5907                 0.3778

                     46                     47                     48
                      A                      A                      A
 Frequencies --   1014.5072              1014.9582              1038.1464
 Red. masses --      6.2342                 6.1887                 3.6798
 Frc consts  --      3.7805                 3.7562                 2.3366
 IR Inten    --      0.7271                 3.8207                20.3264

                     49                     50                     51
                      A                      A                      A
 Frequencies --   1049.3493              1060.1505              1093.0513
 Red. masses --      2.2376                 2.1374                 1.8683
 Frc consts  --      1.4517                 1.4154                 1.3151
 IR Inten    --     10.2225                 1.1289                 0.0004

                     52                     53                     54
                      A                      A                      A
 Frequencies --   1095.8626              1101.2775              1172.6119
 Red. masses --      1.6352                 1.6466                 1.0991
 Frc consts  --      1.1570                 1.1766                 0.8904
 IR Inten    --      0.0070                12.5578                 0.0026

                     55                     56                     57
                      A                      A                      A
 Frequencies --   1173.0291              1192.1570              1200.3719
 Red. masses --      1.0955                 1.8181                 1.1382
 Frc consts  --      0.8882                 1.5225                 0.9663
 IR Inten    --      0.0161                56.4124                 1.4878

                     58                     59                     60
                      A                      A                      A
 Frequencies --   1201.7625              1228.4778              1236.1306
 Red. masses --      1.1754                 5.0800                 3.0590
 Frc consts  --      1.0001                 4.5170                 2.7540
 IR Inten    --      1.2029                 3.9386                 6.8866

                     61                     62                     63
                      A                      A                      A
 Frequencies --   1309.7227              1314.6318              1343.4804
 Red. masses --      3.9053                 4.1094                 2.4898
 Frc consts  --      3.9470                 4.1844                 2.6477
 IR Inten    --      4.0717                 0.1609                11.7950

                     64                     65                     66
                      A                      A                      A
 Frequencies --   1350.8680              1355.7858              1413.3531
 Red. masses --      1.5871                 1.6349                 4.3146
 Frc consts  --      1.7064                 1.7706                 5.0780
 IR Inten    --      0.0642                 0.4094                79.1540

                     67                     68                     69
                      A                      A                      A
 Frequencies --   1454.3639              1468.0874              1475.8004
 Red. masses --      3.0318                 2.2837                 3.8922
 Frc consts  --      3.7783                 2.9000                 4.9946
 IR Inten    --     27.1484                 3.7528                73.9825

                     70                     71                     72
                      A                      A                      A
 Frequencies --   1504.7524              1516.6810              1524.5916
 Red. masses --      6.2921                 2.4343                 2.6335
 Frc consts  --      8.3941                 3.2992                 3.6065
 IR Inten    --      2.8894                30.9971                59.6314

                     73                     74                     75
                      A                      A                      A
 Frequencies --   1533.6288              1605.8458              1606.6985
 Red. masses --      5.3760                 5.3388                 5.3723
 Frc consts  --      7.4499                 8.1114                 8.1711
 IR Inten    --    270.5973                10.9052                 1.7187

                     76                     77                     78
                      A                      A                      A
 Frequencies --   1624.7846              1632.3279              1637.5330
 Red. masses --      6.3367                 5.5857                 6.2605
 Frc consts  --      9.8562                 8.7689                 9.8910
 IR Inten    --     57.5601                38.3548                 0.4232

                     79                     80                     81
                      A                      A                      A
 Frequencies --   3136.9151              3137.6319              3137.7201
 Red. masses --      1.0850                 1.0838                 1.0838
 Frc consts  --      6.2905                 6.2863                 6.2868
 IR Inten    --     13.8508                 2.5119                 0.0668

                     82                     83                     84
                      A                      A                      A
 Frequencies --   3149.5776              3149.6248              3159.2751
 Red. masses --      1.0890                 1.0890                 1.0954
 Frc consts  --      6.3648                 6.3650                 6.4418
 IR Inten    --     13.3497                49.2617                55.2618

                     85                     86                     87
                      A                      A                      A
 Frequencies --   3164.7908              3165.2079              3183.1302
 Red. masses --      1.0947                 1.0946                 1.0931
 Frc consts  --      6.4601                 6.4609                 6.5258
 IR Inten    --     57.1184                66.8412                 4.9124

                     88                     89                     90
                      A                      A                      A
 Frequencies --   3183.4860              3203.5417              3203.6286
 Red. masses --      1.0932                 1.0924                 1.0924
 Frc consts  --      6.5274                 6.6056                 6.6058
 IR Inten    --     17.5249                 3.9182                 8.1048

 - Thermochemistry -
 -------------------
 Temperature   298.150 Kelvin.  Pressure   1.00000 Atm.
 Atom     1 has atomic number  6 and mass  12.00000

 Molecular mass:   260.08373 amu.
 Principal axes and moments of inertia in atomic units:
                           1         2         3
     Eigenvalues --  4352.715894809.458228309.88732
           X            0.22133   0.60173   0.76742
           Y            0.69860   0.45123  -0.55529
           Z           -0.68042   0.65902  -0.32050
 This molecule is an asymmetric top.
 Rotational symmetry number  1.
 Warning -- assumption of classical behavior for rotation
           may cause significant error
 Rotational temperatures (Kelvin)      0.01990     0.01801     0.01042
 Rotational constants (GHZ):           0.41462     0.37525     0.21718
 Zero-point vibrational energy     638883.9 (Joules/Mol)
                                  152.69691 (Kcal/Mol)
 Warning -- explicit consideration of  22 degrees of freedom as
           vibrations may cause significant error
 Vibrational temperatures:     60.30    82.28    83.90   102.31   127.52
          (Kelvin)            153.30   197.27   316.30   335.06   373.44
                              432.83   444.08   475.98   560.37   598.46
                              599.55   636.00   700.60   718.35   748.56
                              834.96   846.81   905.68   912.20   921.75
                              937.35   983.54  1009.90  1010.04  1077.16
                             1088.78  1096.20  1157.65  1205.55  1210.06
                             1210.31  1277.35  1306.09  1322.25  1329.69
                             1388.25  1397.70  1397.97  1408.68  1409.67
                             1459.65  1460.30  1493.66  1509.78  1525.32
                             1572.66  1576.70  1584.49  1687.13  1687.73
                             1715.25  1727.07  1729.07  1767.51  1778.52
                             1884.40  1891.46  1932.97  1943.60  1950.67
                             2033.50  2092.51  2112.25  2123.35  2165.00
                             2182.17  2193.55  2206.55  2310.45  2311.68
                             2337.70  2348.56  2356.04  4513.32  4514.35
                             4514.48  4531.54  4531.61  4545.49  4553.43
                             4554.03  4579.81  4580.33  4609.18  4609.31

 Zero-point correction=                           0.243338 (Hartree/Particle)
 Thermal correction to Energy=                    0.258837
 Thermal correction to Enthalpy=                  0.259781
 Thermal correction to Gibbs Free Energy=         0.199008
 Sum of electronic and zero-point Energies=           -843.617770
 Sum of electronic and thermal Energies=              -843.602270
 Sum of electronic and thermal Enthalpies=            -843.601326
 Sum of electronic and thermal Free Energies=         -843.662099

                     E (Thermal)             CV                S
                      KCal/Mol        Cal/Mol-Kelvin    Cal/Mol-Kelvin
 Total                  162.423             61.981            127.908
 Electronic               0.000              0.000              1.377
 Translational            0.889              2.981             42.567
 Rotational               0.889              2.981             33.519
 Vibrational            160.645             56.020             50.444
 Vibration     1          0.595              1.980              5.167
 Vibration     2          0.596              1.975              4.552
 Vibration     3          0.596              1.974              4.514
 Vibration     4          0.598              1.968              4.122
 Vibration     5          0.601              1.957              3.690
 Vibration     6          0.605              1.944              3.331
 Vibration     7          0.614              1.916              2.844
 Vibration     8          0.647              1.811              1.960
 Vibration     9          0.654              1.791              1.857
 Vibration    10          0.668              1.747              1.665
 Vibration    11          0.693              1.672              1.412
 Vibration    12          0.698              1.657              1.370
 Vibration    13          0.713              1.614              1.256
 Vibration    14          0.757              1.493              1.002
 Vibration    15          0.779              1.436              0.906
 Vibration    16          0.780              1.434              0.903
 Vibration    17          0.802              1.378              0.820
 Vibration    18          0.843              1.279              0.692
 Vibration    19          0.855              1.252              0.660
 Vibration    20          0.875              1.205              0.609
 Vibration    21          0.937              1.074              0.485
 Vibration    22          0.946              1.056              0.470

 Optimization completed.
    -- Stationary point found.
 Normal termination of Gaussian 16 at Wed Dec 20 03:43:31 2023.
