 Q-Chem 5.4, Q-Chem, Inc., Pleasanton, CA (2021)
 Q-Chem 5.4.0 for Intel X86 EM64T Linux

User input:
--------------------------------------------------------------
$molecule
-2 1
C                 -0.3084750000      1.2131460000     -0.2768050000
C                 -1.3436280000      0.3181550000     -0.7311700000
C                 -1.2730880000     -1.0622790000     -0.6359620000
C                 -0.1572450000     -1.7871050000     -0.0708800000
C                  0.8716960000     -0.9288900000      0.3821830000
C                  0.8164790000      0.5023280000      0.2919830000
O                 -0.3996630000      2.4914710000     -0.3773100000
O                 -0.1348300000     -3.0874570000     -0.0022160000
C                  1.9188790000      1.2406530000      0.7853670000
N                  2.8525830000      1.8049760000      1.2062490000
H                 -2.2220940000      0.7916280000     -1.1717280000
H                 -2.1024050000     -1.6696370000     -1.0048640000
H                  1.7549120000     -1.3863200000      0.8241930000
$end

$rem
BASIS  =  6-311++G(d,p)
GUI  =  2
JOB_TYPE  =  SP
METHOD  =  B3LYP
SCF_CONVERGENCE  = 8
SOLVENT_METHOD = sm12
$end

$smx
solvent dimethylformamide
charges CM5
$end

--------------------------------------------------------------

             Standard Nuclear Orientation (Angstroms)
    I     Atom           X                Y                Z
 ----------------------------------------------------------------
    1      C      -0.3084750000     1.2131460000    -0.2768050000
    2      C      -1.3436280000     0.3181550000    -0.7311700000
    3      C      -1.2730880000    -1.0622790000    -0.6359620000
    4      C      -0.1572450000    -1.7871050000    -0.0708800000
    5      C       0.8716960000    -0.9288900000     0.3821830000
    6      C       0.8164790000     0.5023280000     0.2919830000
    7      O      -0.3996630000     2.4914710000    -0.3773100000
    8      O      -0.1348300000    -3.0874570000    -0.0022160000
    9      C       1.9188790000     1.2406530000     0.7853670000
   10      N       2.8525830000     1.8049760000     1.2062490000
   11      H      -2.2220940000     0.7916280000    -1.1717280000
   12      H      -2.1024050000    -1.6696370000    -1.0048640000
   13      H       1.7549120000    -1.3863200000     0.8241930000
 ----------------------------------------------------------------

   18    -473.8384041126      5.17e-09  Convergence criterion met
 Total energy in the final basis set =     -474.1314017497

                    Orbital Energies (a.u.)
 --------------------------------------------------------------

 Alpha MOs
 -- Occupied --
-19.0491 -19.0325 -14.3168 -10.2225 -10.2164 -10.2000 -10.1835 -10.1716
-10.1680 -10.1603  -0.9646  -0.9414  -0.9149  -0.8177  -0.7548  -0.6884
 -0.6270  -0.5810  -0.4955  -0.4672  -0.4594  -0.4233  -0.4029  -0.3908
 -0.3806  -0.3614  -0.3595  -0.3590  -0.3373  -0.3339  -0.2553  -0.2476
 -0.2224  -0.2088  -0.1493

          Ground-State Mulliken Net Atomic Charges

     Atom                 Charge (a.u.)
  ----------------------------------------
      1 C                    -1.470582
      2 C                     0.799534
      3 C                     0.509564
      4 C                    -0.681262
      5 C                    -0.963840
      6 C                     1.310447
      7 O                    -0.377608
      8 O                    -0.415012
      9 C                    -0.939706
     10 N                    -0.265696
     11 H                     0.255758
     12 H                     0.219705
     13 H                     0.018697
  ----------------------------------------
  Sum of atomic charges =    -2.000000

                    Cartesian Multipole Moments
 -----------------------------------------------------------------
    Charge (ESU x 10^10)
                -9.6064
    Dipole Moment (Debye)
         X      -4.6835      Y      -0.3618      Z      -1.4951
       Tot       4.9296
    Quadrupole Moments (Debye-Ang)
        XX     -89.0228     XY     -11.1897     YY    -129.0340
        XZ      -9.9344     YZ      -2.5280     ZZ     -70.9471

 Total job time:  158.69s(wall), 930.20s(cpu)
        *  Thank you very much for using Q-Chem.  Have a nice day.  *
