 Gaussian 16, Revision A.03,
 Gaussian 16:  ES64L-G16RevA.03 25-Dec-2016

 ----------------------------------------------------------------------
 #P UB3LYP/6-311++G(d,p) nosym opt freq SCRF=(PCM,Solvent=n,n-DiMethylF
 ormamide)
 ----------------------------------------------------------------------

 -------
 Reduced
 -------
 Symbolic Z-matrix:
 Charge = -2 Multiplicity = 1

 SCF Done:  E(UB3LYP) =  -727.475798684     A.U. after   19 cycles
 SCF Done:  E(UB3LYP) =  -727.478985926     A.U. after   14 cycles
 SCF Done:  E(UB3LYP) =  -727.479587468     A.U. after   14 cycles
 SCF Done:  E(UB3LYP) =  -727.479575869     A.U. after   13 cycles
 SCF Done:  E(UB3LYP) =  -727.479654726     A.U. after   12 cycles
 SCF Done:  E(UB3LYP) =  -727.479662516     A.U. after   13 cycles
 SCF Done:  E(UB3LYP) =  -727.479666906     A.U. after   12 cycles
 SCF Done:  E(UB3LYP) =  -727.479670021     A.U. after   11 cycles
 SCF Done:  E(UB3LYP) =  -727.479676990     A.U. after   12 cycles
 SCF Done:  E(UB3LYP) =  -727.479683576     A.U. after   11 cycles
 SCF Done:  E(UB3LYP) =  -727.479692156     A.U. after   13 cycles
 SCF Done:  E(UB3LYP) =  -727.479694791     A.U. after   11 cycles
 SCF Done:  E(UB3LYP) =  -727.479695040     A.U. after   10 cycles
 SCF Done:  E(UB3LYP) =  -727.479695109     A.U. after   10 cycles
 Optimization completed.
    -- Stationary point found.
 Normal termination of Gaussian 16 at Sun Feb 11 16:48:09 2024.

 ----------------------------------------------------------------------
 #P Geom=AllCheck Guess=TCheck SCRF=Check GenChk UB3LYP/6-311++G(d,p) F
 req
 ----------------------------------------------------------------------

 Structure from the checkpoint file:  "322-an.chk"
 -------
 Reduced
 -------
 Charge = -2 Multiplicity = 1

                          Input orientation:
 ---------------------------------------------------------------------
 Center     Atomic      Atomic             Coordinates (Angstroms)
 Number     Number       Type             X           Y           Z
 ---------------------------------------------------------------------
      1          6           0       -1.634554    2.891082   -0.722883
      2          6           0       -2.837029    2.294276   -0.417521
      3          6           0       -2.871571    0.936393    0.006846
      4          6           0       -0.387234    2.201810   -0.635332
      5          6           0       -0.435730    0.816869   -0.191676
      6          6           0       -1.693476    0.228554    0.113495
      7          6           0        0.834717    2.881255   -0.977664
      8          6           0        2.067372    2.121409   -0.853734
      9          6           0        1.975420    0.761181   -0.406783
     10          6           0        0.786596    0.121544   -0.088620
     11          8           0        0.832924    4.124937   -1.383527
     12          8           0        3.233486    2.632983   -1.134987
     13          8           0        0.705435   -1.206024    0.343873
     14          6           0        1.896958   -1.962124    0.402599
     15          6           0        1.615839   -3.363131    0.854613
     16          6           0        0.424567   -3.868705    1.166867
     17          1           0       -1.602529    3.925672   -1.045575
     18          1           0       -3.761966    2.858013   -0.498932
     19          1           0       -3.818530    0.462579    0.245527
     20          1           0       -1.712530   -0.805881    0.438491
     21          1           0        2.920101    0.233882   -0.329214
     22          1           0        2.618576   -1.499937    1.093257
     23          1           0        2.387382   -1.991081   -0.582277
     24          1           0        2.503910   -3.988788    0.918006
     25          1           0       -0.476029   -3.268809    1.113378
     26          1           0        0.321782   -4.899987    1.485280
 ---------------------------------------------------------------------

 SCF Done:  E(UB3LYP) =  -727.479695109     A.U. after    1 cycles

 Alpha  occ. eigenvalues --  -19.13057 -19.01449 -19.00890 -10.22021 -10.19033
 Alpha  occ. eigenvalues --  -10.17679 -10.16557 -10.16093 -10.15800 -10.14913
 Alpha  occ. eigenvalues --  -10.14522 -10.14420 -10.14188 -10.14129 -10.13349
 Alpha  occ. eigenvalues --  -10.12610  -1.04197  -0.93144  -0.90087  -0.82854
 Alpha  occ. eigenvalues --   -0.79235  -0.76300  -0.72469  -0.69388  -0.68918
 Alpha  occ. eigenvalues --   -0.64014  -0.59002  -0.56411  -0.56301  -0.52975
 Alpha  occ. eigenvalues --   -0.50335  -0.47565  -0.46915  -0.46374  -0.45396
 Alpha  occ. eigenvalues --   -0.42413  -0.41104  -0.40272  -0.39605  -0.38354
 Alpha  occ. eigenvalues --   -0.37451  -0.35778  -0.35495  -0.34267  -0.33429
 Alpha  occ. eigenvalues --   -0.32990  -0.32477  -0.30950  -0.30329  -0.27286
 Alpha  occ. eigenvalues --   -0.26404  -0.24459  -0.22463  -0.19880  -0.18629
 Alpha  occ. eigenvalues --   -0.18163  -0.11065
 Alpha virt. eigenvalues --   -0.00922  -0.00082   0.00248   0.00690   0.01363
 Alpha virt. eigenvalues --    0.02398   0.02415   0.02602   0.03600   0.03931
 Alpha virt. eigenvalues --    0.04604   0.05271   0.05836   0.06407   0.06590

  Beta  occ. eigenvalues --  -19.13057 -19.01449 -19.00890 -10.22021 -10.19033
  Beta  occ. eigenvalues --  -10.17679 -10.16557 -10.16093 -10.15800 -10.14913
  Beta  occ. eigenvalues --  -10.14522 -10.14420 -10.14188 -10.14129 -10.13349
  Beta  occ. eigenvalues --  -10.12610  -1.04197  -0.93144  -0.90087  -0.82854
  Beta  occ. eigenvalues --   -0.79235  -0.76300  -0.72469  -0.69388  -0.68918
  Beta  occ. eigenvalues --   -0.64014  -0.59002  -0.56411  -0.56301  -0.52975
  Beta  occ. eigenvalues --   -0.50335  -0.47565  -0.46915  -0.46374  -0.45396
  Beta  occ. eigenvalues --   -0.42413  -0.41104  -0.40272  -0.39605  -0.38354
  Beta  occ. eigenvalues --   -0.37451  -0.35778  -0.35495  -0.34267  -0.33429
  Beta  occ. eigenvalues --   -0.32990  -0.32477  -0.30950  -0.30329  -0.27286
  Beta  occ. eigenvalues --   -0.26404  -0.24459  -0.22463  -0.19880  -0.18629
  Beta  occ. eigenvalues --   -0.18163  -0.11065
  Beta virt. eigenvalues --   -0.00922  -0.00082   0.00248   0.00690   0.01363
  Beta virt. eigenvalues --    0.02398   0.02415   0.02602   0.03600   0.03931
  Beta virt. eigenvalues --    0.04604   0.05271   0.05836   0.06407   0.06590

 Mulliken charges and spin densities:
               1          2
     1  C   -0.041638   0.000000
     2  C   -0.482559   0.000000
     3  C   -0.420038  -0.000000
     4  C    0.526408   0.000000
     5  C    0.272403   0.000000
     6  C   -0.250807  -0.000000
     7  C   -0.587684  -0.000000
     8  C   -0.025712  -0.000000
     9  C    0.185649  -0.000000
    10  C   -0.261794   0.000000
    11  O   -0.735528   0.000000
    12  O   -0.722089   0.000000
    13  O   -0.193921  -0.000000
    14  C    0.076875  -0.000000
    15  C   -0.277831   0.000000
    16  C   -0.627499  -0.000000
    17  H    0.148266  -0.000000
    18  H    0.147115   0.000000
    19  H    0.165852  -0.000000
    20  H    0.102362   0.000000
    21  H    0.180875   0.000000
    22  H    0.154138  -0.000000
    23  H    0.162408  -0.000000
    24  H    0.212811   0.000000
    25  H    0.133611  -0.000000
    26  H    0.158326  -0.000000
 Sum of Mulliken charges =  -2.00000  -0.00000

 Dipole moment (field-independent basis, Debye):
    X=            -11.1310    Y=            -27.0790    Z=              9.4492  Tot=             30.7646
 Quadrupole moment (field-independent basis, Debye-Ang):
   XX=           -144.0377   YY=           -194.6890   ZZ=           -118.3721
   XY=            -44.4146   XZ=             17.3722   YZ=             32.2727

  Exact polarizability: 413.296  16.652 308.284 -31.743 -50.567 173.166
 Approx polarizability: 474.644  25.586 336.511 -39.464 -56.635 188.982

                      1                      2                      3
                      A                      A                      A
 Frequencies --     28.2656                56.0407                95.7943
 Red. masses --      3.5692                 3.4689                 4.3238
 Frc consts  --      0.0017                 0.0064                 0.0234
 IR Inten    --      2.0250                 4.7964                 5.2283

                      4                      5                      6
                      A                      A                      A
 Frequencies --    116.0552               129.9732               179.8644
 Red. masses --      8.0770                 4.4410                 7.8688
 Frc consts  --      0.0641                 0.0442                 0.1500
 IR Inten    --      0.0544                 3.7169                 3.0983

                      7                      8                      9
                      A                      A                      A
 Frequencies --    196.8620               212.8223               249.0148
 Red. masses --      1.6483                 4.4628                 5.4655
 Frc consts  --      0.0376                 0.1191                 0.1997
 IR Inten    --      3.5193                 8.5296                 4.2115

                     10                     11                     12
                      A                      A                      A
 Frequencies --    254.5262               350.2065               381.1705
 Red. masses --      5.3539                 6.5124                13.2920
 Frc consts  --      0.2044                 0.4706                 1.1378
 IR Inten    --      6.1179                 2.6164                 4.2085

                     13                     14                     15
                      A                      A                      A
 Frequencies --    383.2446               427.4797               429.2364
 Red. masses --      8.2094                 6.4279                 3.5041
 Frc consts  --      0.7104                 0.6921                 0.3804
 IR Inten    --      0.2025                26.8847                10.7692

                     16                     17                     18
                      A                      A                      A
 Frequencies --    470.4662               508.3372               528.4344
 Red. masses --      7.2965                 5.0451                 3.4088
 Frc consts  --      0.9515                 0.7681                 0.5608
 IR Inten    --      4.4219                 9.7194                12.3247

                     19                     20                     21
                      A                      A                      A
 Frequencies --    579.5817               604.1280               610.2046
 Red. masses --      1.2473                 3.9562                 5.9275
 Frc consts  --      0.2469                 0.8507                 1.3004
 IR Inten    --     20.8328                 8.9142                17.9438

                     22                     23                     24
                      A                      A                      A
 Frequencies --    669.6764               682.2601               713.8954
 Red. masses --      4.6943                 6.1037                 3.2619
 Frc consts  --      1.2404                 1.6740                 0.9795
 IR Inten    --      1.6300                38.6084                40.7695

                     25                     26                     27
                      A                      A                      A
 Frequencies --    720.7451               743.4498               762.3542
 Red. masses --      6.4903                 1.9451                 3.4518
 Frc consts  --      1.9864                 0.6334                 1.1820
 IR Inten    --     48.2450                83.2798                14.0799

                     28                     29                     30
                      A                      A                      A
 Frequencies --    821.0415               834.2991               845.6849
 Red. masses --      1.5251                 1.4611                 4.3828
 Frc consts  --      0.6057                 0.5992                 1.8468
 IR Inten    --     43.3975                 3.3213                54.1111

                     31                     32                     33
                      A                      A                      A
 Frequencies --    931.7889               941.6896               953.9507
 Red. masses --      2.9880                 1.3205                 1.3205
 Frc consts  --      1.5285                 0.6899                 0.7080
 IR Inten    --      0.4713                84.1220                 2.5011

                     34                     35                     36
                      A                      A                      A
 Frequencies --    972.1676               977.1231               992.2625
 Red. masses --      1.2454                 3.2445                 4.3649
 Frc consts  --      0.6935                 1.8251                 2.5321
 IR Inten    --      1.0828                 5.1918               153.7788

                     37                     38                     39
                      A                      A                      A
 Frequencies --   1018.8780              1020.3100              1045.7884
 Red. masses --      1.1664                 2.1082                 1.5208
 Frc consts  --      0.7134                 1.2931                 0.9800
 IR Inten    --      5.9508                34.2596                26.1034

                     40                     41                     42
                      A                      A                      A
 Frequencies --   1067.8973              1122.3196              1143.3180
 Red. masses --      2.6534                 1.6981                 1.4568
 Frc consts  --      1.7829                 1.2602                 1.1220
 IR Inten    --    507.2065                15.1726               153.4636

                     43                     44                     45
                      A                      A                      A
 Frequencies --   1153.2192              1198.8557              1211.0770
 Red. masses --      2.8484                 2.1855                 1.9815
 Frc consts  --      2.2319                 1.8507                 1.7124
 IR Inten    --    425.2501               105.9085               577.6917

                     46                     47                     48
                      A                      A                      A
 Frequencies --   1248.5737              1258.4749              1272.6414
 Red. masses --      3.4493                 1.0802                 2.5553
 Frc consts  --      3.1682                 1.0079                 2.4384
 IR Inten    --      7.2762                 1.8839               383.9738

                     49                     50                     51
                      A                      A                      A
 Frequencies --   1314.2770              1322.0057              1349.4394
 Red. masses --      1.3378                 4.4405                 6.8532
 Frc consts  --      1.3615                 4.5724                 7.3527
 IR Inten    --     70.0763               976.6641              1028.3477

                     52                     53                     54
                      A                      A                      A
 Frequencies --   1389.9961              1408.6895              1430.6716
 Red. masses --      2.3625                 2.0279                 2.4676
 Frc consts  --      2.6894                 2.3710                 2.9758
 IR Inten    --    608.3205               131.0411                19.9352

                     55                     56                     57
                      A                      A                      A
 Frequencies --   1437.4537              1460.6828              1489.6361
 Red. masses --      1.3219                 2.5959                 1.2006
 Frc consts  --      1.6093                 3.2633                 1.5697
 IR Inten    --      4.2764               318.8691                47.5767

                     58                     59                     60
                      A                      A                      A
 Frequencies --   1512.6370              1548.5846              1562.8536
 Red. masses --      2.6765                 7.6000                 7.2374
 Frc consts  --      3.6082                10.7382                10.4152
 IR Inten    --    179.3935                71.6314               336.7927

                     61                     62                     63
                      A                      A                      A
 Frequencies --   1607.8298              1698.9622              2960.2487
 Red. masses --      5.2569                 4.8409                 1.0550
 Frc consts  --      8.0068                 8.2327                 5.4468
 IR Inten    --     26.1448                25.3341                96.4356

                     64                     65                     66
                      A                      A                      A
 Frequencies --   2977.2798              3129.7024              3135.8305
 Red. masses --      1.1030                 1.0731                 1.0847
 Frc consts  --      5.7607                 6.1931                 6.2842
 IR Inten    --     64.8937                24.4636                24.0879

                     67                     68                     69
                      A                      A                      A
 Frequencies --   3143.0130              3153.0554              3160.9246
 Red. masses --      1.0755                 1.0880                 1.0876
 Frc consts  --      6.2600                 6.3728                 6.4022
 IR Inten    --     15.2354                21.7111                63.8763

                     70                     71                     72
                      A                      A                      A
 Frequencies --   3166.4165              3175.4184              3224.9323
 Red. masses --      1.0922                 1.0940                 1.1157
 Frc consts  --      6.4519                 6.4994                 6.8363
 IR Inten    --     52.6972                66.4716                15.8145

 - Thermochemistry -
 -------------------
 Temperature   298.150 Kelvin.  Pressure   1.00000 Atm.
 Atom     1 has atomic number  6 and mass  12.00000

 Molecular mass:   214.06299 amu.
 Principal axes and moments of inertia in atomic units:
                           1         2         3
     Eigenvalues --  2384.114954528.910326901.40583
           X           -0.18705   0.97753   0.09718
           Y            0.94343   0.15120   0.29508
           Z           -0.27376  -0.14688   0.95052
 This molecule is an asymmetric top.
 Rotational symmetry number  1.
 Warning -- assumption of classical behavior for rotation
           may cause significant error
 Rotational temperatures (Kelvin)      0.03633     0.01912     0.01255
 Rotational constants (GHZ):           0.75699     0.39849     0.26150
 Zero-point vibrational energy     507671.2 (Joules/Mol)
                                  121.33632 (Kcal/Mol)
 Warning -- explicit consideration of  21 degrees of freedom as
           vibrations may cause significant error
 Vibrational temperatures:     40.67    80.63   137.83   166.98   187.00
          (Kelvin)            258.78   283.24   306.20   358.28   366.21
                              503.87   548.42   551.40   615.05   617.58
                              676.90   731.38   760.30   833.89   869.21
                              877.95   963.51   981.62  1027.14  1036.99
                             1069.66  1096.86  1181.30  1200.37  1216.75
                             1340.64  1354.88  1372.52  1398.73  1405.86
                             1427.64  1465.94  1468.00  1504.66  1536.47
                             1614.77  1644.98  1659.23  1724.89  1742.47
                             1796.42  1810.66  1831.05  1890.95  1902.07
                             1941.54  1999.89  2026.79  2058.42  2068.18
                             2101.60  2143.25  2176.35  2228.07  2248.60
                             2313.31  2444.43  4259.14  4283.64  4502.94
                             4511.76  4522.09  4536.54  4547.87  4555.77
                             4568.72  4639.96

 Zero-point correction=                           0.193362 (Hartree/Particle)
 Thermal correction to Energy=                    0.206883
 Thermal correction to Enthalpy=                  0.207828
 Thermal correction to Gibbs Free Energy=         0.152287
 Sum of electronic and zero-point Energies=           -727.286333
 Sum of electronic and thermal Energies=              -727.272812
 Sum of electronic and thermal Enthalpies=            -727.271868
 Sum of electronic and thermal Free Energies=         -727.327408

                     E (Thermal)             CV                S
                      KCal/Mol        Cal/Mol-Kelvin    Cal/Mol-Kelvin
 Total                  129.821             52.423            116.894
 Electronic               0.000              0.000              0.000
 Translational            0.889              2.981             41.987
 Rotational               0.889              2.981             32.677
 Vibrational            128.044             46.462             42.230
 Vibration     1          0.593              1.984              5.948
 Vibration     2          0.596              1.975              4.592
 Vibration     3          0.603              1.952              3.538
 Vibration     4          0.608              1.936              3.165
 Vibration     5          0.612              1.923              2.946
 Vibration     6          0.629              1.867              2.330
 Vibration     7          0.636              1.844              2.162
 Vibration     8          0.644              1.821              2.019
 Vibration     9          0.662              1.764              1.738
 Vibration    10          0.665              1.755              1.699
 Vibration    11          0.727              1.575              1.165
 Vibration    12          0.751              1.510              1.035
 Vibration    13          0.752              1.506              1.026
 Vibration    14          0.789              1.410              0.867
 Vibration    15          0.791              1.407              0.861
 Vibration    16          0.827              1.316              0.736
 Vibration    17          0.864              1.232              0.638
 Vibration    18          0.883              1.187              0.591
 Vibration    19          0.936              1.075              0.486
 Vibration    20          0.963              1.023              0.443
 Vibration    21          0.969              1.010              0.432

 Optimization completed.
    -- Stationary point found.
 Normal termination of Gaussian 16 at Sun Feb 11 17:32:40 2024.
