 Gaussian 16, Revision A.03,
 Gaussian 16:  ES64L-G16RevA.03 25-Dec-2016

 ----------------------------------------------------------------
 #P UB3LYP/6-311++G(d,p) SCRF=(PCM,Solvent=n,n-DiMethylFormamide)
 ----------------------------------------------------------------

 ------------------
 Quinone PCM in DMF
 ------------------
 Symbolic Z-matrix:
 Charge =  0 Multiplicity = 1

                         Standard orientation:
 ---------------------------------------------------------------------
 Center     Atomic      Atomic             Coordinates (Angstroms)
 Number     Number       Type             X           Y           Z
 ---------------------------------------------------------------------
      1          6           0       -2.531904    1.016058   -0.048697
      2          6           0       -3.699369    0.246646   -0.119294
      3          6           0       -3.677227   -1.144960   -0.104833
      4          6           0       -1.291550    0.332053    0.026230
      5          6           0       -1.277835   -1.078619    0.027435
      6          6           0       -2.463869   -1.811473   -0.029864
      7          6           0       -0.000044    1.082896    0.130475
      8          6           0        1.291536    0.332090    0.026459
      9          6           0        1.277724   -1.078600    0.027231
     10          6           0       -0.000050   -1.842756    0.082297
     11          6           0        2.532012    1.015984   -0.048282
     12          6           0        3.699368    0.246454   -0.119315
     13          6           0        3.677081   -1.145145   -0.105410
     14          6           0        2.463673   -1.811549   -0.030475
     15          8           0       -0.000221    2.293470    0.305328
     16          8           0       -0.000019   -3.062383    0.149379
     17          6           0       -2.682708    2.518059   -0.066354
     18          1           0       -4.652235    0.760767   -0.185524
     19          1           0       -4.606048   -1.701969   -0.155258
     20          1           0       -2.404915   -2.892174   -0.018686
     21          6           0        2.683237    2.517948   -0.065440
     22          1           0        2.404603   -2.892247   -0.019563
     23          1           0        4.652282    0.760506   -0.185434
     24          1           0        4.605835   -1.702232   -0.156216
     25          1           0       -3.730845    2.779697   -0.226558
     26          1           0       -2.080000    2.979025   -0.850604
     27          1           0       -2.346572    2.965543    0.870712
     28          1           0        2.081244    2.979237   -0.850065
     29          1           0        3.731573    2.779272   -0.224882
     30          1           0        2.346548    2.965361    0.871438
 ---------------------------------------------------------------------

 SCF Done:  E(UB3LYP) =  -767.607553505     A.U. after   14 cycles

 The electronic state is 1-A.
 Alpha  occ. eigenvalues --  -19.12829 -19.12412 -10.28040 -10.28027 -10.21077
 Alpha  occ. eigenvalues --  -10.21076 -10.20856 -10.20854 -10.20568 -10.20567
 Alpha  occ. eigenvalues --  -10.19546 -10.19545 -10.19294 -10.19294 -10.19279
 Alpha  occ. eigenvalues --  -10.19279 -10.16852 -10.16851  -1.06426  -1.06128
 Alpha  occ. eigenvalues --   -0.89244  -0.88231  -0.81260  -0.79526  -0.79268
 Alpha  occ. eigenvalues --   -0.76772  -0.71539  -0.70067  -0.67949  -0.65109
 Alpha  occ. eigenvalues --   -0.64278  -0.59391  -0.57109  -0.55428  -0.54886
 Alpha  occ. eigenvalues --   -0.50120  -0.49182  -0.48602  -0.48585  -0.45927
 Alpha  occ. eigenvalues --   -0.45750  -0.44713  -0.44166  -0.43050  -0.42677
 Alpha  occ. eigenvalues --   -0.42625  -0.42539  -0.40069  -0.39628  -0.39499
 Alpha  occ. eigenvalues --   -0.37808  -0.37594  -0.37360  -0.37005  -0.36334
 Alpha  occ. eigenvalues --   -0.36161  -0.28739  -0.28297  -0.27440  -0.26798
 Alpha  occ. eigenvalues --   -0.26753  -0.26536
 Alpha virt. eigenvalues --   -0.11442  -0.06871  -0.03624  -0.02365  -0.00770
 Alpha virt. eigenvalues --    0.00129   0.00500   0.01558   0.01729   0.02454
 Alpha virt. eigenvalues --    0.03142   0.03340   0.03623   0.03908   0.03949

  Beta  occ. eigenvalues --  -19.12829 -19.12412 -10.28040 -10.28027 -10.21077
  Beta  occ. eigenvalues --  -10.21076 -10.20856 -10.20854 -10.20568 -10.20567
  Beta  occ. eigenvalues --  -10.19546 -10.19545 -10.19294 -10.19294 -10.19279
  Beta  occ. eigenvalues --  -10.19279 -10.16852 -10.16851  -1.06426  -1.06128
  Beta  occ. eigenvalues --   -0.89244  -0.88231  -0.81260  -0.79526  -0.79268
  Beta  occ. eigenvalues --   -0.76772  -0.71539  -0.70067  -0.67949  -0.65109
  Beta  occ. eigenvalues --   -0.64278  -0.59391  -0.57109  -0.55428  -0.54886
  Beta  occ. eigenvalues --   -0.50120  -0.49182  -0.48602  -0.48585  -0.45927
  Beta  occ. eigenvalues --   -0.45750  -0.44713  -0.44166  -0.43050  -0.42677
  Beta  occ. eigenvalues --   -0.42625  -0.42539  -0.40069  -0.39628  -0.39499
  Beta  occ. eigenvalues --   -0.37808  -0.37594  -0.37360  -0.37005  -0.36334
  Beta  occ. eigenvalues --   -0.36161  -0.28739  -0.28297  -0.27440  -0.26798
  Beta  occ. eigenvalues --   -0.26753  -0.26536
  Beta virt. eigenvalues --   -0.11442  -0.06871  -0.03624  -0.02365  -0.00770
  Beta virt. eigenvalues --    0.00129   0.00500   0.01558   0.01729   0.02454
  Beta virt. eigenvalues --    0.03142   0.03340   0.03623   0.03908   0.03949

 Mulliken charges and spin densities:
               1          2
     1  C    0.605492   0.000000
     2  C   -0.546319  -0.000000
     3  C   -0.343004  -0.000000
     4  C    0.330528   0.000000
     5  C    0.413065   0.000000
     6  C    0.094404   0.000000
     7  C   -1.014418  -0.000000
     8  C    0.330629  -0.000000
     9  C    0.413029   0.000000
    10  C   -0.788439  -0.000000
    11  C    0.605509   0.000000
    12  C   -0.546732  -0.000000
    13  C   -0.343476  -0.000000
    14  C    0.094713   0.000000
    15  O   -0.221231   0.000000
    16  O   -0.270058   0.000000
    17  C   -0.463803   0.000000
    18  H    0.146819  -0.000000
    19  H    0.219726  -0.000000
    20  H    0.180348   0.000000
    21  C   -0.463942   0.000000
    22  H    0.180351   0.000000
    23  H    0.146791  -0.000000
    24  H    0.219726  -0.000000
    25  H    0.161237   0.000000
    26  H    0.166250  -0.000000
    27  H    0.182642   0.000000
    28  H    0.166281  -0.000000
    29  H    0.161254  -0.000000
    30  H    0.182625  -0.000000
 Sum of Mulliken charges =  -0.00000  -0.00000

 Dipole moment (field-independent basis, Debye):
    X=              0.0008    Y=              1.5769    Z=             -0.8549  Tot=              1.7937
 Quadrupole moment (field-independent basis, Debye-Ang):
   XX=            -75.3455   YY=           -115.3574   ZZ=           -107.4259
   XY=              0.0017   XZ=             -0.0017   YZ=             -0.4892

 Normal termination of Gaussian 16 at Sun Jan 14 01:05:30 2024.
