 Gaussian 16, Revision A.03,
 Gaussian 16:  ES64L-G16RevA.03 25-Dec-2016

 ----------------------------------------------------------------
 #P UB3LYP/6-311++G(d,p) SCRF=(PCM,Solvent=n,n-DiMethylFormamide)
 ----------------------------------------------------------------

 ------------------
 Quinone PCM in DMF
 ------------------
 Symbolic Z-matrix:
 Charge =  0 Multiplicity = 1

                         Standard orientation:
 ---------------------------------------------------------------------
 Center     Atomic      Atomic             Coordinates (Angstroms)
 Number     Number       Type             X           Y           Z
 ---------------------------------------------------------------------
      1          6           0        3.570500   -1.698828    0.120660
      2          6           0        4.866310   -1.204071    0.206859
      3          6           0        5.091791    0.175315    0.201692
      4          6           0        2.487061   -0.819415    0.028856
      5          6           0        2.713889    0.568857    0.023575
      6          6           0        4.021152    1.056925    0.110378
      7          6           0        1.107468   -1.378641   -0.062662
      8          6           0       -0.022196   -0.405878   -0.152732
      9          6           0        0.205544    0.980902   -0.157708
     10          6           0        1.583683    1.539881   -0.072956
     11          6           0       -1.325807   -0.897952   -0.233114
     12          6           0       -2.388314   -0.011272   -0.318562
     13          6           0       -2.179626    1.369737   -0.330785
     14          6           0       -0.882552    1.855264   -0.247631
     15          8           0        0.906532   -2.581872   -0.063884
     16          8           0        1.782175    2.744050   -0.082099
     17          1           0        4.172929    2.129176    0.104726
     18          1           0       -0.690085    2.920828   -0.253393
     19          1           0        3.372660   -2.763558    0.122829
     20          1           0       -1.497170   -1.966678   -0.232051
     21          1           0       -3.018789    2.048012   -0.397353
     22          1           0        6.103382    0.559195    0.269188
     23          8           0       -3.652089   -0.569433   -0.475545
     24          6           0       -4.706558   -0.163598    0.313912
     25          6           0       -5.944998   -0.926803   -0.064661
     26          8           0       -4.612109    0.667925    1.171956
     27          1           0        5.702905   -1.889785    0.278216
     28          1           0       -5.790511   -1.992783    0.118517
     29          1           0       -6.150329   -0.804718   -1.130217
     30          1           0       -6.785146   -0.567588    0.525386
 ---------------------------------------------------------------------

 SCF Done:  E(UB3LYP) =  -916.910961914     A.U. after   15 cycles

 The electronic state is 1-A.
 Alpha  occ. eigenvalues --  -19.19760 -19.14011 -19.13600 -19.13401 -10.33107
 Alpha  occ. eigenvalues --  -10.28796 -10.28629 -10.26968 -10.21714 -10.21268
 Alpha  occ. eigenvalues --  -10.21185 -10.21133 -10.20718 -10.20591 -10.20566
 Alpha  occ. eigenvalues --  -10.20106 -10.20062 -10.20010 -10.19984 -10.18815
 Alpha  occ. eigenvalues --   -1.13740  -1.07108  -1.06842  -1.05856  -0.90091
 Alpha  occ. eigenvalues --   -0.88771  -0.82150  -0.79496  -0.78289  -0.78101
 Alpha  occ. eigenvalues --   -0.75816  -0.69961  -0.67815  -0.66216  -0.62713
 Alpha  occ. eigenvalues --   -0.61691  -0.59041  -0.56745  -0.54477  -0.51875
 Alpha  occ. eigenvalues --   -0.51388  -0.50692  -0.50264  -0.49261  -0.47688
 Alpha  occ. eigenvalues --   -0.46521  -0.46128  -0.45984  -0.45722  -0.45311
 Alpha  occ. eigenvalues --   -0.44898  -0.43537  -0.42774  -0.42347  -0.41086
 Alpha  occ. eigenvalues --   -0.40362  -0.39425  -0.38637  -0.38427  -0.37321
 Alpha  occ. eigenvalues --   -0.36997  -0.34913  -0.31058  -0.29254  -0.29192
 Alpha  occ. eigenvalues --   -0.28457  -0.28093  -0.27961  -0.27385
 Alpha virt. eigenvalues --   -0.12213  -0.07844  -0.04309  -0.03250  -0.01761
 Alpha virt. eigenvalues --   -0.00842  -0.00231   0.00833   0.01254   0.01982
 Alpha virt. eigenvalues --    0.02611   0.02991   0.03173   0.03551   0.03897

  Beta  occ. eigenvalues --  -19.19760 -19.14011 -19.13600 -19.13401 -10.33107
  Beta  occ. eigenvalues --  -10.28796 -10.28629 -10.26968 -10.21714 -10.21268
  Beta  occ. eigenvalues --  -10.21185 -10.21133 -10.20718 -10.20591 -10.20566
  Beta  occ. eigenvalues --  -10.20106 -10.20062 -10.20010 -10.19984 -10.18815
  Beta  occ. eigenvalues --   -1.13740  -1.07108  -1.06842  -1.05856  -0.90091
  Beta  occ. eigenvalues --   -0.88771  -0.82150  -0.79496  -0.78289  -0.78101
  Beta  occ. eigenvalues --   -0.75816  -0.69961  -0.67815  -0.66216  -0.62713
  Beta  occ. eigenvalues --   -0.61691  -0.59041  -0.56745  -0.54477  -0.51875
  Beta  occ. eigenvalues --   -0.51388  -0.50692  -0.50264  -0.49261  -0.47688
  Beta  occ. eigenvalues --   -0.46521  -0.46128  -0.45984  -0.45722  -0.45311
  Beta  occ. eigenvalues --   -0.44898  -0.43537  -0.42774  -0.42347  -0.41086
  Beta  occ. eigenvalues --   -0.40362  -0.39425  -0.38637  -0.38427  -0.37321
  Beta  occ. eigenvalues --   -0.36997  -0.34913  -0.31058  -0.29254  -0.29192
  Beta  occ. eigenvalues --   -0.28457  -0.28093  -0.27961  -0.27385
  Beta virt. eigenvalues --   -0.12213  -0.07844  -0.04309  -0.03250  -0.01761
  Beta virt. eigenvalues --   -0.00842  -0.00231   0.00833   0.01254   0.01982
  Beta virt. eigenvalues --    0.02611   0.02991   0.03173   0.03551   0.03897

 Mulliken charges and spin densities:
               1          2
     1  C    0.165533  -0.000000
     2  C   -0.420520   0.000000
     3  C   -0.417977  -0.000000
     4  C    0.287337  -0.000000
     5  C    0.129803   0.000000
     6  C    0.199666   0.000000
     7  C   -0.700419   0.000000
     8  C    0.450392  -0.000000
     9  C    0.267935   0.000000
    10  C   -0.590662   0.000000
    11  C    0.095589  -0.000000
    12  C   -0.523807   0.000000
    13  C    0.073804   0.000000
    14  C    0.192415   0.000000
    15  O   -0.263604  -0.000000
    16  O   -0.271103  -0.000000
    17  H    0.188789   0.000000
    18  H    0.197903  -0.000000
    19  H    0.186218   0.000000
    20  H    0.210735   0.000000
    21  H    0.240450  -0.000000
    22  H    0.208964  -0.000000
    23  O   -0.032637  -0.000000
    24  C    0.181278   0.000000
    25  C   -0.555026  -0.000000
    26  O   -0.284856  -0.000000
    27  H    0.209788   0.000000
    28  H    0.196565   0.000000
    29  H    0.196490  -0.000000
    30  H    0.180958  -0.000000
 Sum of Mulliken charges =  -0.00000  -0.00000

 Dipole moment (field-independent basis, Debye):
    X=             -0.0971    Y=             -1.5679    Z=             -1.5624  Tot=              2.2156
 Quadrupole moment (field-independent basis, Debye-Ang):
   XX=            -73.8915   YY=           -125.1071   ZZ=           -119.1448
   XY=              1.6166   XZ=             10.2471   YZ=             -3.3887

 Normal termination of Gaussian 16 at Sun Jan 14 01:05:14 2024.
