 Gaussian 16, Revision A.03,
 Gaussian 16:  ES64L-G16RevA.03 25-Dec-2016

 ----------------------------------------------------------------
 #P UB3LYP/6-311++G(d,p) SCRF=(PCM,Solvent=n,n-DiMethylFormamide)
 ----------------------------------------------------------------

 -------
 Reduced
 -------
 Symbolic Z-matrix:
 Charge = -2 Multiplicity = 1

                         Standard orientation:
 ---------------------------------------------------------------------
 Center     Atomic      Atomic             Coordinates (Angstroms)
 Number     Number       Type             X           Y           Z
 ---------------------------------------------------------------------
      1          6           0       -0.727017   -1.304318   -0.032639
      2          6           0        0.710779   -1.208062   -0.052160
      3          6           0        1.354527    0.029792   -0.001290
      4          6           0        0.727018    1.304320    0.032595
      5          6           0       -0.710777    1.208062    0.052168
      6          6           0       -1.354526   -0.029792    0.001282
      7          8           0        1.306521    2.463723   -0.003700
      8          8           0       -1.306529   -2.463727    0.003391
      9         35           0       -3.331919   -0.041199    0.004134
     10         35           0        3.331922    0.041198   -0.004079
     11          7           0       -1.385635    2.461686    0.077954
     12          7           0        1.385633   -2.461688   -0.077870
     13          1           0       -0.662069    3.153545   -0.131018
     14          1           0       -2.146731    2.501821   -0.594131
     15          1           0        0.662053   -3.153518    0.131148
     16          1           0        2.146720   -2.501796    0.594228
 ---------------------------------------------------------------------

 SCF Done:  E(UB3LYP) =  -5639.68655248     A.U. after   17 cycles

 The electronic state is 1-A.
 Alpha  occ. eigenvalues -- -482.80508-482.80508 -62.45783 -62.45783 -56.27781
 Alpha  occ. eigenvalues --  -56.27781 -56.27458 -56.27458 -56.27437 -56.27436
 Alpha  occ. eigenvalues --  -19.02730 -19.02729 -14.28739 -14.28739 -10.18354
 Alpha  occ. eigenvalues --  -10.18353 -10.18128 -10.18127 -10.17065 -10.17063
 Alpha  occ. eigenvalues --   -8.66731  -8.66730  -6.49739  -6.49739  -6.48667
 Alpha  occ. eigenvalues --   -6.48667  -6.48607  -6.48607  -2.60853  -2.60853
 Alpha  occ. eigenvalues --   -2.60557  -2.60557  -2.60513  -2.60512  -2.59660
 Alpha  occ. eigenvalues --   -2.59660  -2.59659  -2.59659  -0.94953  -0.94374
 Alpha  occ. eigenvalues --   -0.87500  -0.87486  -0.79609  -0.77494  -0.74117
 Alpha  occ. eigenvalues --   -0.66277  -0.64954  -0.55323  -0.54459  -0.51087
 Alpha  occ. eigenvalues --   -0.45324  -0.44259  -0.44122  -0.40762  -0.38641
 Alpha  occ. eigenvalues --   -0.37262  -0.36662  -0.36595  -0.33820  -0.33078
 Alpha  occ. eigenvalues --   -0.31694  -0.28531  -0.27645  -0.27610  -0.27229
 Alpha  occ. eigenvalues --   -0.26511  -0.21886  -0.21470  -0.20911  -0.18359
 Alpha  occ. eigenvalues --   -0.12029
 Alpha virt. eigenvalues --   -0.01189   0.00015   0.01357   0.01423   0.02762
 Alpha virt. eigenvalues --    0.03213   0.03756   0.04163   0.04512   0.05466
 Alpha virt. eigenvalues --    0.05565   0.06638   0.07413   0.07476   0.07788

  Beta  occ. eigenvalues -- -482.80508-482.80508 -62.45783 -62.45783 -56.27781
  Beta  occ. eigenvalues --  -56.27781 -56.27458 -56.27458 -56.27437 -56.27436
  Beta  occ. eigenvalues --  -19.02730 -19.02729 -14.28739 -14.28739 -10.18354
  Beta  occ. eigenvalues --  -10.18353 -10.18128 -10.18127 -10.17065 -10.17063
  Beta  occ. eigenvalues --   -8.66731  -8.66730  -6.49739  -6.49739  -6.48667
  Beta  occ. eigenvalues --   -6.48667  -6.48607  -6.48607  -2.60853  -2.60853
  Beta  occ. eigenvalues --   -2.60557  -2.60557  -2.60513  -2.60512  -2.59660
  Beta  occ. eigenvalues --   -2.59660  -2.59659  -2.59659  -0.94953  -0.94374
  Beta  occ. eigenvalues --   -0.87500  -0.87486  -0.79609  -0.77494  -0.74117
  Beta  occ. eigenvalues --   -0.66277  -0.64954  -0.55323  -0.54459  -0.51087
  Beta  occ. eigenvalues --   -0.45324  -0.44259  -0.44122  -0.40762  -0.38641
  Beta  occ. eigenvalues --   -0.37262  -0.36662  -0.36595  -0.33820  -0.33078
  Beta  occ. eigenvalues --   -0.31694  -0.28531  -0.27645  -0.27610  -0.27229
  Beta  occ. eigenvalues --   -0.26511  -0.21886  -0.21470  -0.20911  -0.18359
  Beta  occ. eigenvalues --   -0.12029
  Beta virt. eigenvalues --   -0.01189   0.00015   0.01357   0.01423   0.02762
  Beta virt. eigenvalues --    0.03213   0.03756   0.04163   0.04512   0.05466
  Beta virt. eigenvalues --    0.05565   0.06638   0.07413   0.07476   0.07788

 Mulliken charges and spin densities:
               1          2
     1  C   -0.774604  -0.000000
     2  C   -0.674501  -0.000000
     3  C    1.220631   0.000000
     4  C   -0.774692   0.000000
     5  C   -0.674275   0.000000
     6  C    1.220477  -0.000000
     7  O   -0.664682  -0.000000
     8  O   -0.664687   0.000000
     9  Br  -0.220098  -0.000000
    10  Br  -0.220100  -0.000000
    11  N   -0.383878  -0.000000
    12  N   -0.383863   0.000000
    13  H    0.269537   0.000000
    14  H    0.227600   0.000000
    15  H    0.269537   0.000000
    16  H    0.227599  -0.000000
 Sum of Mulliken charges =  -2.00000  -0.00000

 Dipole moment (field-independent basis, Debye):
    X=             -0.0000    Y=              0.0001    Z=              0.0010  Tot=              0.0010
 Quadrupole moment (field-independent basis, Debye-Ang):
   XX=           -142.0241   YY=           -144.4187   ZZ=           -105.0389
   XY=            -21.0705   XZ=              6.4055   YZ=             -8.7532

 Normal termination of Gaussian 16 at Sun Jan 21 07:38:29 2024.
