 Q-Chem 5.4, Q-Chem, Inc., Pleasanton, CA (2021)
 Q-Chem 5.4.0 for Intel X86 EM64T Linux

User input:
--------------------------------------------------------------
$molecule
0 1
C                 -3.4246530000      3.6025260000      0.0655600000
C                 -4.6081810000      2.8557760000      0.0258220000
C                 -4.6130620000      1.4641980000      0.0532920000
C                 -2.1966980000      2.8948040000      0.1222210000
C                 -2.2106460000      1.4842090000      0.1367920000
C                 -3.4117480000      0.7744990000      0.1103670000
C                 -0.8888630000      3.6208450000      0.1932920000
C                  0.3853670000      2.8436630000      0.0706730000
C                  0.3438940000      1.4335910000      0.0853630000
C                 -0.9472530000      0.6954460000      0.1734170000
C                  1.6372580000      3.5021220000     -0.0355280000
C                  2.7876130000      2.7089880000     -0.1225010000
C                  2.7383090000      1.3182920000     -0.0946960000
C                  1.5138220000      0.6767850000      0.0109870000
O                 -0.8617470000      4.8327540000      0.3563980000
O                 -0.9697970000     -0.5232680000      0.2522750000
C                 -3.5462810000      5.1069920000      0.0364060000
H                 -5.5519200000      3.3880390000     -0.0262640000
H                 -5.5534640000      0.9252580000      0.0268840000
H                 -3.3737980000     -0.3070080000      0.1308110000
C                  1.8175490000      5.0005710000     -0.0702370000
H                  1.4337900000     -0.4023830000      0.0335310000
H                  3.7488980000      3.2034230000     -0.2126750000
H                  3.6547340000      0.7424660000     -0.1587190000
H                 -4.5921090000      5.3878490000     -0.1052790000
H                 -2.9506330000      5.5486340000     -0.7641880000
H                 -3.1825400000      5.5563980000      0.9621750000
H                  1.2089730000      5.4664020000     -0.8470620000
H                  2.8673700000      5.2395830000     -0.2531800000
H                  1.5087270000      5.4632350000      0.8688310000
$end

$rem
BASIS  =  6-311++G(d,p)
GUI  =  2
JOB_TYPE  =  SP
METHOD  =  B3LYP
SCF_CONVERGENCE  = 8
SOLVENT_METHOD = sm12
$end

$smx
solvent dimethylformamide
charges CM5
$end

--------------------------------------------------------------

             Standard Nuclear Orientation (Angstroms)
    I     Atom           X                Y                Z
 ----------------------------------------------------------------
    1      C      -3.4246530000     3.6025260000     0.0655600000
    2      C      -4.6081810000     2.8557760000     0.0258220000
    3      C      -4.6130620000     1.4641980000     0.0532920000
    4      C      -2.1966980000     2.8948040000     0.1222210000
    5      C      -2.2106460000     1.4842090000     0.1367920000
    6      C      -3.4117480000     0.7744990000     0.1103670000
    7      C      -0.8888630000     3.6208450000     0.1932920000
    8      C       0.3853670000     2.8436630000     0.0706730000
    9      C       0.3438940000     1.4335910000     0.0853630000
   10      C      -0.9472530000     0.6954460000     0.1734170000
   11      C       1.6372580000     3.5021220000    -0.0355280000
   12      C       2.7876130000     2.7089880000    -0.1225010000
   13      C       2.7383090000     1.3182920000    -0.0946960000
   14      C       1.5138220000     0.6767850000     0.0109870000
   15      O      -0.8617470000     4.8327540000     0.3563980000
   16      O      -0.9697970000    -0.5232680000     0.2522750000
   17      C      -3.5462810000     5.1069920000     0.0364060000
   18      H      -5.5519200000     3.3880390000    -0.0262640000
   19      H      -5.5534640000     0.9252580000     0.0268840000
   20      H      -3.3737980000    -0.3070080000     0.1308110000
   21      C       1.8175490000     5.0005710000    -0.0702370000
   22      H       1.4337900000    -0.4023830000     0.0335310000
   23      H       3.7488980000     3.2034230000    -0.2126750000
   24      H       3.6547340000     0.7424660000    -0.1587190000
   25      H      -4.5921090000     5.3878490000    -0.1052790000
   26      H      -2.9506330000     5.5486340000    -0.7641880000
   27      H      -3.1825400000     5.5563980000     0.9621750000
   28      H       1.2089730000     5.4664020000    -0.8470620000
   29      H       2.8673700000     5.2395830000    -0.2531800000
   30      H       1.5087270000     5.4632350000     0.8688310000
 ----------------------------------------------------------------

   14    -767.5986767034      9.24e-09  Convergence criterion met
 Total energy in the final basis set =     -767.6179464556

                    Orbital Energies (a.u.)
 --------------------------------------------------------------

 Alpha MOs
 -- Occupied --
-19.1246 -19.1226 -10.2790 -10.2771 -10.2097 -10.2096 -10.2080 -10.2080
-10.2050 -10.2050 -10.1943 -10.1943 -10.1918 -10.1918 -10.1918 -10.1917
-10.1663 -10.1663  -1.0609  -1.0592  -0.8909  -0.8813  -0.8119  -0.7939
 -0.7913  -0.7668  -0.7138  -0.6989  -0.6781  -0.6500  -0.6417  -0.5927
 -0.5696  -0.5527  -0.5477  -0.4992  -0.4907  -0.4843  -0.4841  -0.4583
 -0.4536  -0.4435  -0.4407  -0.4287  -0.4248  -0.4239  -0.4235  -0.3988
 -0.3941  -0.3922  -0.3757  -0.3744  -0.3718  -0.3684  -0.3611  -0.3596
 -0.2860  -0.2800  -0.2737  -0.2665  -0.2664  -0.2639

          Ground-State Mulliken Net Atomic Charges

     Atom                 Charge (a.u.)
  ----------------------------------------
      1 C                     0.181387
      2 C                     0.363293
      3 C                     0.295340
      4 C                    -0.198923
      5 C                    -0.049845
      6 C                     0.065814
      7 C                    -1.839455
      8 C                    -0.199993
      9 C                    -0.049444
     10 C                    -1.661182
     11 C                     0.184442
     12 C                     0.366702
     13 C                     0.295230
     14 C                     0.069655
     15 O                    -0.179341
     16 O                    -0.259233
     17 C                     0.018327
     18 H                     0.254315
     19 H                     0.339751
     20 H                     0.178730
     21 C                     0.020135
     22 H                     0.178733
     23 H                     0.254518
     24 H                     0.339862
     25 H                     0.213758
     26 H                     0.142098
     27 H                     0.159569
     28 H                     0.142161
     29 H                     0.213926
     30 H                     0.159669
  ----------------------------------------
  Sum of atomic charges =     0.000000

                    Cartesian Multipole Moments
 -----------------------------------------------------------------
    Charge (ESU x 10^10)
                 0.0000
    Dipole Moment (Debye)
         X       0.0165      Y       1.3839      Z      -0.7274
       Tot       1.5635
    Quadrupole Moments (Debye-Ang)
        XX     -75.9480     XY      -1.9654     YY    -106.2682
        XZ       0.0222     YZ      -2.0495     ZZ    -107.6824

 Total job time:  709.59s(wall), 5559.67s(cpu)
        *  Thank you very much for using Q-Chem.  Have a nice day.  *
