 Gaussian 16, Revision A.03,
 Gaussian 16:  ES64L-G16RevA.03 25-Dec-2016

 --------------------------------------
 #P UB3LYP/6-311++G(d,p) nosym opt freq
 --------------------------------------

 --------
 Oxidized
 --------
 Symbolic Z-matrix:
 Charge =  0 Multiplicity = 1

 SCF Done:  E(UB3LYP) =  -767.600070408     A.U. after   15 cycles
 Optimization completed.
    -- Stationary point found.
 Normal termination of Gaussian 16 at Wed Dec 27 19:48:53 2023.

 ----------------------------------------------------------------------
 #P Geom=AllCheck Guess=TCheck SCRF=Check GenChk UB3LYP/6-311++G(d,p) F
 req
 ----------------------------------------------------------------------

 Structure from the checkpoint file:  "128.chk"
 --------
 Oxidized
 --------
 Charge =  0 Multiplicity = 1

                          Input orientation:
 ---------------------------------------------------------------------
 Center     Atomic      Atomic             Coordinates (Angstroms)
 Number     Number       Type             X           Y           Z
 ---------------------------------------------------------------------
      1          6           0       -3.424653    3.602526    0.065560
      2          6           0       -4.608181    2.855776    0.025822
      3          6           0       -4.613062    1.464198    0.053292
      4          6           0       -2.196698    2.894804    0.122221
      5          6           0       -2.210646    1.484209    0.136792
      6          6           0       -3.411748    0.774499    0.110367
      7          6           0       -0.888863    3.620845    0.193292
      8          6           0        0.385367    2.843663    0.070673
      9          6           0        0.343894    1.433591    0.085363
     10          6           0       -0.947253    0.695446    0.173417
     11          6           0        1.637258    3.502122   -0.035528
     12          6           0        2.787613    2.708988   -0.122501
     13          6           0        2.738309    1.318292   -0.094696
     14          6           0        1.513822    0.676785    0.010987
     15          8           0       -0.861747    4.832754    0.356398
     16          8           0       -0.969797   -0.523268    0.252275
     17          6           0       -3.546281    5.106992    0.036406
     18          1           0       -5.551920    3.388039   -0.026264
     19          1           0       -5.553464    0.925258    0.026884
     20          1           0       -3.373798   -0.307008    0.130811
     21          6           0        1.817549    5.000571   -0.070237
     22          1           0        1.433790   -0.402383    0.033531
     23          1           0        3.748898    3.203423   -0.212675
     24          1           0        3.654734    0.742466   -0.158719
     25          1           0       -4.592109    5.387849   -0.105279
     26          1           0       -2.950633    5.548634   -0.764188
     27          1           0       -3.182540    5.556398    0.962175
     28          1           0        1.208973    5.466402   -0.847062
     29          1           0        2.867370    5.239583   -0.253180
     30          1           0        1.508727    5.463235    0.868831
 ---------------------------------------------------------------------

 SCF Done:  E(UB3LYP) =  -767.600070408     A.U. after    1 cycles

 Alpha  occ. eigenvalues --  -19.12088 -19.12068 -10.27708 -10.27336 -10.21068
 Alpha  occ. eigenvalues --  -10.21067 -10.20742 -10.20740 -10.20396 -10.20395
 Alpha  occ. eigenvalues --  -10.19710 -10.19709 -10.19447 -10.19447 -10.19189
 Alpha  occ. eigenvalues --  -10.19188 -10.16986 -10.16984  -1.05822  -1.05529
 Alpha  occ. eigenvalues --   -0.89141  -0.88194  -0.81215  -0.79499  -0.79240
 Alpha  occ. eigenvalues --   -0.76794  -0.71474  -0.70088  -0.67855  -0.65138
 Alpha  occ. eigenvalues --   -0.64270  -0.59437  -0.57000  -0.55327  -0.54760
 Alpha  occ. eigenvalues --   -0.49885  -0.49227  -0.48692  -0.48657  -0.45689
 Alpha  occ. eigenvalues --   -0.45218  -0.44216  -0.44130  -0.42997  -0.42714
 Alpha  occ. eigenvalues --   -0.42482  -0.42171  -0.40006  -0.39712  -0.39658
 Alpha  occ. eigenvalues --   -0.37924  -0.37548  -0.37408  -0.37044  -0.36171
 Alpha  occ. eigenvalues --   -0.36032  -0.28532  -0.27644  -0.27361  -0.26659
 Alpha  occ. eigenvalues --   -0.26619  -0.26185
 Alpha virt. eigenvalues --   -0.11085  -0.06723  -0.03634  -0.02326  -0.00994
 Alpha virt. eigenvalues --   -0.00522   0.00411   0.01280   0.01361   0.02624
 Alpha virt. eigenvalues --    0.03241   0.03295   0.03433   0.03695   0.04154

  Beta  occ. eigenvalues --  -19.12088 -19.12068 -10.27708 -10.27336 -10.21068
  Beta  occ. eigenvalues --  -10.21067 -10.20742 -10.20740 -10.20396 -10.20395
  Beta  occ. eigenvalues --  -10.19710 -10.19709 -10.19447 -10.19447 -10.19189
  Beta  occ. eigenvalues --  -10.19188 -10.16986 -10.16984  -1.05822  -1.05529
  Beta  occ. eigenvalues --   -0.89141  -0.88194  -0.81215  -0.79499  -0.79240
  Beta  occ. eigenvalues --   -0.76794  -0.71474  -0.70088  -0.67855  -0.65138
  Beta  occ. eigenvalues --   -0.64270  -0.59437  -0.57000  -0.55327  -0.54760
  Beta  occ. eigenvalues --   -0.49885  -0.49227  -0.48692  -0.48657  -0.45689
  Beta  occ. eigenvalues --   -0.45218  -0.44216  -0.44130  -0.42997  -0.42714
  Beta  occ. eigenvalues --   -0.42482  -0.42171  -0.40006  -0.39712  -0.39658
  Beta  occ. eigenvalues --   -0.37924  -0.37548  -0.37408  -0.37044  -0.36171
  Beta  occ. eigenvalues --   -0.36032  -0.28532  -0.27644  -0.27361  -0.26659
  Beta  occ. eigenvalues --   -0.26619  -0.26185
  Beta virt. eigenvalues --   -0.11085  -0.06723  -0.03634  -0.02326  -0.00994
  Beta virt. eigenvalues --   -0.00522   0.00411   0.01280   0.01361   0.02624
  Beta virt. eigenvalues --    0.03241   0.03295   0.03433   0.03695   0.04154

 Mulliken charges and spin densities:
               1          2
     1  C    0.599062   0.000000
     2  C   -0.529661  -0.000000
     3  C   -0.289169   0.000000
     4  C    0.328872   0.000000
     5  C    0.424766   0.000000
     6  C    0.078598  -0.000000
     7  C   -1.044390   0.000000
     8  C    0.328901  -0.000000
     9  C    0.424570  -0.000000
    10  C   -0.863461   0.000000
    11  C    0.599301  -0.000000
    12  C   -0.530075   0.000000
    13  C   -0.289779   0.000000
    14  C    0.079148  -0.000000
    15  O   -0.181482   0.000000
    16  O   -0.205602  -0.000000
    17  C   -0.445416  -0.000000
    18  H    0.114828  -0.000000
    19  H    0.189718   0.000000
    20  H    0.180924  -0.000000
    21  C   -0.445526  -0.000000
    22  H    0.180930  -0.000000
    23  H    0.114800   0.000000
    24  H    0.189715   0.000000
    25  H    0.143037   0.000000
    26  H    0.165439  -0.000000
    27  H    0.186729   0.000000
    28  H    0.165464   0.000000
    29  H    0.143051   0.000000
    30  H    0.186709   0.000000
 Sum of Mulliken charges =  -0.00000  -0.00000

 Dipole moment (field-independent basis, Debye):
    X=              0.0101    Y=              1.1238    Z=             -0.6349  Tot=              1.2908
 Quadrupole moment (field-independent basis, Debye-Ang):
   XX=            -82.2829   YY=           -107.1891   ZZ=           -107.4493
   XY=             -1.6118   XZ=              0.0694   YZ=             -1.8155

  Exact polarizability: 269.698  -0.976 221.343  -3.467  -0.734  97.808
 Approx polarizability: 393.906   0.226 405.511  -4.679   0.194 161.007

                      1                      2                      3
                      A                      A                      A
 Frequencies --     19.6123                54.5615                72.8999
 Red. masses --      6.3884                 3.5332                 5.2928
 Frc consts  --      0.0014                 0.0062                 0.0166
 IR Inten    --      5.1838                 0.0054                 0.2822

                      4                      5                      6
                      A                      A                      A
 Frequencies --    155.6366               193.9831               200.1715
 Red. masses --      6.6181                 3.0772                 3.6928
 Frc consts  --      0.0945                 0.0682                 0.0872
 IR Inten    --      0.5910                 0.0242                 0.4769

                      7                      8                      9
                      A                      A                      A
 Frequencies --    210.2196               231.5470               244.8899
 Red. masses --      2.5832                 1.0813                 1.2317
 Frc consts  --      0.0673                 0.0342                 0.0435
 IR Inten    --      3.3640                 0.0975                 0.0393

                     10                     11                     12
                      A                      A                      A
 Frequencies --    254.0566               310.9994               338.5626
 Red. masses --      4.2829                 4.3894                 5.3747
 Frc consts  --      0.1629                 0.2501                 0.3630
 IR Inten    --      0.0051                 0.0596                 0.2561

                     13                     14                     15
                      A                      A                      A
 Frequencies --    359.4971               412.0151               418.2958
 Red. masses --      6.9565                12.5067                 3.9532
 Frc consts  --      0.5297                 1.2509                 0.4075
 IR Inten    --      0.5489                25.2094                 0.2968

                     16                     17                     18
                      A                      A                      A
 Frequencies --    430.6951               440.4951               474.4642
 Red. masses --      5.1106                 3.7188                 7.1062
 Frc consts  --      0.5585                 0.4251                 0.9425
 IR Inten    --      0.4722                 0.5359                 1.1981

                     19                     20                     21
                      A                      A                      A
 Frequencies --    489.9986               495.9155               532.8162
 Red. masses --      4.0849                 3.8621                 3.7563
 Frc consts  --      0.5779                 0.5596                 0.6283
 IR Inten    --      5.8680                 0.0046                 0.0398

                     22                     23                     24
                      A                      A                      A
 Frequencies --    551.3797               557.4932               632.6408
 Red. masses --      5.8345                 4.5414                 6.1694
 Frc consts  --      1.0451                 0.8316                 1.4548
 IR Inten    --      2.9794                 1.2277                 1.0920

                     25                     26                     27
                      A                      A                      A
 Frequencies --    672.2981               706.2552               736.1067
 Red. masses --      4.2966                 6.7481                 3.8433
 Frc consts  --      1.1442                 1.9831                 1.2270
 IR Inten    --      4.3164                 3.0649                 0.1626

                     28                     29                     30
                      A                      A                      A
 Frequencies --    747.9187               788.5286               805.0626
 Red. masses --      2.4295                 6.0889                 1.3086
 Frc consts  --      0.8007                 2.2306                 0.4997
 IR Inten    --     61.9099                 0.0043                 1.4985

                     31                     32                     33
                      A                      A                      A
 Frequencies --    813.4925               814.3412               835.2526
 Red. masses --      6.1737                 4.4580                 2.1825
 Frc consts  --      2.4071                 1.7418                 0.8971
 IR Inten    --     39.2358                 8.1827                22.6735

                     34                     35                     36
                      A                      A                      A
 Frequencies --    921.1075               929.3650               944.7561
 Red. masses --      5.7931                 4.0495                 1.3236
 Frc consts  --      2.8959                 2.0608                 0.6961
 IR Inten    --     14.5562                 2.0945                 0.0008

                     37                     38                     39
                      A                      A                      A
 Frequencies --    949.2171              1001.2602              1012.5904
 Red. masses --      1.3728                 1.9352                 1.3355
 Frc consts  --      0.7287                 1.1431                 0.8068
 IR Inten    --      1.2206                26.9723                 0.1327

                     40                     41                     42
                      A                      A                      A
 Frequencies --   1014.3216              1039.8885              1052.3838
 Red. masses --      1.3464                 1.6702                 2.6854
 Frc consts  --      0.8162                 1.0641                 1.7523
 IR Inten    --      0.8216                 0.2708                27.1447

                     43                     44                     45
                      A                      A                      A
 Frequencies --   1057.6157              1058.7350              1098.7791
 Red. masses --      1.6404                 1.5714                 2.6113
 Frc consts  --      1.0811                 1.0378                 1.8575
 IR Inten    --      6.1067                 4.8074                 0.1802

                     46                     47                     48
                      A                      A                      A
 Frequencies --   1130.9259              1174.1425              1192.5504
 Red. masses --      1.5895                 2.3110                 1.2132
 Frc consts  --      1.1978                 1.8771                 1.0166
 IR Inten    --      6.1841                 8.2191                 0.7662

                     49                     50                     51
                      A                      A                      A
 Frequencies --   1193.6799              1232.7271              1250.7484
 Red. masses --      1.2750                 3.5125                 3.3371
 Frc consts  --      1.0704                 3.1449                 3.0758
 IR Inten    --      0.1365                11.6875               105.9435

                     52                     53                     54
                      A                      A                      A
 Frequencies --   1267.2037              1272.2034              1326.1551
 Red. masses --      2.0413                 3.0848                 3.9897
 Frc consts  --      1.9313                 2.9417                 4.1341
 IR Inten    --      0.1624               290.8640               169.5540

                     55                     56                     57
                      A                      A                      A
 Frequencies --   1343.2628              1343.6996              1419.8662
 Red. masses --      6.7352                 7.1841                 1.2252
 Frc consts  --      7.1602                 7.6423                 1.4553
 IR Inten    --      1.7662               115.4424                 1.4664

                     58                     59                     60
                      A                      A                      A
 Frequencies --   1420.7520              1447.3137              1459.3430
 Red. masses --      1.2180                 2.5591                 2.2528
 Frc consts  --      1.4485                 3.1583                 2.8267
 IR Inten    --     13.9257                51.0407                 0.1876

                     61                     62                     63
                      A                      A                      A
 Frequencies --   1475.9892              1476.7780              1481.7313
 Red. masses --      1.0521                 1.0609                 1.9746
 Frc consts  --      1.3504                 1.3631                 2.5543
 IR Inten    --      0.0266                15.3524                 1.5347

                     64                     65                     66
                      A                      A                      A
 Frequencies --   1487.5796              1496.0133              1497.8636
 Red. masses --      1.6255                 1.6467                 1.4591
 Frc consts  --      2.1194                 2.1713                 1.9288
 IR Inten    --      6.8862                 3.5830                 3.3757

                     67                     68                     69
                      A                      A                      A
 Frequencies --   1605.9374              1607.7068              1624.2765
 Red. masses --      6.2156                 5.8225                 5.5800
 Frc consts  --      9.4448                 8.8669                 8.6737
 IR Inten    --      1.1716                68.5361                 0.0500

                     70                     71                     72
                      A                      A                      A
 Frequencies --   1626.5596              1706.5415              1719.4636
 Red. masses --      6.5812                11.6525                12.0493
 Frc consts  --     10.2588                19.9942                20.9893
 IR Inten    --     57.7475                69.7365               269.5742

                     73                     74                     75
                      A                      A                      A
 Frequencies --   3040.9892              3041.1847              3103.3794
 Red. masses --      1.0360                 1.0360                 1.0992
 Frc consts  --      5.6449                 5.6455                 6.2370
 IR Inten    --     17.7042                28.6763                 0.2317

                     76                     77                     78
                      A                      A                      A
 Frequencies --   3103.9481              3108.2573              3108.7822
 Red. masses --      1.0992                 1.1026                 1.1025
 Frc consts  --      6.2397                 6.2760                 6.2778
 IR Inten    --     14.6519                48.8712                 3.2139

                     79                     80                     81
                      A                      A                      A
 Frequencies --   3163.4879              3163.5602              3181.0610
 Red. masses --      1.0875                 1.0875                 1.0931
 Frc consts  --      6.4121                 6.4123                 6.5172
 IR Inten    --      5.0183                11.0641                34.6342

                     82                     83                     84
                      A                      A                      A
 Frequencies --   3181.1904              3205.7073              3206.1717
 Red. masses --      1.0931                 1.0933                 1.0935
 Frc consts  --      6.5175                 6.6198                 6.6231
 IR Inten    --      0.8475                10.0972                 0.1230

 - Thermochemistry -
 -------------------
 Temperature   298.150 Kelvin.  Pressure   1.00000 Atm.
 Atom     1 has atomic number  6 and mass  12.00000

 Molecular mass:   236.08373 amu.
 Principal axes and moments of inertia in atomic units:
                           1         2         3
     Eigenvalues --  2460.351644844.418307260.77653
           X            0.99960   0.01965   0.02021
           Y           -0.01982   0.99977   0.00804
           Z           -0.02005  -0.00844   0.99976
 This molecule is an asymmetric top.
 Rotational symmetry number  1.
 Warning -- assumption of classical behavior for rotation
           may cause significant error
 Rotational temperatures (Kelvin)      0.03520     0.01788     0.01193
 Rotational constants (GHZ):           0.73353     0.37254     0.24856
 Zero-point vibrational energy     615902.5 (Joules/Mol)
                                  147.20423 (Kcal/Mol)
 Warning -- explicit consideration of  23 degrees of freedom as
           vibrations may cause significant error
 Vibrational temperatures:     28.22    78.50   104.89   223.93   279.10
          (Kelvin)            288.00   302.46   333.14   352.34   365.53
                              447.46   487.12   517.24   592.80   601.83
                              619.67   633.77   682.65   705.00   713.51
                              766.60   793.31   802.11   910.23   967.29
                             1016.14  1059.09  1076.09  1134.52  1158.31
                             1170.43  1171.66  1201.74  1325.27  1337.15
                             1359.29  1365.71  1440.59  1456.89  1459.38
                             1496.17  1514.15  1521.67  1523.28  1580.90
                             1627.15  1689.33  1715.81  1717.44  1773.62
                             1799.55  1823.22  1830.42  1908.04  1932.66
                             1933.28  2042.87  2044.15  2082.36  2099.67
                             2123.62  2124.75  2131.88  2140.30  2152.43
                             2155.09  2310.59  2313.13  2336.97  2340.26
                             2455.33  2473.92  4375.31  4375.59  4465.07
                             4465.89  4472.09  4472.84  4551.55  4551.66
                             4576.84  4577.02  4612.30  4612.97

 Zero-point correction=                           0.234585 (Hartree/Particle)
 Thermal correction to Energy=                    0.248897
 Thermal correction to Enthalpy=                  0.249842
 Thermal correction to Gibbs Free Energy=         0.192847
 Sum of electronic and zero-point Energies=           -767.365486
 Sum of electronic and thermal Energies=              -767.351173
 Sum of electronic and thermal Enthalpies=            -767.350229
 Sum of electronic and thermal Free Energies=         -767.407224

                     E (Thermal)             CV                S
                      KCal/Mol        Cal/Mol-Kelvin    Cal/Mol-Kelvin
 Total                  156.185             57.267            119.956
 Electronic               0.000              0.000              0.000
 Translational            0.889              2.981             42.279
 Rotational               0.889              2.981             32.826
 Vibrational            154.408             51.305             44.852
 Vibration     1          0.593              1.986              6.673
 Vibration     2          0.596              1.976              4.645
 Vibration     3          0.599              1.967              4.073
 Vibration     4          0.620              1.896              2.602
 Vibration     5          0.635              1.848              2.189
 Vibration     6          0.638              1.840              2.132
 Vibration     7          0.642              1.825              2.042
 Vibration     8          0.653              1.793              1.867
 Vibration     9          0.660              1.771              1.767
 Vibration    10          0.665              1.756              1.702
 Vibration    11          0.700              1.653              1.357
 Vibration    12          0.719              1.598              1.219
 Vibration    13          0.734              1.556              1.124
 Vibration    14          0.776              1.444              0.920
 Vibration    15          0.781              1.430              0.898
 Vibration    16          0.792              1.403              0.856
 Vibration    17          0.800              1.382              0.825
 Vibration    18          0.831              1.307              0.725
 Vibration    19          0.846              1.272              0.684
 Vibration    20          0.851              1.259              0.668
 Vibration    21          0.888              1.177              0.581
 Vibration    22          0.907              1.137              0.541
 Vibration    23          0.913              1.123              0.529

                           ! Non-Optimized Parameters !
 Normal termination of Gaussian 16 at Wed Dec 27 20:34:11 2023.
