 Q-Chem 5.4, Q-Chem, Inc., Pleasanton, CA (2021)
 Q-Chem 5.4.0 for Intel X86 EM64T Linux

User input:
--------------------------------------------------------------
$molecule
0 1
C                  5.1095050000     -2.8445280000      0.1266160000
C                  5.9215700000     -2.2046650000     -0.8001110000
C                  5.3439800000     -1.2933380000     -1.6855800000
C                  3.7384050000     -2.5740450000      0.1669900000
C                  3.1739850000     -1.6560410000     -0.7354180000
C                  3.9864480000     -1.0118490000     -1.6723760000
C                  2.8950890000     -3.2803380000      1.1804310000
C                  1.4344330000     -2.9720860000      1.1938180000
C                  0.8700070000     -2.0541040000      0.2913840000
C                  1.7133210000     -1.3478360000     -0.7220750000
C                  0.6219790000     -3.6162330000      2.1308110000
C                 -0.5010850000     -1.7836080000      0.3317730000
C                 -1.3131400000     -2.4234230000      1.2585480000
O                  3.3821740000     -4.0761800000      1.9616350000
O                  1.2262240000     -0.5520660000     -1.5033470000
H                  5.5194100000     -3.5596380000      0.8285690000
H                  6.9834730000     -2.4092560000     -0.8519980000
S                  6.3931780000     -0.4662390000     -2.8846310000
H                 -2.3750320000     -2.2187730000      1.3104430000
H                  3.5459310000     -0.3147260000     -2.3738220000
H                  1.0624760000     -4.3133430000      2.8322820000
H                 -0.9110060000     -1.0685180000     -0.3701910000
C                 -0.7355500000     -3.3347090000      2.1440510000
S                 -1.7847200000     -4.1617220000      3.3431920000
O                 -0.9982250000     -4.5473830000      4.5053470000
O                 -3.0159230000     -3.4023860000      3.5101290000
O                 -2.0985070000     -5.4976380000      2.4471690000
C                 -2.9091190000     -6.5170660000      3.0879970000
H                 -2.4080920000     -6.8904970000      3.9822510000
H                 -2.9962820000     -7.3074490000      2.3462710000
H                 -3.8949340000     -6.1180790000      3.3322530000
O                  5.6068440000     -0.0811950000     -4.0471060000
O                  7.6246250000     -1.2252920000     -3.0510250000
O                  6.7062040000      0.8700130000     -1.9888560000
C                  7.5155650000      1.8901410000     -2.6301400000
H                  7.0138930000      2.2628410000     -3.5243350000
H                  8.5017280000      1.4921280000     -2.8745890000
H                  7.6021210000      2.6807750000     -1.8886110000
$end
$rem
MAX_SCF_CYCLES=200
BASIS  =  6-311++G(d,p)
GUI  =  2
JOB_TYPE  =  SP
METHOD  =  B3LYP
SOLVENT_METHOD = PCM
$end
$pcm
theory = CPCM
$end
$solvent
dielectric 37.219
opticaldielectric 1.43
$end

--------------------------------------------------------------

             Standard Nuclear Orientation (Angstroms)
    I     Atom           X                Y                Z
 ----------------------------------------------------------------
    1      C       5.1095050000    -2.8445280000     0.1266160000
    2      C       5.9215700000    -2.2046650000    -0.8001110000
    3      C       5.3439800000    -1.2933380000    -1.6855800000
    4      C       3.7384050000    -2.5740450000     0.1669900000
    5      C       3.1739850000    -1.6560410000    -0.7354180000
    6      C       3.9864480000    -1.0118490000    -1.6723760000
    7      C       2.8950890000    -3.2803380000     1.1804310000
    8      C       1.4344330000    -2.9720860000     1.1938180000
    9      C       0.8700070000    -2.0541040000     0.2913840000
   10      C       1.7133210000    -1.3478360000    -0.7220750000
   11      C       0.6219790000    -3.6162330000     2.1308110000
   12      C      -0.5010850000    -1.7836080000     0.3317730000
   13      C      -1.3131400000    -2.4234230000     1.2585480000
   14      O       3.3821740000    -4.0761800000     1.9616350000
   15      O       1.2262240000    -0.5520660000    -1.5033470000
   16      H       5.5194100000    -3.5596380000     0.8285690000
   17      H       6.9834730000    -2.4092560000    -0.8519980000
   18      S       6.3931780000    -0.4662390000    -2.8846310000
   19      H      -2.3750320000    -2.2187730000     1.3104430000
   20      H       3.5459310000    -0.3147260000    -2.3738220000
   21      H       1.0624760000    -4.3133430000     2.8322820000
   22      H      -0.9110060000    -1.0685180000    -0.3701910000
   23      C      -0.7355500000    -3.3347090000     2.1440510000
   24      S      -1.7847200000    -4.1617220000     3.3431920000
   25      O      -0.9982250000    -4.5473830000     4.5053470000
   26      O      -3.0159230000    -3.4023860000     3.5101290000
   27      O      -2.0985070000    -5.4976380000     2.4471690000
   28      C      -2.9091190000    -6.5170660000     3.0879970000
   29      H      -2.4080920000    -6.8904970000     3.9822510000
   30      H      -2.9962820000    -7.3074490000     2.3462710000
   31      H      -3.8949340000    -6.1180790000     3.3322530000
   32      O       5.6068440000    -0.0811950000    -4.0471060000
   33      O       7.6246250000    -1.2252920000    -3.0510250000
   34      O       6.7062040000     0.8700130000    -1.9888560000
   35      C       7.5155650000     1.8901410000    -2.6301400000
   36      H       7.0138930000     2.2628410000    -3.5243350000
   37      H       8.5017280000     1.4921280000    -2.8745890000
   38      H       7.6021210000     2.6807750000    -1.8886110000
 ----------------------------------------------------------------

    9   -2015.3785729230      4.86e-06  Convergence criterion met
 Total energy in the final basis set =    -2015.3785729230

                    Orbital Energies (a.u.)
 --------------------------------------------------------------

 Alpha MOs
 -- Occupied --
-89.1041 -89.1041 -19.1901 -19.1901 -19.1524 -19.1524 -19.1520 -19.1520
-19.1475 -19.1475 -10.2998 -10.2998 -10.2483 -10.2483 -10.2346 -10.2345
-10.2301 -10.2301 -10.2290 -10.2290 -10.2256 -10.2256 -10.2242 -10.2242
-10.2154 -10.2154  -8.1651  -8.1651  -6.1287  -6.1287  -6.1271  -6.1271
 -6.1258  -6.1258  -1.1733  -1.1733  -1.0838  -1.0821  -1.0622  -1.0622
 -1.0472  -1.0472  -0.9191  -0.9105  -0.8463  -0.8164  -0.8035  -0.8000
 -0.7598  -0.7516  -0.7112  -0.7005  -0.6766  -0.6601  -0.6350  -0.6252
 -0.6068  -0.5881  -0.5807  -0.5654  -0.5427  -0.5379  -0.5282  -0.5269
 -0.5132  -0.5080  -0.5007  -0.4878  -0.4751  -0.4736  -0.4734  -0.4726
 -0.4694  -0.4676  -0.4674  -0.4621  -0.4610  -0.4398  -0.4349  -0.4241
 -0.4186  -0.4169  -0.4133  -0.4040  -0.3929  -0.3907  -0.3696  -0.3695
 -0.3660  -0.3653  -0.3546  -0.3543  -0.3503  -0.3502  -0.3177  -0.3176
 -0.3110  -0.3040  -0.3018  -0.3001  -0.2957  -0.2917

          Ground-State Mulliken Net Atomic Charges

     Atom                 Charge (a.u.)
  ----------------------------------------
      1 C                     0.060038
      2 C                    -0.260476
      3 C                    -0.941115
      4 C                     0.597671
      5 C                     0.253967
      6 C                     0.186509
      7 C                    -0.674202
      8 C                     0.257448
      9 C                     0.596049
     10 C                    -0.674591
     11 C                     0.189489
     12 C                     0.057789
     13 C                    -0.262409
     14 O                    -0.234966
     15 O                    -0.234878
     16 H                     0.213207
     17 H                     0.279178
     18 S                     0.292540
     19 H                     0.279055
     20 H                     0.251393
     21 H                     0.251323
     22 H                     0.213166
     23 C                    -0.939366
     24 S                     0.292487
     25 O                    -0.219129
     26 O                    -0.191209
     27 O                    -0.042017
     28 C                    -0.147557
     29 H                     0.186060
     30 H                     0.203770
     31 H                     0.185412
     32 O                    -0.219315
     33 O                    -0.190887
     34 O                    -0.042134
     35 C                    -0.147671
     36 H                     0.186060
     37 H                     0.185434
     38 H                     0.203767
  ----------------------------------------
  Sum of atomic charges =    -0.000113

                    Cartesian Multipole Moments
 -----------------------------------------------------------------
    Charge (ESU x 10^10)
                -0.0005
    Dipole Moment (Debye)
         X      -0.0040      Y       0.0038      Z      -0.0016
       Tot       0.0057
    Quadrupole Moments (Debye-Ang)
        XX    -154.3828     XY      28.2020     YY    -139.7523
        XZ      17.1908     YZ       1.7481     ZZ    -208.4088

 Total job time:  116.05s(wall), 823.94s(cpu)
        *  Thank you very much for using Q-Chem.  Have a nice day.  *
