 Gaussian 16, Revision A.03,
 Gaussian 16:  ES64L-G16RevA.03 25-Dec-2016

 ----------------------------------------------------------------
 #P UB3LYP/6-311++G(d,p) SCRF=(PCM,Solvent=n,n-DiMethylFormamide)
 ----------------------------------------------------------------

 ------------------
 Quinone PCM in DMF
 ------------------
 Symbolic Z-matrix:
 Charge =  0 Multiplicity = 1

                         Standard orientation:
 ---------------------------------------------------------------------
 Center     Atomic      Atomic             Coordinates (Angstroms)
 Number     Number       Type             X           Y           Z
 ---------------------------------------------------------------------
      1          6           0        1.982516    2.056806   -0.037729
      2          6           0        3.329528    1.749765    0.100040
      3          6           0        3.702817    0.414137    0.257953
      4          6           0        1.023005    1.040092   -0.019328
      5          6           0        1.417663   -0.298937    0.144642
      6          6           0        2.771939   -0.612956    0.287114
      7          6           0       -0.418527    1.408132   -0.173041
      8          6           0       -1.417579    0.299169   -0.144557
      9          6           0       -1.022921   -1.039861    0.019448
     10          6           0        0.418609   -1.407893    0.173190
     11          6           0       -2.771849    0.613180   -0.287086
     12          6           0       -1.982429   -2.056571    0.037828
     13          6           0       -3.329439   -1.749534   -0.100010
     14          8           0       -0.761790    2.567096   -0.313999
     15          8           0        0.761869   -2.566847    0.314248
     16          1           0        1.652908    3.080812   -0.159841
     17          1           0        4.085179    2.525119    0.097889
     18         16           0        5.444204    0.016446    0.436966
     19          1           0       -4.085063   -2.524917   -0.097905
     20          1           0        3.070871   -1.644234    0.425566
     21          1           0       -3.070803    1.644448   -0.425561
     22          1           0       -1.652835   -3.080579    0.159963
     23          6           0       -3.702729   -0.413918   -0.257974
     24         16           0       -5.444107   -0.016227   -0.437115
     25          8           0       -5.593390    1.228364   -1.176453
     26          8           0       -6.169584   -1.208097   -0.853588
     27          8           0       -5.748789    0.267823    1.147964
     28          6           0       -7.097206    0.698783    1.468945
     29          1           0       -7.321662    1.641027    0.966984
     30          1           0       -7.093679    0.837155    2.547509
     31          1           0       -7.817170   -0.072093    1.189509
     32          8           0        5.593532   -1.227781    1.176917
     33          8           0        6.169699    1.208520    0.852812
     34          8           0        5.748565   -0.268406   -1.148023
     35          6           0        7.096539   -0.700801   -1.468917
     36          1           0        7.320185   -1.642948   -0.966419
     37          1           0        7.817250    0.069578   -1.190029
     38          1           0        7.092749   -0.839800   -2.547399
 ---------------------------------------------------------------------

 SCF Done:  E(UB3LYP) =  -2015.37007868     A.U. after   16 cycles

 The electronic state is 1-A.
 Alpha  occ. eigenvalues --  -89.10530 -89.10530 -19.19219 -19.19218 -19.15320
 Alpha  occ. eigenvalues --  -19.15320 -19.15288 -19.15288 -19.14941 -19.14940
 Alpha  occ. eigenvalues --  -10.30173 -10.30172 -10.25122 -10.25121 -10.24007
 Alpha  occ. eigenvalues --  -10.24006 -10.23312 -10.23311 -10.23203 -10.23203
 Alpha  occ. eigenvalues --  -10.22892 -10.22891 -10.22790 -10.22790 -10.21908
 Alpha  occ. eigenvalues --  -10.21908  -8.16625  -8.16624  -6.12987  -6.12987
 Alpha  occ. eigenvalues --   -6.12819  -6.12819  -6.12699  -6.12699  -1.17463
 Alpha  occ. eigenvalues --   -1.17463  -1.08561  -1.08381  -1.06422  -1.06421
 Alpha  occ. eigenvalues --   -1.04797  -1.04796  -0.92219  -0.91367  -0.84921
 Alpha  occ. eigenvalues --   -0.81926  -0.80680  -0.80329  -0.76295  -0.75495
 Alpha  occ. eigenvalues --   -0.71434  -0.70398  -0.67993  -0.66326  -0.63837
 Alpha  occ. eigenvalues --   -0.62803  -0.60987  -0.59054  -0.58407  -0.56779
 Alpha  occ. eigenvalues --   -0.54433  -0.53940  -0.53064  -0.52967  -0.51629
 Alpha  occ. eigenvalues --   -0.50948  -0.50272  -0.49087  -0.47848  -0.47695
 Alpha  occ. eigenvalues --   -0.47559  -0.47498  -0.47323  -0.47050  -0.47044
 Alpha  occ. eigenvalues --   -0.46523  -0.46378  -0.44314  -0.43674  -0.42704
 Alpha  occ. eigenvalues --   -0.42116  -0.41938  -0.41640  -0.40788  -0.39558
 Alpha  occ. eigenvalues --   -0.39418  -0.37154  -0.37147  -0.36760  -0.36705
 Alpha  occ. eigenvalues --   -0.35544  -0.35509  -0.35204  -0.35198  -0.31928
 Alpha  occ. eigenvalues --   -0.31923  -0.31343  -0.30568  -0.30463  -0.30331
 Alpha  occ. eigenvalues --   -0.29876  -0.29362
 Alpha virt. eigenvalues --   -0.13880  -0.10150  -0.07019  -0.05619  -0.01601
 Alpha virt. eigenvalues --   -0.01228  -0.01091   0.00496   0.00660   0.01017
 Alpha virt. eigenvalues --    0.01359   0.01786   0.01908   0.02502   0.02564

  Beta  occ. eigenvalues --  -89.10530 -89.10530 -19.19219 -19.19218 -19.15320
  Beta  occ. eigenvalues --  -19.15320 -19.15288 -19.15288 -19.14941 -19.14940
  Beta  occ. eigenvalues --  -10.30173 -10.30172 -10.25122 -10.25121 -10.24007
  Beta  occ. eigenvalues --  -10.24006 -10.23312 -10.23311 -10.23203 -10.23203
  Beta  occ. eigenvalues --  -10.22892 -10.22891 -10.22790 -10.22790 -10.21908
  Beta  occ. eigenvalues --  -10.21908  -8.16625  -8.16624  -6.12987  -6.12987
  Beta  occ. eigenvalues --   -6.12819  -6.12819  -6.12699  -6.12699  -1.17463
  Beta  occ. eigenvalues --   -1.17463  -1.08561  -1.08381  -1.06422  -1.06421
  Beta  occ. eigenvalues --   -1.04797  -1.04796  -0.92219  -0.91367  -0.84921
  Beta  occ. eigenvalues --   -0.81926  -0.80680  -0.80329  -0.76295  -0.75495
  Beta  occ. eigenvalues --   -0.71434  -0.70398  -0.67993  -0.66326  -0.63837
  Beta  occ. eigenvalues --   -0.62803  -0.60987  -0.59054  -0.58407  -0.56779
  Beta  occ. eigenvalues --   -0.54433  -0.53940  -0.53064  -0.52967  -0.51629
  Beta  occ. eigenvalues --   -0.50948  -0.50272  -0.49087  -0.47848  -0.47695
  Beta  occ. eigenvalues --   -0.47559  -0.47498  -0.47323  -0.47050  -0.47044
  Beta  occ. eigenvalues --   -0.46523  -0.46378  -0.44314  -0.43674  -0.42704
  Beta  occ. eigenvalues --   -0.42116  -0.41938  -0.41640  -0.40788  -0.39558
  Beta  occ. eigenvalues --   -0.39418  -0.37154  -0.37147  -0.36760  -0.36705
  Beta  occ. eigenvalues --   -0.35544  -0.35509  -0.35204  -0.35198  -0.31928
  Beta  occ. eigenvalues --   -0.31923  -0.31343  -0.30568  -0.30463  -0.30331
  Beta  occ. eigenvalues --   -0.29876  -0.29362
  Beta virt. eigenvalues --   -0.13880  -0.10150  -0.07019  -0.05619  -0.01601
  Beta virt. eigenvalues --   -0.01228  -0.01091   0.00496   0.00660   0.01017
  Beta virt. eigenvalues --    0.01359   0.01786   0.01908   0.02502   0.02564

 Mulliken charges and spin densities:
               1          2
     1  C    0.089793  -0.000000
     2  C   -0.257904  -0.000000
     3  C   -0.906314   0.000000
     4  C    0.628662   0.000000
     5  C    0.248081  -0.000000
     6  C    0.150644  -0.000000
     7  C   -0.692312   0.000000
     8  C    0.248101  -0.000000
     9  C    0.628882   0.000000
    10  C   -0.692299  -0.000000
    11  C    0.151111  -0.000000
    12  C    0.089601   0.000000
    13  C   -0.258275  -0.000000
    14  O   -0.221909  -0.000000
    15  O   -0.221911  -0.000000
    16  H    0.200119   0.000000
    17  H    0.262466  -0.000000
    18  S    0.283114   0.000000
    19  H    0.262458  -0.000000
    20  H    0.237707  -0.000000
    21  H    0.237732   0.000000
    22  H    0.200111  -0.000000
    23  C   -0.906438  -0.000000
    24  S    0.282939   0.000000
    25  O   -0.206016  -0.000000
    26  O   -0.179547  -0.000000
    27  O   -0.048285   0.000000
    28  C   -0.141106  -0.000000
    29  H    0.179459   0.000000
    30  H    0.194702   0.000000
    31  H    0.178793  -0.000000
    32  O   -0.206239  -0.000000
    33  O   -0.179329   0.000000
    34  O   -0.048357  -0.000000
    35  C   -0.141209  -0.000000
    36  H    0.179460   0.000000
    37  H    0.178809  -0.000000
    38  H    0.194706  -0.000000
 Sum of Mulliken charges =  -0.00000   0.00000

 Dipole moment (field-independent basis, Debye):
    X=             -0.0003    Y=             -0.0038    Z=             -0.0001  Tot=              0.0038
 Quadrupole moment (field-independent basis, Debye-Ang):
   XX=           -164.2897   YY=           -172.7848   ZZ=           -165.8968
   XY=              1.9563   XZ=            -47.1137   YZ=              5.9946

 Normal termination of Gaussian 16 at Tue Jan 16 05:34:29 2024.
