 Q-Chem 5.4, Q-Chem, Inc., Pleasanton, CA (2021)
 Q-Chem 5.4.0 for Intel X86 EM64T Linux

User input:
--------------------------------------------------------------
$molecule
-1 2
C                  5.0428730000     -2.2495910000      0.7203280000
C                  5.8689310000     -1.4205440000     -0.0114600000
C                  5.3165950000     -0.5500460000     -0.9776570000
C                  3.6435620000     -2.2490420000      0.5246980000
C                  3.0862760000     -1.3703400000     -0.4504040000
C                  3.9522040000     -0.5315250000     -1.1865520000
C                  2.8104730000     -3.1479670000      1.3258130000
C                  1.3709880000     -3.0904560000      1.0667860000
C                  0.8145720000     -2.2116750000      0.0930690000
C                  1.6457330000     -1.3129330000     -0.7088260000
C                  0.5053370000     -3.9296430000      1.8027010000
C                 -0.5840980000     -2.2187310000     -0.0997530000
C                 -1.4053550000     -3.0478980000      0.6352010000
O                  3.3017600000     -3.9216180000      2.1864900000
O                  1.1530710000     -0.5383120000     -1.5668860000
H                  5.4391290000     -2.9274970000      1.4676480000
H                  6.9423210000     -1.4361840000      0.1537460000
H                  5.9658420000      0.1025240000     -1.5540870000
H                 -2.4788440000     -3.0396090000      0.4622010000
H                  3.5006270000      0.1257490000     -1.9208430000
H                  0.9640490000     -4.5892780000      2.5324390000
H                 -0.9861930000     -1.5490430000     -0.8514530000
C                 -0.8643170000     -3.9242260000      1.6102800000
C                 -1.7783460000     -4.7938570000      2.4469560000
C                 -2.3027550000     -4.0530010000      3.6736740000
O                 -3.2013510000     -4.9200920000      4.3898200000
H                 -1.2493810000     -5.6901410000      2.7844630000
H                 -2.6383330000     -5.1278460000      1.8555280000
H                 -2.8249510000     -3.1394400000      3.3615180000
H                 -1.4605000000     -3.7617690000      4.3131390000
H                 -3.4721520000     -4.4715300000      5.1958430000
$end

$rem
BASIS  =  6-311++G(d,p)
GUI  =  2
JOB_TYPE  =  SP
METHOD  =  B3LYP
SCF_CONVERGENCE  = 8
SOLVENT_METHOD = sm12
$end

$smx
solvent dimethylformamide
charges CM5
$end

--------------------------------------------------------------

             Standard Nuclear Orientation (Angstroms)
    I     Atom           X                Y                Z
 ----------------------------------------------------------------
    1      C       5.0428730000    -2.2495910000     0.7203280000
    2      C       5.8689310000    -1.4205440000    -0.0114600000
    3      C       5.3165950000    -0.5500460000    -0.9776570000
    4      C       3.6435620000    -2.2490420000     0.5246980000
    5      C       3.0862760000    -1.3703400000    -0.4504040000
    6      C       3.9522040000    -0.5315250000    -1.1865520000
    7      C       2.8104730000    -3.1479670000     1.3258130000
    8      C       1.3709880000    -3.0904560000     1.0667860000
    9      C       0.8145720000    -2.2116750000     0.0930690000
   10      C       1.6457330000    -1.3129330000    -0.7088260000
   11      C       0.5053370000    -3.9296430000     1.8027010000
   12      C      -0.5840980000    -2.2187310000    -0.0997530000
   13      C      -1.4053550000    -3.0478980000     0.6352010000
   14      O       3.3017600000    -3.9216180000     2.1864900000
   15      O       1.1530710000    -0.5383120000    -1.5668860000
   16      H       5.4391290000    -2.9274970000     1.4676480000
   17      H       6.9423210000    -1.4361840000     0.1537460000
   18      H       5.9658420000     0.1025240000    -1.5540870000
   19      H      -2.4788440000    -3.0396090000     0.4622010000
   20      H       3.5006270000     0.1257490000    -1.9208430000
   21      H       0.9640490000    -4.5892780000     2.5324390000
   22      H      -0.9861930000    -1.5490430000    -0.8514530000
   23      C      -0.8643170000    -3.9242260000     1.6102800000
   24      C      -1.7783460000    -4.7938570000     2.4469560000
   25      C      -2.3027550000    -4.0530010000     3.6736740000
   26      O      -3.2013510000    -4.9200920000     4.3898200000
   27      H      -1.2493810000    -5.6901410000     2.7844630000
   28      H      -2.6383330000    -5.1278460000     1.8555280000
   29      H      -2.8249510000    -3.1394400000     3.3615180000
   30      H      -1.4605000000    -3.7617690000     4.3131390000
   31      H      -3.4721520000    -4.4715300000     5.1958430000
 ----------------------------------------------------------------

   16    -842.9059199981      5.34e-09  Convergence criterion met
 Total energy in the final basis set =     -842.9995884600

                    Orbital Energies (a.u.)
 --------------------------------------------------------------

 Alpha MOs
 -- Occupied --
-19.1259 -19.0778 -19.0775 -10.2271 -10.2261 -10.2200 -10.1875 -10.1827
-10.1822 -10.1799 -10.1796 -10.1793 -10.1790 -10.1788 -10.1788 -10.1778
-10.1773 -10.1762 -10.1742  -1.0229  -1.0042  -1.0020  -0.8686  -0.8606
 -0.8046  -0.7740  -0.7584  -0.7525  -0.7277  -0.6716  -0.6485  -0.6300
 -0.6042  -0.5925  -0.5632  -0.5390  -0.5315  -0.5104  -0.4858  -0.4746
 -0.4653  -0.4557  -0.4478  -0.4321  -0.4296  -0.4287  -0.4189  -0.4153
 -0.4114  -0.4031  -0.3818  -0.3787  -0.3711  -0.3679  -0.3511  -0.3502
 -0.3468  -0.3372  -0.3346  -0.2824  -0.2711  -0.2656  -0.2602  -0.2523
 -0.2473  -0.2385  -0.1452

 Beta MOs
 -- Occupied --
-19.1259 -19.0720 -19.0715 -10.2257 -10.2246 -10.2199 -10.1870 -10.1822
-10.1817 -10.1793 -10.1791 -10.1789 -10.1787 -10.1784 -10.1780 -10.1777
-10.1767 -10.1762 -10.1742  -1.0228  -0.9941  -0.9915  -0.8662  -0.8594
 -0.8018  -0.7719  -0.7562  -0.7507  -0.7262  -0.6646  -0.6472  -0.6282
 -0.6029  -0.5919  -0.5609  -0.5370  -0.5307  -0.5094  -0.4852  -0.4718
 -0.4640  -0.4551  -0.4468  -0.4317  -0.4284  -0.4239  -0.4136  -0.4112
 -0.4056  -0.4002  -0.3775  -0.3683  -0.3672  -0.3584  -0.3503  -0.3489
 -0.3439  -0.3354  -0.3257  -0.2822  -0.2618  -0.2514  -0.2504  -0.2449
 -0.2418  -0.2330

          Ground-State Mulliken Net Atomic Charges

     Atom                 Charge (a.u.)    Spin (a.u.)
  --------------------------------------------------------
      1 C                    -0.102251       0.027304
      2 C                     0.957983       0.036821
      3 C                     0.989533       0.043221
      4 C                    -0.720923       0.043205
      5 C                    -1.293912       0.043963
      6 C                    -0.068534       0.024375
      7 C                    -1.934839       0.077851
      8 C                    -1.514075       0.058318
      9 C                    -1.926689       0.032793
     10 C                    -2.589551       0.069774
     11 C                    -0.555502       0.021994
     12 C                     0.185639       0.025073
     13 C                     0.844010       0.037505
     14 O                    -0.304055       0.225284
     15 O                    -0.296907       0.216803
     16 H                     0.150725      -0.001722
     17 H                     0.360548      -0.003010
     18 H                     0.360035      -0.003359
     19 H                     0.281638      -0.002848
     20 H                     0.156985      -0.001338
     21 H                     0.060434      -0.001943
     22 H                     0.191598      -0.001483
     23 C                     2.413594       0.031239
     24 C                     2.544717      -0.000621
     25 C                    -0.131608      -0.000930
     26 O                    -0.280099       0.000279
     27 H                     0.245383       0.000092
     28 H                     0.263471       0.001499
     29 H                     0.215568      -0.000417
     30 H                     0.190547       0.000234
     31 H                     0.306535       0.000043
  --------------------------------------------------------
  Sum of atomic charges =    -1.000000

                    Cartesian Multipole Moments
 -----------------------------------------------------------------
    Charge (ESU x 10^10)
                -4.8032
    Dipole Moment (Debye)
         X     -10.5668      Y      12.1008      Z      -0.7722
       Tot      16.0836
    Quadrupole Moments (Debye-Ang)
        XX    -147.9758     XY      24.2758     YY    -166.5666
        XZ     -11.5238     YZ      18.7169     ZZ    -124.4601

 Total job time:  833.56s(wall), 6487.06s(cpu)
        *  Thank you very much for using Q-Chem.  Have a nice day.  *
