 Gaussian 16, Revision A.03,
 Gaussian 16:  ES64L-G16RevA.03 25-Dec-2016

 ----------------------------------------------------------------
 #P UB3LYP/6-311++G(d,p) SCRF=(PCM,Solvent=n,n-DiMethylFormamide)
 ----------------------------------------------------------------

 -------
 Reduced
 -------
 Symbolic Z-matrix:
 Charge = -2 Multiplicity = 1

                         Standard orientation:
 ---------------------------------------------------------------------
 Center     Atomic      Atomic             Coordinates (Angstroms)
 Number     Number       Type             X           Y           Z
 ---------------------------------------------------------------------
      1          6           0        2.924586   -0.236120   -1.259906
      2          6           0        2.152319   -0.772603   -0.037012
      3          6           0        2.897054   -0.416656    1.267344
      4          6           0        0.701760   -0.306470   -0.011839
      5          6           0       -0.319774   -1.261344   -0.021696
      6          6           0       -1.721017   -0.968276   -0.013366
      7          8           0       -2.646106   -1.878350   -0.026337
      8          6           0       -2.025398    0.440113    0.000850
      9          6           0       -1.012462    1.397802    0.014584
     10          6           0        0.391101    1.105910    0.018725
     11          8           0        1.295429    2.038121    0.049180
     12          6           0       -3.478517    0.840622    0.011350
     13          1           0        2.909313    0.856686   -1.239959
     14          1           0        3.965156   -0.587499   -1.265947
     15          1           0        2.446376   -0.571737   -2.188111
     16          1           0        2.133741   -1.869730   -0.113547
     17          1           0        2.925196    0.669979    1.380915
     18          1           0        2.373121   -0.839114    2.131807
     19          1           0        3.926168   -0.811535    1.266993
     20          1           0       -0.053606   -2.319721   -0.039283
     21          1           0       -1.275796    2.457352    0.024840
     22          1           0       -4.019695    0.402575   -0.839356
     23          1           0       -3.588012    1.932255   -0.022929
     24          1           0       -3.994462    0.464442    0.907639
 ---------------------------------------------------------------------

 SCF Done:  E(UB3LYP) =  -539.119318741     A.U. after   17 cycles

 The electronic state is 1-A.
 Alpha  occ. eigenvalues --  -19.00488 -18.99936 -10.15379 -10.15277 -10.14731
 Alpha  occ. eigenvalues --  -10.13591 -10.13379 -10.13163 -10.11768 -10.11485
 Alpha  occ. eigenvalues --  -10.10826 -10.10797  -0.91668  -0.91179  -0.78253
 Alpha  occ. eigenvalues --   -0.75832  -0.70789  -0.65823  -0.65128  -0.61958
 Alpha  occ. eigenvalues --   -0.55607  -0.54154  -0.48482  -0.44393  -0.41961
 Alpha  occ. eigenvalues --   -0.40506  -0.39750  -0.38918  -0.38306  -0.37879
 Alpha  occ. eigenvalues --   -0.36471  -0.35080  -0.34337  -0.33024  -0.32904
 Alpha  occ. eigenvalues --   -0.31256  -0.30475  -0.30078  -0.29360  -0.29309
 Alpha  occ. eigenvalues --   -0.21071  -0.19510  -0.18383  -0.17720  -0.10379
 Alpha virt. eigenvalues --    0.00111   0.00887   0.01734   0.02087   0.02939
 Alpha virt. eigenvalues --    0.03053   0.03469   0.04676   0.05052   0.05625
 Alpha virt. eigenvalues --    0.05702   0.05879   0.06741   0.07114   0.07968

  Beta  occ. eigenvalues --  -19.00488 -18.99936 -10.15379 -10.15277 -10.14731
  Beta  occ. eigenvalues --  -10.13591 -10.13379 -10.13163 -10.11768 -10.11485
  Beta  occ. eigenvalues --  -10.10826 -10.10797  -0.91668  -0.91179  -0.78253
  Beta  occ. eigenvalues --   -0.75832  -0.70789  -0.65823  -0.65128  -0.61958
  Beta  occ. eigenvalues --   -0.55607  -0.54154  -0.48482  -0.44393  -0.41961
  Beta  occ. eigenvalues --   -0.40506  -0.39750  -0.38918  -0.38306  -0.37879
  Beta  occ. eigenvalues --   -0.36471  -0.35080  -0.34337  -0.33024  -0.32904
  Beta  occ. eigenvalues --   -0.31256  -0.30475  -0.30078  -0.29360  -0.29309
  Beta  occ. eigenvalues --   -0.21071  -0.19510  -0.18383  -0.17720  -0.10379
  Beta virt. eigenvalues --    0.00111   0.00887   0.01734   0.02087   0.02939
  Beta virt. eigenvalues --    0.03053   0.03469   0.04676   0.05052   0.05625
  Beta virt. eigenvalues --    0.05702   0.05879   0.06741   0.07114   0.07968

 Mulliken charges and spin densities:
               1          2
     1  C   -0.672466   0.000000
     2  C    0.199479  -0.000000
     3  C   -0.689395   0.000000
     4  C    1.004894   0.000000
     5  C   -0.186790   0.000000
     6  C   -0.902768  -0.000000
     7  O   -0.746381   0.000000
     8  C    0.977450   0.000000
     9  C   -0.671810   0.000000
    10  C   -0.780293  -0.000000
    11  O   -0.695933   0.000000
    12  C   -0.400612   0.000000
    13  H    0.178476   0.000000
    14  H    0.123127  -0.000000
    15  H    0.111711  -0.000000
    16  H    0.146939  -0.000000
    17  H    0.172451   0.000000
    18  H    0.116924  -0.000000
    19  H    0.125423  -0.000000
    20  H    0.105294  -0.000000
    21  H    0.089453  -0.000000
    22  H    0.135467  -0.000000
    23  H    0.123169  -0.000000
    24  H    0.136192  -0.000000
 Sum of Mulliken charges =  -2.00000  -0.00000

 Dipole moment (field-independent basis, Debye):
    X=              6.1883    Y=             -0.4216    Z=             -0.0543  Tot=              6.2029
 Quadrupole moment (field-independent basis, Debye-Ang):
   XX=           -123.8092   YY=           -116.1140   ZZ=            -85.0013
   XY=            -29.3469   XZ=             -0.4994   YZ=             -0.5745

 Normal termination of Gaussian 16 at Sun Jan 21 07:38:36 2024.
