 Q-Chem 5.4, Q-Chem, Inc., Pleasanton, CA (2021)
 Q-Chem 5.4.0 for Intel X86 EM64T Linux

User input:
--------------------------------------------------------------
$molecule
-2 1
C                  4.8442370000     -2.8655350000     -0.3520580000
C                  5.5803240000     -1.9750800000     -1.1008990000
C                  4.9917370000     -0.7469320000     -1.5200780000
C                  3.4969770000     -2.5991900000      0.0212990000
C                  2.8985410000     -1.3540140000     -0.4015160000
C                  3.6888670000     -0.4606580000     -1.1688120000
C                  2.7661050000     -3.5339430000      0.8057930000
C                  1.4200180000     -3.1973520000      1.1370560000
C                  0.7931760000     -1.9663430000      0.6923220000
C                  1.5415210000     -0.9890190000     -0.0665040000
C                  0.6798940000     -4.1193020000      1.9730200000
C                 -0.6116970000     -3.8248330000      2.3555570000
C                 -0.5935520000     -1.7122910000      1.0555470000
C                 -1.2081120000     -2.6298350000      1.8772650000
O                  3.3144840000     -4.6695800000      1.2229300000
O                  1.0654010000      0.1633020000     -0.4346970000
O                  1.2780590000     -5.2586020000      2.3828080000
Br                -3.0685550000     -2.3063120000      2.4370020000
N                 -1.2519110000     -0.5964840000      0.5196450000
H                  5.2676900000     -3.8066850000     -0.0168300000
H                  6.6088270000     -2.2066180000     -1.3726280000
H                  5.5687040000     -0.0404910000     -2.1139580000
H                  3.2128080000      0.4668660000     -1.4698050000
H                 -1.1532580000     -4.5060330000      2.9988850000
H                  2.2598070000     -5.1817640000      1.9396270000
H                 -0.5450100000      0.0461540000      0.1210230000
H                 -1.9264100000     -0.1833970000      1.1494250000
$end
$rem
MAX_SCF_CYCLES=200
BASIS  =  6-311++G(d,p)
GUI  =  2
JOB_TYPE  =  SP
METHOD  =  B3LYP
SOLVENT_METHOD = PCM
$end
$pcm
theory = CPCM
$end
$solvent
dielectric 37.219
opticaldielectric 1.43
$end

--------------------------------------------------------------

             Standard Nuclear Orientation (Angstroms)
    I     Atom           X                Y                Z
 ----------------------------------------------------------------
    1      C       4.8442370000    -2.8655350000    -0.3520580000
    2      C       5.5803240000    -1.9750800000    -1.1008990000
    3      C       4.9917370000    -0.7469320000    -1.5200780000
    4      C       3.4969770000    -2.5991900000     0.0212990000
    5      C       2.8985410000    -1.3540140000    -0.4015160000
    6      C       3.6888670000    -0.4606580000    -1.1688120000
    7      C       2.7661050000    -3.5339430000     0.8057930000
    8      C       1.4200180000    -3.1973520000     1.1370560000
    9      C       0.7931760000    -1.9663430000     0.6923220000
   10      C       1.5415210000    -0.9890190000    -0.0665040000
   11      C       0.6798940000    -4.1193020000     1.9730200000
   12      C      -0.6116970000    -3.8248330000     2.3555570000
   13      C      -0.5935520000    -1.7122910000     1.0555470000
   14      C      -1.2081120000    -2.6298350000     1.8772650000
   15      O       3.3144840000    -4.6695800000     1.2229300000
   16      O       1.0654010000     0.1633020000    -0.4346970000
   17      O       1.2780590000    -5.2586020000     2.3828080000
   18      Br     -3.0685550000    -2.3063120000     2.4370020000
   19      N      -1.2519110000    -0.5964840000     0.5196450000
   20      H       5.2676900000    -3.8066850000    -0.0168300000
   21      H       6.6088270000    -2.2066180000    -1.3726280000
   22      H       5.5687040000    -0.0404910000    -2.1139580000
   23      H       3.2128080000     0.4668660000    -1.4698050000
   24      H      -1.1532580000    -4.5060330000     2.9988850000
   25      H       2.2598070000    -5.1817640000     1.9396270000
   26      H      -0.5450100000     0.0461540000     0.1210230000
   27      H      -1.9264100000    -0.1833970000     1.1494250000
 ----------------------------------------------------------------

    9   -3393.3878782525      3.47e-06  Convergence criterion met
 Total energy in the final basis set =    -3393.3878782525

                    Orbital Energies (a.u.)
 --------------------------------------------------------------

 Alpha MOs
 -- Occupied --
******** -62.4703 -56.2905 -56.2871 -56.2870 -19.0938 -19.0526 -19.0371
-14.2830 -10.2063 -10.1976 -10.1956 -10.1929 -10.1887 -10.1564 -10.1561
-10.1548 -10.1538 -10.1528 -10.1525 -10.1489 -10.1470 -10.1466  -8.6789
 -6.5093  -6.4979  -6.4977  -2.6203  -2.6172  -2.6170  -2.6080  -2.6079
 -1.0169  -0.9576  -0.9540  -0.8916  -0.8361  -0.8175  -0.7874  -0.7496
 -0.7328  -0.7115  -0.6984  -0.6478  -0.6127  -0.6025  -0.5623  -0.5464
 -0.5248  -0.5007  -0.4883  -0.4740  -0.4512  -0.4421  -0.4327  -0.4242
 -0.4061  -0.4055  -0.3982  -0.3923  -0.3788  -0.3750  -0.3697  -0.3630
 -0.3536  -0.3341  -0.3310  -0.3273  -0.3231  -0.3128  -0.2935  -0.2847
 -0.2658  -0.2390  -0.2362  -0.2298  -0.2221  -0.2136  -0.1840  -0.1201

          Ground-State Mulliken Net Atomic Charges

     Atom                 Charge (a.u.)
  ----------------------------------------
      1 C                    -0.080711
      2 C                    -0.496406
      3 C                    -0.559957
      4 C                     0.063276
      5 C                    -0.005174
      6 C                     0.002939
      7 C                    -0.170150
      8 C                     0.539547
      9 C                     0.473373
     10 C                    -0.246734
     11 C                    -0.347015
     12 C                    -0.158085
     13 C                    -0.902784
     14 C                     0.524691
     15 O                    -0.675254
     16 O                    -0.625344
     17 O                    -0.527462
     18 Br                   -0.289863
     19 N                    -0.391817
     20 H                     0.160644
     21 H                     0.180429
     22 H                     0.179906
     23 H                     0.155710
     24 H                     0.208268
     25 H                     0.413961
     26 H                     0.317492
     27 H                     0.256522
  ----------------------------------------
  Sum of atomic charges =    -2.000000

                    Cartesian Multipole Moments
 -----------------------------------------------------------------
    Charge (ESU x 10^10)
                -9.6064
    Dipole Moment (Debye)
         X     -13.4446      Y      25.3021      Z      -7.0204
       Tot      29.4999
    Quadrupole Moments (Debye-Ang)
        XX    -189.1170     XY      42.7610     YY    -238.9797
        XZ      -5.3239     YZ      38.7257     ZZ    -153.3963

 Total job time:  68.95s(wall), 451.64s(cpu)
        *  Thank you very much for using Q-Chem.  Have a nice day.  *
