 Q-Chem 5.4, Q-Chem, Inc., Pleasanton, CA (2021)
 Q-Chem 5.4.0 for Intel X86 EM64T Linux

User input:
--------------------------------------------------------------
$molecule
0 1
C                 -0.3583850000      3.9977560000      0.1230640000
C                  0.5954820000      3.0526980000      0.1600160000
C                  0.3455230000      1.6321480000     -0.1569700000
C                 -0.9070250000      1.2428720000     -0.5289160000
C                  1.4667910000      0.7109340000     -0.0567210000
C                  1.4588840000     -0.7346850000      0.1052490000
C                  2.8012510000      1.0760460000     -0.1461270000
C                  2.8113030000     -1.1593800000      0.0912390000
C                  0.4629290000     -1.7034410000      0.3142060000
C                  0.8330380000     -3.0321160000      0.4701190000
C                  2.1819350000     -3.4260540000      0.4296490000
C                  3.1918110000     -2.4918090000      0.2470840000
N                  3.5978130000     -0.0304680000     -0.0692510000
H                 -1.1243120000      0.2236990000     -0.8180350000
H                  3.2402520000      2.0491040000     -0.2972580000
H                 -0.5818220000     -1.4290840000      0.3692960000
H                  0.0669250000     -3.7817190000      0.6299080000
H                  2.4374170000     -4.4720900000      0.5515810000
H                  4.2349690000     -2.7870510000      0.2324160000
H                  4.6028410000     -0.0237160000     -0.1312630000
C                 -1.7428630000      3.6637620000     -0.2541040000
C                 -2.0233570000      2.1752960000     -0.6215590000
O                 -2.6301570000      4.4888430000     -0.2828400000
O                 -3.1396870000      1.8438350000     -0.9765710000
H                 -0.1547630000      5.0320090000      0.3771220000
H                  1.5981370000      3.3293100000      0.4653650000
$end
$rem
MAX_SCF_CYCLES=200
BASIS  =  6-311++G(d,p)
GUI  =  2
JOB_TYPE  =  SP
METHOD  =  B3LYP
SOLVENT_METHOD = PCM
$end
$pcm
theory = CPCM
$end
$solvent
dielectric 37.219
opticaldielectric 1.43
$end

--------------------------------------------------------------

             Standard Nuclear Orientation (Angstroms)
    I     Atom           X                Y                Z
 ----------------------------------------------------------------
    1      C      -0.3583850000     3.9977560000     0.1230640000
    2      C       0.5954820000     3.0526980000     0.1600160000
    3      C       0.3455230000     1.6321480000    -0.1569700000
    4      C      -0.9070250000     1.2428720000    -0.5289160000
    5      C       1.4667910000     0.7109340000    -0.0567210000
    6      C       1.4588840000    -0.7346850000     0.1052490000
    7      C       2.8012510000     1.0760460000    -0.1461270000
    8      C       2.8113030000    -1.1593800000     0.0912390000
    9      C       0.4629290000    -1.7034410000     0.3142060000
   10      C       0.8330380000    -3.0321160000     0.4701190000
   11      C       2.1819350000    -3.4260540000     0.4296490000
   12      C       3.1918110000    -2.4918090000     0.2470840000
   13      N       3.5978130000    -0.0304680000    -0.0692510000
   14      H      -1.1243120000     0.2236990000    -0.8180350000
   15      H       3.2402520000     2.0491040000    -0.2972580000
   16      H      -0.5818220000    -1.4290840000     0.3692960000
   17      H       0.0669250000    -3.7817190000     0.6299080000
   18      H       2.4374170000    -4.4720900000     0.5515810000
   19      H       4.2349690000    -2.7870510000     0.2324160000
   20      H       4.6028410000    -0.0237160000    -0.1312630000
   21      C      -1.7428630000     3.6637620000    -0.2541040000
   22      C      -2.0233570000     2.1752960000    -0.6215590000
   23      O      -2.6301570000     4.4888430000    -0.2828400000
   24      O      -3.1396870000     1.8438350000    -0.9765710000
   25      H      -0.1547630000     5.0320090000     0.3771220000
   26      H       1.5981370000     3.3293100000     0.4653650000
 ----------------------------------------------------------------

    9    -744.2999291591      4.34e-06  Convergence criterion met
 Total energy in the final basis set =     -744.2999291591

                    Orbital Energies (a.u.)
 --------------------------------------------------------------

 Alpha MOs
 -- Occupied --
-19.1447 -19.1304 -14.3783 -10.2813 -10.2719 -10.2326 -10.2284 -10.2224
-10.2153 -10.1988 -10.1980 -10.1921 -10.1861 -10.1845 -10.1837 -10.1814
-10.1776  -1.0823  -1.0538  -1.0044  -0.8738  -0.8588  -0.8113  -0.7678
 -0.7541  -0.7472  -0.7115  -0.6413  -0.6328  -0.6264  -0.6028  -0.5749
 -0.5563  -0.5193  -0.5112  -0.4948  -0.4889  -0.4763  -0.4586  -0.4548
 -0.4508  -0.4460  -0.4445  -0.4387  -0.4195  -0.4178  -0.3943  -0.3909
 -0.3733  -0.3640  -0.3550  -0.3506  -0.3130  -0.3013  -0.2656  -0.2608
 -0.2472  -0.2244

          Ground-State Mulliken Net Atomic Charges

     Atom                 Charge (a.u.)
  ----------------------------------------
      1 C                     0.440197
      2 C                    -1.502091
      3 C                     1.076631
      4 C                    -0.315789
      5 C                     0.933555
      6 C                     1.136525
      7 C                    -0.116866
      8 C                    -0.186101
      9 C                    -0.992868
     10 C                    -0.536957
     11 C                    -0.265686
     12 C                    -0.637532
     13 N                    -0.061978
     14 H                     0.197057
     15 H                     0.245707
     16 H                     0.134001
     17 H                     0.212626
     18 H                     0.204319
     19 H                     0.212442
     20 H                     0.370326
     21 C                    -0.353126
     22 C                     0.053468
     23 O                    -0.316630
     24 O                    -0.363374
     25 H                     0.260454
     26 H                     0.171690
  ----------------------------------------
  Sum of atomic charges =     0.000000

                    Cartesian Multipole Moments
 -----------------------------------------------------------------
    Charge (ESU x 10^10)
                -0.0000
    Dipole Moment (Debye)
         X      14.5839      Y      -3.3957      Z       1.7734
       Tot      15.0787
    Quadrupole Moments (Debye-Ang)
        XX     -91.1312     XY      28.8635     YY    -103.4551
        XZ      -7.6523     YZ       3.8748     ZZ    -103.3905

 Total job time:  73.53s(wall), 301.18s(cpu)
        *  Thank you very much for using Q-Chem.  Have a nice day.  *
