 Gaussian 16, Revision A.03,
 Gaussian 16:  ES64L-G16RevA.03 25-Dec-2016

 --------------------------------------
 #P UB3LYP/6-311++G(d,p) nosym opt freq
 --------------------------------------

 -------
 Radical
 -------
 Symbolic Z-matrix:
 Charge = -1 Multiplicity = 2

 SCF Done:  E(UB3LYP) =  -1161.39251662     A.U. after   23 cycles
 SCF Done:  E(UB3LYP) =  -1161.40299079     A.U. after   20 cycles
 SCF Done:  E(UB3LYP) =  -1161.40443039     A.U. after   22 cycles
 SCF Done:  E(UB3LYP) =  -1161.40475554     A.U. after   20 cycles
 SCF Done:  E(UB3LYP) =  -1161.40474661     A.U. after   22 cycles
 SCF Done:  E(UB3LYP) =  -1161.40488673     A.U. after   19 cycles
 SCF Done:  E(UB3LYP) =  -1161.40493811     A.U. after   18 cycles
 SCF Done:  E(UB3LYP) =  -1161.40496165     A.U. after   17 cycles
 SCF Done:  E(UB3LYP) =  -1161.40496386     A.U. after   15 cycles
 SCF Done:  E(UB3LYP) =  -1161.40496427     A.U. after   13 cycles
 SCF Done:  E(UB3LYP) =  -1161.40496439     A.U. after   13 cycles
 Optimization completed.
    -- Stationary point found.
 Normal termination of Gaussian 16 at Wed Dec 20 02:47:16 2023.

 ----------------------------------------------------------------------
 #P Geom=AllCheck Guess=TCheck SCRF=Check GenChk UB3LYP/6-311++G(d,p) F
 req
 ----------------------------------------------------------------------

 Structure from the checkpoint file:  "066-rad.chk"
 -------
 Radical
 -------
 Charge = -1 Multiplicity = 2

                          Input orientation:
 ---------------------------------------------------------------------
 Center     Atomic      Atomic             Coordinates (Angstroms)
 Number     Number       Type             X           Y           Z
 ---------------------------------------------------------------------
      1          6           0        1.282394   -0.573681    1.846092
      2          6           0        0.873010   -1.601275    0.900801
      3          6           0       -0.250518   -1.507721    0.135829
      4          6           0       -1.142417   -0.362145    0.197139
      5          6           0       -0.750567    0.677208    1.122876
      6          6           0        0.392557    0.578227    1.883891
      7          8           0        2.301729   -0.701156    2.566590
      8          8           0       -2.186283   -0.279961   -0.505797
      9         16           0        0.796896    1.968172    2.950516
     10          6           0        0.771376    1.318797    4.647436
     11          6           0       -0.384662    1.485360    5.406896
     12          6           0        1.904885    0.703021    5.173664
     13          6           0        1.870478    0.244489    6.489457
     14          6           0       -0.407731    1.020390    6.720755
     15          6           0        0.719170    0.401170    7.261858
     16          8           0        2.158666    2.455253    2.686911
     17          8           0       -0.324600    2.927494    2.875490
     18          1           0        1.523442   -2.469379    0.845747
     19          1           0       -0.525917   -2.299197   -0.555433
     20          1           0       -1.383774    1.552787    1.198606
     21          1           0       -1.240019    1.983956    4.968292
     22          1           0        2.774058    0.569865    4.544769
     23          1           0        2.744956   -0.240813    6.909475
     24          1           0       -1.302488    1.146646    7.321037
     25          1           0        0.699280    0.039032    8.284721
 ---------------------------------------------------------------------

 SCF Done:  E(UB3LYP) =  -1161.40496439     A.U. after    2 cycles

 Alpha  occ. eigenvalues --  -88.92990 -18.99373 -18.99284 -18.96246 -18.96071
 Alpha  occ. eigenvalues --  -10.11681 -10.10777 -10.10517 -10.09973 -10.09705
 Alpha  occ. eigenvalues --  -10.09614 -10.09447 -10.09038 -10.08071 -10.06227
 Alpha  occ. eigenvalues --  -10.05698 -10.05621  -7.99353  -5.95623  -5.95540
 Alpha  occ. eigenvalues --   -5.95453  -0.98604  -0.88938  -0.88141  -0.88027
 Alpha  occ. eigenvalues --   -0.77928  -0.71955  -0.68100  -0.66810  -0.65013
 Alpha  occ. eigenvalues --   -0.58875  -0.55899  -0.52739  -0.51440  -0.48076
 Alpha  occ. eigenvalues --   -0.46375  -0.43192  -0.38696  -0.37890  -0.37086
 Alpha  occ. eigenvalues --   -0.36564  -0.35757  -0.35072  -0.34245  -0.32758
 Alpha  occ. eigenvalues --   -0.32107  -0.29786  -0.29200  -0.28861  -0.28381
 Alpha  occ. eigenvalues --   -0.27049  -0.26468  -0.25862  -0.25415  -0.21809
 Alpha  occ. eigenvalues --   -0.20348  -0.19072  -0.18624  -0.17688  -0.17371
 Alpha  occ. eigenvalues --   -0.16856  -0.15324  -0.12620  -0.12000  -0.05117
 Alpha virt. eigenvalues --    0.05313   0.06354   0.06975   0.08360   0.09101
 Alpha virt. eigenvalues --    0.09434   0.09915   0.11583   0.12221   0.12572
 Alpha virt. eigenvalues --    0.13322   0.13573   0.14030   0.14692   0.15869

  Beta  occ. eigenvalues --  -88.92991 -18.99377 -18.99276 -18.95604 -18.95226
  Beta  occ. eigenvalues --  -10.11601 -10.10776 -10.10457 -10.09968 -10.09706
  Beta  occ. eigenvalues --  -10.09610 -10.09449 -10.09033 -10.07983 -10.05966
  Beta  occ. eigenvalues --  -10.05623 -10.05536  -7.99354  -5.95624  -5.95540
  Beta  occ. eigenvalues --   -5.95456  -0.98590  -0.88186  -0.87719  -0.86635
  Beta  occ. eigenvalues --   -0.77922  -0.71340  -0.68060  -0.66804  -0.64771
  Beta  occ. eigenvalues --   -0.58268  -0.55345  -0.52734  -0.51267  -0.47719
  Beta  occ. eigenvalues --   -0.46209  -0.43079  -0.38543  -0.37856  -0.36929
  Beta  occ. eigenvalues --   -0.36436  -0.35668  -0.34814  -0.34201  -0.32695
  Beta  occ. eigenvalues --   -0.31885  -0.29200  -0.28879  -0.28154  -0.27504
  Beta  occ. eigenvalues --   -0.26708  -0.26287  -0.25125  -0.23062  -0.21720
  Beta  occ. eigenvalues --   -0.20299  -0.18872  -0.18539  -0.17533  -0.17306
  Beta  occ. eigenvalues --   -0.14620  -0.13401  -0.12000  -0.11268
  Beta virt. eigenvalues --    0.02175   0.05609   0.06355   0.07007   0.08359
  Beta virt. eigenvalues --    0.09433   0.09905   0.10477   0.11609   0.12250
  Beta virt. eigenvalues --    0.12713   0.13350   0.13981   0.14693   0.14983

 Mulliken charges and spin densities:
               1          2
     1  C   -0.817463  -0.008547
     2  C    0.181548   0.081673
     3  C    0.192609   0.055582
     4  C   -0.739422   0.101876
     5  C   -0.065873   0.143849
     6  C    0.403648   0.113496
     7  O   -0.316535   0.236707
     8  O   -0.377406   0.301506
     9  S    0.223016  -0.028898
    10  C    0.461848   0.007867
    11  C    0.036327   0.006913
    12  C   -0.288020   0.015734
    13  C   -0.422457  -0.005770
    14  C   -0.466230  -0.000732
    15  C   -0.279526   0.004120
    16  O   -0.105977   0.005368
    17  O   -0.196709  -0.003003
    18  H    0.166966  -0.006674
    19  H    0.164541  -0.005022
    20  H    0.263813  -0.014733
    21  H    0.235655   0.000856
    22  H    0.293082  -0.002113
    23  H    0.163375   0.000194
    24  H    0.155518   0.000060
    25  H    0.133670  -0.000310
 Sum of Mulliken charges =  -1.00000   1.00000

 Dipole moment (field-independent basis, Debye):
    X=             -1.3528    Y=             -4.3360    Z=             -6.5719  Tot=              7.9888
 Quadrupole moment (field-independent basis, Debye-Ang):
   XX=           -133.3460   YY=           -129.7870   ZZ=           -126.7643
   XY=             -6.1712   XZ=            -17.9526   YZ=            -13.9062

  Exact polarizability: 188.914 -14.226 156.337  41.064  18.994 236.387
 Approx polarizability: 362.897 -41.078 240.953  73.828   4.014 324.934

                      1                      2                      3
                      A                      A                      A
 Frequencies --     32.2918                37.3115                73.8159
 Red. masses --      5.8552                 5.7810                 5.0989
 Frc consts  --      0.0036                 0.0047                 0.0164
 IR Inten    --      0.4735                 0.6257                 1.0957

                      4                      5                      6
                      A                      A                      A
 Frequencies --    114.9077               154.6390               161.5954
 Red. masses --      6.5230                10.4226                 8.7635
 Frc consts  --      0.0507                 0.1468                 0.1348
 IR Inten    --      3.8000                 7.7589                 3.7564

                      7                      8                      9
                      A                      A                      A
 Frequencies --    178.9799               226.5150               265.3975
 Red. masses --      6.7496                 5.8503                 9.7352
 Frc consts  --      0.1274                 0.1769                 0.4040
 IR Inten    --      1.3842                 2.5361                 0.1347

                     10                     11                     12
                      A                      A                      A
 Frequencies --    281.3322               299.0684               322.6932
 Red. masses --     12.9795                 8.3407                 5.7841
 Frc consts  --      0.6053                 0.4395                 0.3549
 IR Inten    --      3.1491                 1.9542                 0.0814

                     13                     14                     15
                      A                      A                      A
 Frequencies --    395.9705               413.1569               415.0811
 Red. masses --      6.6468                 2.9899                 7.8813
 Frc consts  --      0.6140                 0.3007                 0.8000
 IR Inten    --      3.3708                 0.3916                 8.1289

                     16                     17                     18
                      A                      A                      A
 Frequencies --    427.3612               461.7606               477.3688
 Red. masses --      4.8820                 5.4473                 9.3462
 Frc consts  --      0.5253                 0.6843                 1.2549
 IR Inten    --      1.8997                 4.3836                 0.4584

                     19                     20                     21
                      A                      A                      A
 Frequencies --    520.8777               551.4425               590.3863
 Red. masses --      5.0277                 5.6112                 5.8704
 Frc consts  --      0.8037                 1.0053                 1.2056
 IR Inten    --     37.7564                54.8822               123.2248

                     22                     23                     24
                      A                      A                      A
 Frequencies --    609.1752               628.4243               672.0007
 Red. masses --      3.6450                 6.4231                 7.5459
 Frc consts  --      0.7969                 1.4945                 2.0077
 IR Inten    --     32.6086                 1.0341                17.8620

                     25                     26                     27
                      A                      A                      A
 Frequencies --    701.7749               718.6183               743.9837
 Red. masses --      1.7320                 7.2222                 3.7120
 Frc consts  --      0.5026                 2.1974                 1.2106
 IR Inten    --     56.8055                63.8744                 4.9643

                     28                     29                     30
                      A                      A                      A
 Frequencies --    764.3466               818.6332               829.4519
 Red. masses --      1.9010                 5.8868                 1.8683
 Frc consts  --      0.6544                 2.3244                 0.7573
 IR Inten    --      9.8184                31.9307                33.5333

                     31                     32                     33
                      A                      A                      A
 Frequencies --    847.1708               869.0400               901.0188
 Red. masses --      1.2515                 6.4479                 1.5261
 Frc consts  --      0.5292                 2.8691                 0.7300
 IR Inten    --      0.7653                17.7793                21.1376

                     34                     35                     36
                      A                      A                      A
 Frequencies --    932.9300               965.0883               981.6191
 Red. masses --      1.3943                 1.2684                 1.6283
 Frc consts  --      0.7150                 0.6961                 0.9244
 IR Inten    --      0.9870                 0.0762                 4.5383

                     37                     38                     39
                      A                      A                      A
 Frequencies --    985.8921               989.0834              1014.4118
 Red. masses --      2.3243                 1.3023                 5.8385
 Frc consts  --      1.3311                 0.7506                 3.5398
 IR Inten    --      8.6755                 0.1868                 4.7674

                     40                     41                     42
                      A                      A                      A
 Frequencies --   1041.3310              1063.8189              1095.1858
 Red. masses --      3.5615                 3.9352                 1.5921
 Frc consts  --      2.2754                 2.6240                 1.1251
 IR Inten    --     24.0885               119.3988                10.7442

                     43                     44                     45
                      A                      A                      A
 Frequencies --   1104.4247              1107.5910              1176.6143
 Red. masses --      1.8923                 3.2265                 1.1148
 Frc consts  --      1.3599                 2.3321                 0.9093
 IR Inten    --     19.2287               118.1344                 0.0541

                     46                     47                     48
                      A                      A                      A
 Frequencies --   1196.9295              1199.9628              1235.3147
 Red. masses --      1.1702                 1.8552                 3.7139
 Frc consts  --      0.9878                 1.5739                 3.3391
 IR Inten    --      4.8265                 4.3359                88.3297

                     49                     50                     51
                      A                      A                      A
 Frequencies --   1243.2198              1329.4161              1341.8037
 Red. masses --      3.0461                 2.8164                 2.1691
 Frc consts  --      2.7739                 2.9327                 2.3009
 IR Inten    --     88.2401                 0.1449                 0.8795

                     52                     53                     54
                      A                      A                      A
 Frequencies --   1345.2044              1420.3152              1465.9544
 Red. masses --      1.7818                 4.0129                 5.1116
 Frc consts  --      1.8997                 4.7695                 6.4722
 IR Inten    --      2.7131                26.2566               106.0745

                     55                     56                     57
                      A                      A                      A
 Frequencies --   1472.0087              1505.6414              1510.7916
 Red. masses --      2.3072                 2.0342                 7.5429
 Frc consts  --      2.9454                 2.7170                10.1437
 IR Inten    --     17.3102                13.5013                86.9845

                     58                     59                     60
                      A                      A                      A
 Frequencies --   1542.5974              1620.7513              1621.8785
 Red. masses --      8.0490                 5.6281                 5.5596
 Frc consts  --     11.2849                 8.7106                 8.6164
 IR Inten    --    335.4380                 1.0270                 2.6911

                     61                     62                     63
                      A                      A                      A
 Frequencies --   1636.0629              3141.3125              3149.0633
 Red. masses --      6.9524                 1.0855                 1.0850
 Frc consts  --     10.9644                 6.3108                 6.3393
 IR Inten    --     13.4025                13.6316                 1.6923

                     64                     65                     66
                      A                      A                      A
 Frequencies --   3162.7851              3164.3278              3175.4024
 Red. masses --      1.0952                 1.0899                 1.0954
 Frc consts  --      6.4548                 6.4298                 6.5074
 IR Inten    --     36.3290                27.9273                38.8252

                     67                     68                     69
                      A                      A                      A
 Frequencies --   3194.8261              3199.0679              3223.2467
 Red. masses --      1.0894                 1.0927                 1.0929
 Frc consts  --      6.5511                 6.5888                 6.6896
 IR Inten    --      7.3965                 6.3129                10.4178

 - Thermochemistry -
 -------------------
 Temperature   298.150 Kelvin.  Pressure   1.00000 Atm.
 Atom     1 has atomic number  6 and mass  12.00000

 Molecular mass:   248.01433 amu.
 Principal axes and moments of inertia in atomic units:
                           1         2         3
     Eigenvalues --  2353.655366142.094386510.97618
           X            0.24676  -0.56091   0.79024
           Y            0.25094   0.82463   0.50696
           Z            0.93602  -0.07321  -0.34425
 This molecule is an asymmetric top.
 Rotational symmetry number  1.
 Warning -- assumption of classical behavior for rotation
           may cause significant error
 Rotational temperatures (Kelvin)      0.03680     0.01410     0.01330
 Rotational constants (GHZ):           0.76678     0.29383     0.27718
 Zero-point vibrational energy     454948.6 (Joules/Mol)
                                  108.73532 (Kcal/Mol)
 Warning -- explicit consideration of  22 degrees of freedom as
           vibrations may cause significant error
 Vibrational temperatures:     46.46    53.68   106.20   165.33   222.49
          (Kelvin)            232.50   257.51   325.90   381.85   404.77
                              430.29   464.28   569.71   594.44   597.21
                              614.88   664.37   686.83   749.43   793.40
                              849.43   876.47   904.16   966.86  1009.70
                             1033.93  1070.43  1099.72  1177.83  1193.40
                             1218.89  1250.35  1296.37  1342.28  1388.55
                             1412.33  1418.48  1423.07  1459.51  1498.24
                             1530.60  1575.73  1589.02  1593.58  1692.89
                             1722.11  1726.48  1777.34  1788.72  1912.73
                             1930.56  1935.45  2043.52  2109.18  2117.89
                             2166.28  2173.69  2219.45  2331.90  2333.52
                             2353.93  4519.65  4530.80  4550.54  4552.76
                             4568.70  4596.64  4602.75  4637.53

 Zero-point correction=                           0.173281 (Hartree/Particle)
 Thermal correction to Energy=                    0.187360
 Thermal correction to Enthalpy=                  0.188305
 Thermal correction to Gibbs Free Energy=         0.130587
 Sum of electronic and zero-point Energies=          -1161.231684
 Sum of electronic and thermal Energies=             -1161.217604
 Sum of electronic and thermal Enthalpies=           -1161.216660
 Sum of electronic and thermal Free Energies=        -1161.274378

                     E (Thermal)             CV                S
                      KCal/Mol        Cal/Mol-Kelvin    Cal/Mol-Kelvin
 Total                  117.570             54.521            121.477
 Electronic               0.000              0.000              1.377
 Translational            0.889              2.981             42.426
 Rotational               0.889              2.981             32.909
 Vibrational            115.793             48.560             44.765
 Vibration     1          0.594              1.983              5.683
 Vibration     2          0.594              1.982              5.397
 Vibration     3          0.599              1.966              4.049
 Vibration     4          0.608              1.937              3.184
 Vibration     5          0.620              1.897              2.614
 Vibration     6          0.622              1.889              2.531
 Vibration     7          0.629              1.868              2.339
 Vibration     8          0.650              1.801              1.906
 Vibration     9          0.671              1.736              1.626
 Vibration    10          0.681              1.708              1.526
 Vibration    11          0.692              1.675              1.422
 Vibration    12          0.708              1.630              1.296
 Vibration    13          0.763              1.479              0.978
 Vibration    14          0.777              1.442              0.916
 Vibration    15          0.778              1.437              0.909
 Vibration    16          0.789              1.411              0.867
 Vibration    17          0.819              1.335              0.761
 Vibration    18          0.834              1.300              0.717
 Vibration    19          0.876              1.204              0.608
 Vibration    20          0.907              1.137              0.541
 Vibration    21          0.948              1.052              0.466
 Vibration    22          0.968              1.012              0.434

                           ! Non-Optimized Parameters !
 Normal termination of Gaussian 16 at Wed Dec 20 03:57:20 2023.
