 Gaussian 16, Revision A.03,
 Gaussian 16:  ES64L-G16RevA.03 25-Dec-2016

 ----------------------------------------------------------------------
 #P UB3LYP/6-311++G(d,p) nosym opt freq SCRF=(PCM,Solvent=n,n-DiMethylF
 ormamide)
 ----------------------------------------------------------------------

 -------
 Radical
 -------
 Symbolic Z-matrix:
 Charge = -1 Multiplicity = 2

 SCF Done:  E(UB3LYP) =  -843.946626899     A.U. after   20 cycles
 SCF Done:  E(UB3LYP) =  -843.947443492     A.U. after   17 cycles
 SCF Done:  E(UB3LYP) =  -843.947770837     A.U. after   16 cycles
 SCF Done:  E(UB3LYP) =  -843.947832485     A.U. after   15 cycles
 SCF Done:  E(UB3LYP) =  -843.947859691     A.U. after   14 cycles
 SCF Done:  E(UB3LYP) =  -843.947861683     A.U. after   12 cycles
 SCF Done:  E(UB3LYP) =  -843.947861848     A.U. after   10 cycles
 Optimization completed.
    -- Stationary point found.
 Normal termination of Gaussian 16 at Sat Feb 10 12:10:37 2024.

 ----------------------------------------------------------------------
 #P Geom=AllCheck Guess=TCheck SCRF=Check GenChk UB3LYP/6-311++G(d,p) F
 req
 ----------------------------------------------------------------------

 Structure from the checkpoint file:  "064-rad.chk"
 -------
 Radical
 -------
 Charge = -1 Multiplicity = 2

                          Input orientation:
 ---------------------------------------------------------------------
 Center     Atomic      Atomic             Coordinates (Angstroms)
 Number     Number       Type             X           Y           Z
 ---------------------------------------------------------------------
      1          8           0        1.425300    2.308036    0.075787
      2          6           0        0.783882    1.220685   -0.052171
      3          6           0       -0.656586    1.218809   -0.131435
      4          6           0       -1.436135    0.088404   -0.229814
      5          6           0       -0.783879   -1.220675   -0.268826
      6          8           0       -1.425301   -2.308028   -0.396749
      7          6           0        0.656588   -1.218800   -0.189542
      8          6           0        1.436137   -0.088396   -0.091164
      9          6           0        2.914029   -0.205580   -0.012564
     10          6           0        3.509052   -1.195038    0.788273
     11          6           0        4.893910   -1.346607    0.839224
     12          6           0        5.719246   -0.509386    0.088792
     13          6           0        5.144015    0.481338   -0.708930
     14          6           0        3.760090    0.635826   -0.755221
     15          6           0       -2.914028    0.205585   -0.308393
     16          6           0       -3.509066    1.195052   -1.109207
     17          6           0       -4.893926    1.346614   -1.160138
     18          6           0       -5.719248    0.509378   -0.409708
     19          6           0       -5.144001   -0.481357    0.387989
     20          6           0       -3.760075   -0.635839    0.434260
     21          1           0       -1.127092    2.195796   -0.076176
     22          1           0        1.127093   -2.195789   -0.244786
     23          1           0        2.879262   -1.842850    1.387809
     24          1           0        5.327202   -2.115008    1.470364
     25          1           0        6.796732   -0.624829    0.127058
     26          1           0        5.775862    1.136299   -1.299345
     27          1           0        3.326070    1.408890   -1.375105
     28          1           0       -2.879287    1.842876   -1.708741
     29          1           0       -5.327229    2.115023   -1.791260
     30          1           0       -6.796735    0.624815   -0.447959
     31          1           0       -5.775838   -1.136332    0.978400
     32          1           0       -3.326043   -1.408912    1.054124
 ---------------------------------------------------------------------

 SCF Done:  E(UB3LYP) =  -843.947861848     A.U. after    1 cycles

 Alpha  occ. eigenvalues --  -19.07694 -19.07694 -10.22252 -10.22251 -10.18529
 Alpha  occ. eigenvalues --  -10.18529 -10.17765 -10.17764 -10.17538 -10.17537
 Alpha  occ. eigenvalues --  -10.17480 -10.17480 -10.17431 -10.17431 -10.17420
 Alpha  occ. eigenvalues --  -10.17420 -10.17225 -10.17225 -10.16298 -10.16297
 Alpha  occ. eigenvalues --   -0.99836  -0.99569  -0.86346  -0.86129  -0.82607
 Alpha  occ. eigenvalues --   -0.78713  -0.75011  -0.74775  -0.74757  -0.71749
 Alpha  occ. eigenvalues --   -0.68128  -0.63284  -0.61257  -0.60640  -0.59408
 Alpha  occ. eigenvalues --   -0.58086  -0.55729  -0.51947  -0.50765  -0.48389
 Alpha  occ. eigenvalues --   -0.47024  -0.46510  -0.45208  -0.44671  -0.44262
 Alpha  occ. eigenvalues --   -0.43416  -0.42245  -0.42129  -0.41919  -0.40317
 Alpha  occ. eigenvalues --   -0.40106  -0.39048  -0.38166  -0.36999  -0.36873
 Alpha  occ. eigenvalues --   -0.36234  -0.35125  -0.34625  -0.34519  -0.34353
 Alpha  occ. eigenvalues --   -0.28905  -0.28640  -0.26031  -0.25867  -0.24904
 Alpha  occ. eigenvalues --   -0.24094  -0.23844  -0.23031  -0.16291
 Alpha virt. eigenvalues --   -0.04292  -0.01566  -0.01441  -0.01249  -0.00322
 Alpha virt. eigenvalues --    0.00084   0.00586   0.01266   0.01487   0.01881
 Alpha virt. eigenvalues --    0.02453   0.03005   0.03367   0.03792   0.04243

  Beta  occ. eigenvalues --  -19.06996 -19.06996 -10.22123 -10.22122 -10.18544
  Beta  occ. eigenvalues --  -10.18544 -10.17657 -10.17656 -10.17541 -10.17541
  Beta  occ. eigenvalues --  -10.17478 -10.17478 -10.17426 -10.17426 -10.17407
  Beta  occ. eigenvalues --  -10.17407 -10.17210 -10.17210 -10.16190 -10.16189
  Beta  occ. eigenvalues --   -0.98630  -0.98327  -0.86248  -0.86094  -0.82129
  Beta  occ. eigenvalues --   -0.78565  -0.74905  -0.74757  -0.74728  -0.71545
  Beta  occ. eigenvalues --   -0.67192  -0.63084  -0.61165  -0.60613  -0.59313
  Beta  occ. eigenvalues --   -0.57819  -0.55531  -0.51908  -0.50591  -0.48219
  Beta  occ. eigenvalues --   -0.46776  -0.46414  -0.45151  -0.44486  -0.44132
  Beta  occ. eigenvalues --   -0.43178  -0.42189  -0.42111  -0.41744  -0.39582
  Beta  occ. eigenvalues --   -0.38792  -0.38760  -0.37810  -0.36607  -0.36009
  Beta  occ. eigenvalues --   -0.35087  -0.34728  -0.34467  -0.34304  -0.34142
  Beta  occ. eigenvalues --   -0.28223  -0.26901  -0.25937  -0.25819  -0.23510
  Beta  occ. eigenvalues --   -0.23440  -0.23228  -0.22483
  Beta virt. eigenvalues --   -0.09319  -0.03597  -0.01535  -0.01408  -0.01045
  Beta virt. eigenvalues --   -0.00308   0.00087   0.01038   0.01506   0.01857
  Beta virt. eigenvalues --    0.01887   0.02640   0.03020   0.03505   0.03813

 Mulliken charges and spin densities:
               1          2
     1  O   -0.483208   0.251672
     2  C   -0.793470   0.092125
     3  C   -0.539704   0.054228
     4  C    1.065678   0.103296
     5  C   -0.793453   0.092123
     6  O   -0.483209   0.251672
     7  C   -0.539717   0.054225
     8  C    1.065710   0.103296
     9  C    1.221992  -0.022552
    10  C   -0.799819   0.013132
    11  C   -0.171114  -0.006466
    12  C   -0.534196   0.011276
    13  C   -0.122617  -0.002939
    14  C   -0.471125   0.018479
    15  C    1.222003  -0.022550
    16  C   -0.799788   0.013132
    17  C   -0.171134  -0.006466
    18  C   -0.534182   0.011276
    19  C   -0.122636  -0.002939
    20  C   -0.471103   0.018480
    21  H    0.182067  -0.008389
    22  H    0.182067  -0.008389
    23  H    0.187416  -0.001507
    24  H    0.193314   0.000452
    25  H    0.178134  -0.000793
    26  H    0.195885   0.000308
    27  H    0.190729  -0.002321
    28  H    0.187417  -0.001507
    29  H    0.193314   0.000452
    30  H    0.178135  -0.000793
    31  H    0.195884   0.000308
    32  H    0.190729  -0.002321
 Sum of Mulliken charges =  -1.00000   1.00000

 Dipole moment (field-independent basis, Debye):
    X=              0.0000    Y=             -0.0000    Z=              0.7708  Tot=              0.7708
 Quadrupole moment (field-independent basis, Debye-Ang):
   XX=           -124.7654   YY=           -144.6138   ZZ=           -120.3877
   XY=            -18.1622   XZ=             -2.9273   YZ=            -11.4110

  Exact polarizability: 517.914  27.811 340.574  12.743 -38.435 207.391
 Approx polarizability: 511.682  47.348 411.301   9.010 -53.473 244.553

                      1                      2                      3
                      A                      A                      A
 Frequencies --     30.6334                51.7206                63.7774
 Red. masses --      6.1925                 3.7336                 5.0888
 Frc consts  --      0.0034                 0.0059                 0.0122
 IR Inten    --      6.7512                 0.1043                 0.0000

                      4                      5                      6
                      A                      A                      A
 Frequencies --     67.8657               101.1788               131.7292
 Red. masses --      5.3011                 5.2842                 9.0888
 Frc consts  --      0.0144                 0.0319                 0.0929
 IR Inten    --      5.3315                 0.0000                14.2897

                      7                      8                      9
                      A                      A                      A
 Frequencies --    132.2470               206.3343               236.7364
 Red. masses --      5.1520                 6.8156                 5.0160
 Frc consts  --      0.0531                 0.1710                 0.1656
 IR Inten    --      0.0000                 0.0000                 2.5398

                     10                     11                     12
                      A                      A                      A
 Frequencies --    260.9853               297.2700               310.0543
 Red. masses --      5.4361                 5.8537                 8.5873
 Frc consts  --      0.2182                 0.3048                 0.4864
 IR Inten    --      0.0000                 0.0000                20.8679

                     13                     14                     15
                      A                      A                      A
 Frequencies --    320.9936               416.4497               416.6399
 Red. masses --      5.4402                 2.8983                 2.8971
 Frc consts  --      0.3303                 0.2962                 0.2963
 IR Inten    --      2.8904                 0.0000                 0.7077

                     16                     17                     18
                      A                      A                      A
 Frequencies --    433.8587               462.2991               480.1248
 Red. masses --      5.9769                 3.7222                 7.0360
 Frc consts  --      0.6629                 0.4687                 0.9556
 IR Inten    --      0.0000                 4.2283                26.3206

                     19                     20                     21
                      A                      A                      A
 Frequencies --    485.9230               520.0047               537.9633
 Red. masses --     11.7070                 3.0858                 4.2680
 Frc consts  --      1.6287                 0.4916                 0.7277
 IR Inten    --      0.0000                18.8242                 0.0000

                     22                     23                     24
                      A                      A                      A
 Frequencies --    599.2867               631.7563               632.3207
 Red. masses --      6.3621                 6.4022                 6.3219
 Frc consts  --      1.3462                 1.5055                 1.4893
 IR Inten    --      0.0000                 0.6682                 0.0000

                     25                     26                     27
                      A                      A                      A
 Frequencies --    669.1626               705.4928               707.5707
 Red. masses --      4.7573                 4.0785                 2.1790
 Frc consts  --      1.2551                 1.1960                 0.6428
 IR Inten    --      0.0000                95.5532                 0.0000

                     28                     29                     30
                      A                      A                      A
 Frequencies --    707.8931               711.7350               711.9634
 Red. masses --      2.9529                 3.1713                 2.3654
 Frc consts  --      0.8718                 0.9465                 0.7064
 IR Inten    --     42.3298                 0.0005                91.6527

                     31                     32                     33
                      A                      A                      A
 Frequencies --    758.1608               784.3661               784.5707
 Red. masses --      3.2232                 2.6792                 2.0726
 Frc consts  --      1.0916                 0.9712                 0.7517
 IR Inten    --      0.0000               107.7690                 0.0000

                     34                     35                     36
                      A                      A                      A
 Frequencies --    849.7679               854.0923               855.1443
 Red. masses --      2.9617                 1.2496                 1.4382
 Frc consts  --      1.2601                 0.5371                 0.6197
 IR Inten    --     60.2775                 0.0000                 5.2214

                     37                     38                     39
                      A                      A                      A
 Frequencies --    883.3364               904.9039               930.7616
 Red. masses --      1.6136                 1.4767                 7.0804
 Frc consts  --      0.7418                 0.7124                 3.6140
 IR Inten    --      0.0000                72.2912                 0.0000

                     40                     41                     42
                      A                      A                      A
 Frequencies --    932.7811               933.6991               987.9255
 Red. masses --      1.5047                 1.4930                 1.3709
 Frc consts  --      0.7714                 0.7669                 0.7883
 IR Inten    --      4.8759                 0.0000                 0.0019

                     43                     44                     45
                      A                      A                      A
 Frequencies --    987.9262              1003.1362              1003.5510
 Red. masses --      1.3719                 1.3208                 1.2927
 Frc consts  --      0.7889                 0.7831                 0.7671
 IR Inten    --      1.5907                 3.4714                 0.0000

                     46                     47                     48
                      A                      A                      A
 Frequencies --   1011.0594              1012.7406              1021.4545
 Red. masses --      5.0923                 6.0294                 4.1516
 Frc consts  --      3.0670                 3.6435                 2.5521
 IR Inten    --      9.2819                 0.0000                68.4969

                     49                     50                     51
                      A                      A                      A
 Frequencies --   1048.9877              1053.4463              1097.1723
 Red. masses --      2.1097                 1.9215                 1.6031
 Frc consts  --      1.3677                 1.2564                 1.1370
 IR Inten    --      0.0000                10.6525                22.7199

                     52                     53                     54
                      A                      A                      A
 Frequencies --   1097.1861              1173.9563              1174.2150
 Red. masses --      1.6033                 1.1550                 1.0997
 Frc consts  --      1.1371                 0.9379                 0.8933
 IR Inten    --      0.0018                 0.9543                 0.0000

                     55                     56                     57
                      A                      A                      A
 Frequencies --   1178.9011              1198.0503              1198.2766
 Red. masses --      5.3609                 1.1327                 1.1394
 Frc consts  --      4.3898                 0.9579                 0.9639
 IR Inten    --     15.9328                 0.0000                 1.8770

                     58                     59                     60
                      A                      A                      A
 Frequencies --   1236.3556              1264.1411              1264.4190
 Red. masses --      2.4189                 2.6481                 1.7411
 Frc consts  --      2.1785                 2.4933                 1.6400
 IR Inten    --      0.0000                77.7011                 0.0000

                     61                     62                     63
                      A                      A                      A
 Frequencies --   1289.8154              1310.5550              1329.1708
 Red. masses --      2.9094                 4.1814                 4.5706
 Frc consts  --      2.8517                 4.2314                 4.7576
 IR Inten    --     61.1883                 0.0000                42.2987

                     64                     65                     66
                      A                      A                      A
 Frequencies --   1349.3730              1353.6271              1417.1252
 Red. masses --      1.6209                 1.4907                 4.8445
 Frc consts  --      1.7389                 1.6094                 5.7321
 IR Inten    --      0.0000                 7.9565                 0.0000

                     67                     68                     69
                      A                      A                      A
 Frequencies --   1463.2478              1470.6685              1474.5877
 Red. masses --      2.4956                 2.9582                 5.6962
 Frc consts  --      3.1481                 3.7697                 7.2975
 IR Inten    --    224.0666                 0.0000                 0.0000

                     70                     71                     72
                      A                      A                      A
 Frequencies --   1493.4247              1506.5065              1520.0159
 Red. masses --      5.0046                 3.0669                 2.2442
 Frc consts  --      6.5764                 4.1010                 3.0550
 IR Inten    --    814.0909               279.9874                 0.0000

                     73                     74                     75
                      A                      A                      A
 Frequencies --   1530.3663              1603.6667              1607.1949
 Red. masses --      3.2077                 5.2008                 5.4146
 Frc consts  --      4.4263                 7.8804                 8.2404
 IR Inten    --    132.1864                 0.0000                 9.0738

                     76                     77                     78
                      A                      A                      A
 Frequencies --   1630.4613              1632.1159              1634.7582
 Red. masses --      6.2431                 5.6121                 6.4443
 Frc consts  --      9.7784                 8.8080                10.1469
 IR Inten    --      0.0000                65.9877                 0.0000

                     79                     80                     81
                      A                      A                      A
 Frequencies --   3154.4140              3156.7912              3158.3763
 Red. masses --      1.0888                 1.0890                 1.0854
 Frc consts  --      6.3834                 6.3937                 6.3792
 IR Inten    --     49.3045                 0.0000                 8.3109

                     82                     83                     84
                      A                      A                      A
 Frequencies --   3158.5373              3165.3827              3165.4553
 Red. masses --      1.0859                 1.0885                 1.0885
 Frc consts  --      6.3829                 6.4258                 6.4263
 IR Inten    --      0.0000                18.2259                 0.0000

                     85                     86                     87
                      A                      A                      A
 Frequencies --   3175.6048              3175.6393              3184.9880
 Red. masses --      1.0923                 1.0923                 1.0969
 Frc consts  --      6.4901                 6.4901                 6.5559
 IR Inten    --     79.7049                 0.0005                80.1079

                     88                     89                     90
                      A                      A                      A
 Frequencies --   3185.0603              3204.5711              3204.5838
 Red. masses --      1.0969                 1.0927                 1.0927
 Frc consts  --      6.5560                 6.6116                 6.6116
 IR Inten    --      0.0000                 0.2385                19.6345

 - Thermochemistry -
 -------------------
 Temperature   298.150 Kelvin.  Pressure   1.00000 Atm.
 Atom     1 has atomic number  8 and mass  15.99491

 Molecular mass:   260.08373 amu.
 Principal axes and moments of inertia in atomic units:
                           1         2         3
     Eigenvalues --  1580.39757********************
           X            0.99758   0.06043  -0.03428
           Y           -0.05149   0.97431   0.21925
           Z            0.04665  -0.21695   0.97507
 This molecule is an asymmetric top.
 Rotational symmetry number  1.
 Warning -- assumption of classical behavior for rotation
           may cause significant error
 Rotational temperatures (Kelvin)      0.05481     0.00734     0.00668
 Rotational constants (GHZ):           1.14195     0.15288     0.13923
 Zero-point vibrational energy     641393.0 (Joules/Mol)
                                  153.29661 (Kcal/Mol)
 Warning -- explicit consideration of  22 degrees of freedom as
           vibrations may cause significant error
 Vibrational temperatures:     44.07    74.41    91.76    97.64   145.57
          (Kelvin)            189.53   190.27   296.87   340.61   375.50
                              427.71   446.10   461.84   599.18   599.45
                              624.23   665.15   690.79   699.13   748.17
                              774.01   862.24   908.96   909.77   962.78
                             1015.05  1018.04  1018.50  1024.03  1024.36
                             1090.82  1128.53  1128.82  1222.63  1228.85
                             1230.36  1270.92  1301.95  1339.16  1342.06
                             1343.38  1421.40  1421.41  1443.29  1443.89
                             1454.69  1457.11  1469.65  1509.26  1515.67
                             1578.59  1578.61  1689.06  1689.43  1696.18
                             1723.73  1724.05  1778.84  1818.82  1819.22
                             1855.76  1885.60  1912.38  1941.45  1947.57
                             2038.93  2105.29  2115.96  2121.60  2148.71
                             2167.53  2186.96  2201.86  2307.32  2312.39
                             2345.87  2348.25  2352.05  4538.50  4541.92
                             4544.20  4544.43  4554.28  4554.38  4568.99
                             4569.04  4582.49  4582.59  4610.66  4610.68

 Zero-point correction=                           0.244294 (Hartree/Particle)
 Thermal correction to Energy=                    0.259698
 Thermal correction to Enthalpy=                  0.260643
 Thermal correction to Gibbs Free Energy=         0.199723
 Sum of electronic and zero-point Energies=           -843.703568
 Sum of electronic and thermal Energies=              -843.688163
 Sum of electronic and thermal Enthalpies=            -843.687219
 Sum of electronic and thermal Free Energies=         -843.748139

                     E (Thermal)             CV                S
                      KCal/Mol        Cal/Mol-Kelvin    Cal/Mol-Kelvin
 Total                  162.963             61.583            128.216
 Electronic               0.000              0.000              1.377
 Translational            0.889              2.981             42.567
 Rotational               0.889              2.981             33.847
 Vibrational            161.186             55.621             50.425
 Vibration     1          0.594              1.984              5.788
 Vibration     2          0.596              1.977              4.750
 Vibration     3          0.597              1.972              4.337
 Vibration     4          0.598              1.970              4.214
 Vibration     5          0.604              1.948              3.431
 Vibration     6          0.612              1.922              2.921
 Vibration     7          0.612              1.921              2.913
 Vibration     8          0.641              1.831              2.076
 Vibration     9          0.656              1.784              1.827
 Vibration    10          0.669              1.744              1.655
 Vibration    11          0.691              1.679              1.432
 Vibration    12          0.699              1.655              1.362
 Vibration    13          0.706              1.633              1.305
 Vibration    14          0.780              1.435              0.904
 Vibration    15          0.780              1.434              0.903
 Vibration    16          0.795              1.396              0.846
 Vibration    17          0.820              1.334              0.759
 Vibration    18          0.836              1.294              0.710
 Vibration    19          0.842              1.281              0.694
 Vibration    20          0.875              1.206              0.610
 Vibration    21          0.893              1.166              0.570
 Vibration    22          0.957              1.033              0.451

 Optimization completed.
    -- Stationary point found.
 Normal termination of Gaussian 16 at Sat Feb 10 13:56:54 2024.
