 Gaussian 16, Revision A.03,
 Gaussian 16:  ES64L-G16RevA.03 25-Dec-2016

 ----------------------------------------------------------------------
 #P UB3LYP/6-311++G(d,p) nosym opt freq SCRF=(PCM,Solvent=n,n-DiMethylF
 ormamide)
 ----------------------------------------------------------------------

 -------
 Reduced
 -------
 Symbolic Z-matrix:
 Charge = -2 Multiplicity = 1

 SCF Done:  E(UB3LYP) =  -918.296356194     A.U. after   18 cycles
 SCF Done:  E(UB3LYP) =  -918.298317105     A.U. after   13 cycles
 SCF Done:  E(UB3LYP) =  -918.298682918     A.U. after   13 cycles
 SCF Done:  E(UB3LYP) =  -918.298743973     A.U. after   13 cycles
 SCF Done:  E(UB3LYP) =  -918.298850827     A.U. after   12 cycles
 SCF Done:  E(UB3LYP) =  -918.298949386     A.U. after   14 cycles
 SCF Done:  E(UB3LYP) =  -918.299014559     A.U. after   13 cycles
 SCF Done:  E(UB3LYP) =  -918.299184300     A.U. after   13 cycles
 SCF Done:  E(UB3LYP) =  -918.299271757     A.U. after   13 cycles
 SCF Done:  E(UB3LYP) =  -918.299308488     A.U. after   13 cycles
 SCF Done:  E(UB3LYP) =  -918.300991658     A.U. after   12 cycles
 SCF Done:  E(UB3LYP) =  -918.300998364     A.U. after   12 cycles
 SCF Done:  E(UB3LYP) =  -918.301004496     A.U. after   12 cycles
 SCF Done:  E(UB3LYP) =  -918.301011496     A.U. after   11 cycles
 SCF Done:  E(UB3LYP) =  -918.301018649     A.U. after   12 cycles
 SCF Done:  E(UB3LYP) =  -918.301023463     A.U. after   12 cycles
 SCF Done:  E(UB3LYP) =  -918.301024773     A.U. after   10 cycles
 SCF Done:  E(UB3LYP) =  -918.301024894     A.U. after   10 cycles
 SCF Done:  E(UB3LYP) =  -918.301024938     A.U. after    8 cycles
 Optimization completed.
    -- Stationary point found.
 Normal termination of Gaussian 16 at Sat Feb 10 20:39:33 2024.

 ----------------------------------------------------------------------
 #P Geom=AllCheck Guess=TCheck SCRF=Check GenChk UB3LYP/6-311++G(d,p) F
 req
 ----------------------------------------------------------------------

 Structure from the checkpoint file:  "142-an.chk"
 -------
 Reduced
 -------
 Charge = -2 Multiplicity = 1

                          Input orientation:
 ---------------------------------------------------------------------
 Center     Atomic      Atomic             Coordinates (Angstroms)
 Number     Number       Type             X           Y           Z
 ---------------------------------------------------------------------
      1          6           0       -3.253023    3.670086    0.087725
      2          6           0       -4.476743    3.044230    0.086353
      3          6           0       -4.553477    1.622876    0.050293
      4          6           0       -2.024582    2.944430    0.055050
      5          6           0       -2.096769    1.493267    0.019695
      6          6           0       -3.381968    0.895901    0.018192
      7          6           0       -0.779679    3.653713    0.058032
      8          6           0        0.393953    2.832568    0.026785
      9          6           0        0.330902    1.380983   -0.008313
     10          6           0       -0.918881    0.664164   -0.012393
     11          6           0        1.684512    3.442376    0.028590
     12          6           0        2.844780    2.706121   -0.002610
     13          6           0        2.789032    1.283778   -0.037645
     14          6           0        1.555143    0.667945   -0.039237
     15          8           0       -0.718079    4.965521    0.086252
     16          8           0       -0.979645   -0.633349   -0.041743
     17          1           0       -3.426105   -0.187518   -0.009376
     18          1           0        1.498854   -0.414593   -0.065699
     19          1           0       -3.206405    4.752076    0.115616
     20          1           0        1.737694    4.524535    0.055248
     21          8           0        4.036276    3.414092    0.002479
     22          6           0        5.260096    2.688574   -0.035108
     23          8           0       -5.596813    3.859773    0.121352
     24          1           0        3.691055    0.686529   -0.062504
     25          1           0        6.052368    3.436343   -0.027014
     26          1           0        5.345700    2.086000   -0.945552
     27          1           0        5.372502    2.038401    0.838948
     28          6           0       -6.883325    3.251281    0.124274
     29          1           0       -5.507072    1.111341    0.047663
     30          1           0       -7.601938    4.069570    0.155247
     31          1           0       -7.027939    2.614297    1.003291
     32          1           0       -7.053540    2.659480   -0.781334
 ---------------------------------------------------------------------

 SCF Done:  E(UB3LYP) =  -918.301024938     A.U. after    2 cycles

 Alpha  occ. eigenvalues --  -19.13888 -19.13886 -19.02109 -19.00974 -10.21185
 Alpha  occ. eigenvalues --  -10.21184 -10.20952 -10.20950 -10.17579 -10.16246
 Alpha  occ. eigenvalues --  -10.15113 -10.15109 -10.15022 -10.15018 -10.13794
 Alpha  occ. eigenvalues --  -10.13789 -10.13714 -10.13712 -10.13382 -10.13381
 Alpha  occ. eigenvalues --   -1.04786  -1.04784  -0.93279  -0.91654  -0.82672
 Alpha  occ. eigenvalues --   -0.82113  -0.75640  -0.73709  -0.73405  -0.71219
 Alpha  occ. eigenvalues --   -0.68777  -0.67559  -0.63139  -0.60986  -0.58082
 Alpha  occ. eigenvalues --   -0.56719  -0.53317  -0.51795  -0.51733  -0.47786
 Alpha  occ. eigenvalues --   -0.47001  -0.45941  -0.45710  -0.45701  -0.44575
 Alpha  occ. eigenvalues --   -0.42490  -0.41014  -0.40293  -0.39974  -0.39493
 Alpha  occ. eigenvalues --   -0.38144  -0.37358  -0.36915  -0.35952  -0.35451
 Alpha  occ. eigenvalues --   -0.35054  -0.33966  -0.32896  -0.32812  -0.31766
 Alpha  occ. eigenvalues --   -0.31010  -0.30045  -0.29583  -0.27549  -0.22987
 Alpha  occ. eigenvalues --   -0.21991  -0.20826  -0.19991  -0.19915  -0.19064
 Alpha  occ. eigenvalues --   -0.10327
 Alpha virt. eigenvalues --   -0.02700  -0.00144   0.00267   0.01048   0.01419
 Alpha virt. eigenvalues --    0.01529   0.02237   0.02242   0.03213   0.03654
 Alpha virt. eigenvalues --    0.03750   0.03999   0.04561   0.05096   0.05666

  Beta  occ. eigenvalues --  -19.13888 -19.13886 -19.02109 -19.00974 -10.21185
  Beta  occ. eigenvalues --  -10.21184 -10.20952 -10.20950 -10.17579 -10.16246
  Beta  occ. eigenvalues --  -10.15113 -10.15109 -10.15022 -10.15018 -10.13794
  Beta  occ. eigenvalues --  -10.13789 -10.13714 -10.13712 -10.13382 -10.13381
  Beta  occ. eigenvalues --   -1.04786  -1.04784  -0.93279  -0.91654  -0.82672
  Beta  occ. eigenvalues --   -0.82113  -0.75640  -0.73709  -0.73405  -0.71219
  Beta  occ. eigenvalues --   -0.68777  -0.67559  -0.63139  -0.60986  -0.58082
  Beta  occ. eigenvalues --   -0.56719  -0.53317  -0.51795  -0.51733  -0.47786
  Beta  occ. eigenvalues --   -0.47001  -0.45941  -0.45710  -0.45701  -0.44575
  Beta  occ. eigenvalues --   -0.42490  -0.41014  -0.40293  -0.39974  -0.39493
  Beta  occ. eigenvalues --   -0.38144  -0.37358  -0.36915  -0.35952  -0.35451
  Beta  occ. eigenvalues --   -0.35054  -0.33966  -0.32896  -0.32812  -0.31766
  Beta  occ. eigenvalues --   -0.31010  -0.30045  -0.29583  -0.27549  -0.22987
  Beta  occ. eigenvalues --   -0.21991  -0.20826  -0.19991  -0.19915  -0.19064
  Beta  occ. eigenvalues --   -0.10327
  Beta virt. eigenvalues --   -0.02700  -0.00144   0.00267   0.01048   0.01419
  Beta virt. eigenvalues --    0.01529   0.02237   0.02242   0.03213   0.03654
  Beta virt. eigenvalues --    0.03750   0.03999   0.04561   0.05096   0.05666

 Mulliken charges and spin densities:
               1          2
     1  C   -0.679309   0.000000
     2  C   -0.753456  -0.000000
     3  C   -0.019118  -0.000000
     4  C    0.752492  -0.000000
     5  C    0.569977   0.000000
     6  C   -0.078108   0.000000
     7  C   -0.634336  -0.000000
     8  C    0.750503   0.000000
     9  C    0.570492  -0.000000
    10  C   -0.420181   0.000000
    11  C   -0.677270  -0.000000
    12  C   -0.754332   0.000000
    13  C   -0.021256  -0.000000
    14  C   -0.076829   0.000000
    15  O   -0.709386   0.000000
    16  O   -0.658637  -0.000000
    17  H    0.148932  -0.000000
    18  H    0.147833  -0.000000
    19  H    0.152654   0.000000
    20  H    0.153844   0.000000
    21  O   -0.237545  -0.000000
    22  C   -0.331512   0.000000
    23  O   -0.237641  -0.000000
    24  H    0.193794  -0.000000
    25  H    0.181892   0.000000
    26  H    0.155526   0.000000
    27  H    0.155501   0.000000
    28  C   -0.331231  -0.000000
    29  H    0.193883  -0.000000
    30  H    0.181788   0.000000
    31  H    0.155554   0.000000
    32  H    0.155482   0.000000
 Sum of Mulliken charges =  -2.00000   0.00000

 Dipole moment (field-independent basis, Debye):
    X=              7.9569    Y=            -24.9936    Z=             -0.3230  Tot=             26.2316
 Quadrupole moment (field-independent basis, Debye-Ang):
   XX=           -124.2940   YY=           -251.7539   ZZ=           -128.7896
   XY=             17.4683   XZ=             -0.0158   YZ=             -2.1594

  Exact polarizability: 621.192  -9.865 405.148  -5.119   5.540 181.889
 Approx polarizability: 657.926  -8.192 477.590  -5.228   6.823 200.675

                      1                      2                      3
                      A                      A                      A
 Frequencies --     28.0843                37.4408                52.7556
 Red. masses --      3.2021                 3.1154                 6.0569
 Frc consts  --      0.0015                 0.0026                 0.0099
 IR Inten    --     26.0461                 0.2606                 0.8084

                      4                      5                      6
                      A                      A                      A
 Frequencies --     85.0642               113.0520               125.8242
 Red. masses --      4.0748                 5.1810                 4.7411
 Frc consts  --      0.0174                 0.0390                 0.0442
 IR Inten    --      0.2319                14.0180                21.7410

                      7                      8                      9
                      A                      A                      A
 Frequencies --    162.3265               177.5800               194.1746
 Red. masses --      7.0238                 4.9945                 4.9196
 Frc consts  --      0.1090                 0.0928                 0.1093
 IR Inten    --      8.4888                 0.8583                 1.3738

                     10                     11                     12
                      A                      A                      A
 Frequencies --    224.3058               229.9807               261.9790
 Red. masses --      1.2337                 1.1709                 4.1863
 Frc consts  --      0.0366                 0.0365                 0.1693
 IR Inten    --      1.8409                 0.0054                 0.3066

                     13                     14                     15
                      A                      A                      A
 Frequencies --    295.6115               301.0225               307.9977
 Red. masses --      4.3039                 4.8921                 5.3850
 Frc consts  --      0.2216                 0.2612                 0.3010
 IR Inten    --      0.5695                 3.8389                 6.8320

                     16                     17                     18
                      A                      A                      A
 Frequencies --    329.9702               338.7926               395.2148
 Red. masses --     10.5609                 4.9805                 7.1812
 Frc consts  --      0.6775                 0.3368                 0.6609
 IR Inten    --      0.0005                 0.0056                 4.0503

                     19                     20                     21
                      A                      A                      A
 Frequencies --    404.2583               459.4559               468.4157
 Red. masses --      5.3230                 4.1431                 2.8558
 Frc consts  --      0.5125                 0.5153                 0.3692
 IR Inten    --      1.0582                15.2630                 0.3109

                     22                     23                     24
                      A                      A                      A
 Frequencies --    471.2880               506.5877               527.6155
 Red. masses --      6.7429                 7.8149                 4.4051
 Frc consts  --      0.8824                 1.1816                 0.7225
 IR Inten    --     24.2160                 4.6708                25.1594

                     25                     26                     27
                      A                      A                      A
 Frequencies --    579.8721               584.0371               606.9171
 Red. masses --      6.5712                 5.1054                 4.7447
 Frc consts  --      1.3018                 1.0260                 1.0297
 IR Inten    --     41.0672                 0.0404                12.0266

                     28                     29                     30
                      A                      A                      A
 Frequencies --    643.9548               646.2991               702.2506
 Red. masses --      2.9757                 7.6963                 6.7381
 Frc consts  --      0.7270                 1.8941                 1.9578
 IR Inten    --     42.1806                 8.8092                 3.1229

                     31                     32                     33
                      A                      A                      A
 Frequencies --    708.9101               710.3174               716.1233
 Red. masses --      5.8075                 4.1816                 5.2744
 Frc consts  --      1.7196                 1.2431                 1.5937
 IR Inten    --     67.4673                10.3104                61.2690

                     34                     35                     36
                      A                      A                      A
 Frequencies --    756.0949               763.4993               772.6784
 Red. masses --      1.8873                 6.5500                 1.4892
 Frc consts  --      0.6357                 2.2496                 0.5238
 IR Inten    --     28.6081               235.6559                 0.1882

                     37                     38                     39
                      A                      A                      A
 Frequencies --    808.8273               870.9513               884.3808
 Red. masses --      3.8701                 1.5350                 1.4734
 Frc consts  --      1.4917                 0.6860                 0.6790
 IR Inten    --     27.5014                33.1972                50.2206

                     40                     41                     42
                      A                      A                      A
 Frequencies --    893.6302               925.9581               959.1941
 Red. masses --      5.3417                 5.8338                 1.3097
 Frc consts  --      2.5133                 2.9470                 0.7100
 IR Inten    --     11.8942                55.3558                 2.0436

                     43                     44                     45
                      A                      A                      A
 Frequencies --    967.2957               983.9604              1036.2383
 Red. masses --      1.3051                 3.3591                 2.7548
 Frc consts  --      0.7195                 1.9161                 1.7429
 IR Inten    --      4.2220                 4.0221                23.2908

                     46                     47                     48
                      A                      A                      A
 Frequencies --   1042.6398              1091.5909              1111.9176
 Red. masses --      3.1887                 5.3976                 2.0273
 Frc consts  --      2.0424                 3.7894                 1.4767
 IR Inten    --    138.0929               808.8436               204.2217

                     49                     50                     51
                      A                      A                      A
 Frequencies --   1129.2056              1164.1264              1164.2036
 Red. masses --      2.3068                 1.2829                 1.4161
 Frc consts  --      1.7330                 1.0244                 1.1309
 IR Inten    --     42.9126                33.7831               345.5876

                     52                     53                     54
                      A                      A                      A
 Frequencies --   1164.3475              1170.5572              1179.3647
 Red. masses --      2.1132                 1.3719                 1.8751
 Frc consts  --      1.6879                 1.1075                 1.5367
 IR Inten    --   1330.8261               680.7477                 2.3141

                     55                     56                     57
                      A                      A                      A
 Frequencies --   1186.9369              1196.1816              1225.9936
 Red. masses --      2.0165                 1.9977                 2.3742
 Frc consts  --      1.6738                 1.6842                 2.1025
 IR Inten    --     95.7236                67.8610               269.1542

                     58                     59                     60
                      A                      A                      A
 Frequencies --   1247.6177              1256.8480              1304.1131
 Red. masses --      2.9148                 2.6766                 5.8337
 Frc consts  --      2.6732                 2.4912                 5.8455
 IR Inten    --    232.9065                14.6949               437.6094

                     61                     62                     63
                      A                      A                      A
 Frequencies --   1329.1197              1338.8478              1354.2781
 Red. masses --      2.1596                 4.4676                 5.9721
 Frc consts  --      2.2478                 4.7183                 6.4535
 IR Inten    --     97.0150              2488.1533               592.1803

                     64                     65                     66
                      A                      A                      A
 Frequencies --   1418.2604              1444.3948              1450.6780
 Red. masses --      5.1768                 2.5110                 6.8596
 Frc consts  --      6.1351                 3.0865                 8.5053
 IR Inten    --     71.4715               274.3371               131.8977

                     67                     68                     69
                      A                      A                      A
 Frequencies --   1472.1436              1475.1113              1481.1426
 Red. masses --      1.3183                 1.3609                 1.0461
 Frc consts  --      1.6833                 1.7448                 1.3521
 IR Inten    --     12.5989                 4.3700                 8.9135

                     70                     71                     72
                      A                      A                      A
 Frequencies --   1481.3688              1495.0625              1496.6646
 Red. masses --      1.0461                 1.8672                 1.4769
 Frc consts  --      1.3525                 2.4590                 1.9492
 IR Inten    --     12.6056                81.9646                52.0309

                     73                     74                     75
                      A                      A                      A
 Frequencies --   1500.0847              1500.9907              1528.7331
 Red. masses --      1.2353                 2.3257                 4.6473
 Frc consts  --      1.6377                 3.0872                 6.3990
 IR Inten    --      3.9730                66.8449                 5.3249

                     76                     77                     78
                      A                      A                      A
 Frequencies --   1566.8755              1608.3224              1622.9293
 Red. masses --      7.0191                 6.1940                 7.1518
 Frc consts  --     10.1531                 9.4400                11.0985
 IR Inten    --     48.8043              1102.0793                37.7268

                     79                     80                     81
                      A                      A                      A
 Frequencies --   3002.7537              3002.9852              3059.4212
 Red. masses --      1.0337                 1.0338                 1.1061
 Frc consts  --      5.4914                 5.4928                 6.0998
 IR Inten    --    179.1048               106.1382                66.3892

                     82                     83                     84
                      A                      A                      A
 Frequencies --   3059.5404              3121.6548              3122.7752
 Red. masses --      1.1061                 1.0996                 1.0995
 Frc consts  --      6.1002                 6.3134                 6.3170
 IR Inten    --     69.8103                44.7978                45.1797

                     85                     86                     87
                      A                      A                      A
 Frequencies --   3167.4159              3172.5189              3181.0190
 Red. masses --      1.0865                 1.0859                 1.0881
 Frc consts  --      6.4223                 6.4393                 6.4869
 IR Inten    --     10.2431                 5.4164                34.0411

                     88                     89                     90
                      A                      A                      A
 Frequencies --   3188.9684              3195.7758              3196.7305
 Red. masses --      1.0876                 1.0918                 1.0920
 Frc consts  --      6.5166                 6.5694                 6.5751
 IR Inten    --     26.7728                37.3845                37.7091

 - Thermochemistry -
 -------------------
 Temperature   298.150 Kelvin.  Pressure   1.00000 Atm.
 Atom     1 has atomic number  6 and mass  12.00000

 Molecular mass:   268.07356 amu.
 Principal axes and moments of inertia in atomic units:
                           1         2         3
     Eigenvalues --  1970.20776********************
           X            0.99885   0.04648   0.01137
           Y           -0.04619   0.99863  -0.02446
           Z           -0.01250   0.02391   0.99964
 This molecule is an asymmetric top.
 Rotational symmetry number  1.
 Warning -- assumption of classical behavior for rotation
           may cause significant error
 Rotational temperatures (Kelvin)      0.04396     0.00819     0.00692
 Rotational constants (GHZ):           0.91602     0.17067     0.14413
 Zero-point vibrational energy     626199.6 (Joules/Mol)
                                  149.66530 (Kcal/Mol)
 Warning -- explicit consideration of  27 degrees of freedom as
           vibrations may cause significant error
 Vibrational temperatures:     40.41    53.87    75.90   122.39   162.66
          (Kelvin)            181.03   233.55   255.50   279.37   322.73
                              330.89   376.93   425.32   433.10   443.14
                              474.75   487.45   568.63   581.64   661.05
                              673.95   678.08   728.87   759.12   834.31
                              840.30   873.22   926.51   929.88  1010.38
                             1019.96  1021.99  1030.34  1087.85  1098.51
                             1111.71  1163.72  1253.10  1272.43  1285.73
                             1332.25  1380.07  1391.72  1415.70  1490.92
                             1500.13  1570.56  1599.80  1624.67  1674.92
                             1675.03  1675.24  1684.17  1696.84  1707.74
                             1721.04  1763.93  1795.04  1808.32  1876.33
                             1912.31  1926.30  1948.50  2040.56  2078.16
                             2087.20  2118.09  2122.36  2131.03  2131.36
                             2151.06  2153.37  2158.29  2159.59  2199.51
                             2254.38  2314.02  2335.03  4320.29  4320.63
                             4401.82  4402.00  4491.36  4492.98  4557.21
                             4564.55  4576.78  4588.21  4598.01  4599.38

 Zero-point correction=                           0.238507 (Hartree/Particle)
 Thermal correction to Energy=                    0.255492
 Thermal correction to Enthalpy=                  0.256437
 Thermal correction to Gibbs Free Energy=         0.193032
 Sum of electronic and zero-point Energies=           -918.062518
 Sum of electronic and thermal Energies=              -918.045533
 Sum of electronic and thermal Enthalpies=            -918.044588
 Sum of electronic and thermal Free Energies=         -918.107993

                     E (Thermal)             CV                S
                      KCal/Mol        Cal/Mol-Kelvin    Cal/Mol-Kelvin
 Total                  160.324             65.804            133.446
 Electronic               0.000              0.000              0.000
 Translational            0.889              2.981             42.657
 Rotational               0.889              2.981             33.922
 Vibrational            158.546             59.842             56.867
 Vibration     1          0.593              1.984              5.960
 Vibration     2          0.594              1.982              5.390
 Vibration     3          0.596              1.977              4.711
 Vibration     4          0.601              1.960              3.770
 Vibration     5          0.607              1.939              3.216
 Vibration     6          0.611              1.927              3.009
 Vibration     7          0.622              1.889              2.523
 Vibration     8          0.628              1.870              2.354
 Vibration     9          0.635              1.848              2.188
 Vibration    10          0.649              1.804              1.924
 Vibration    11          0.652              1.795              1.879
 Vibration    12          0.669              1.742              1.649
 Vibration    13          0.690              1.682              1.442
 Vibration    14          0.693              1.672              1.411
 Vibration    15          0.698              1.658              1.373
 Vibration    16          0.713              1.616              1.260
 Vibration    17          0.719              1.598              1.218
 Vibration    18          0.762              1.480              0.980
 Vibration    19          0.769              1.461              0.947
 Vibration    20          0.817              1.340              0.768
 Vibration    21          0.826              1.320              0.742
 Vibration    22          0.828              1.314              0.734
 Vibration    23          0.862              1.235              0.642
 Vibration    24          0.883              1.189              0.593
 Vibration    25          0.937              1.075              0.486
 Vibration    26          0.941              1.066              0.478
 Vibration    27          0.966              1.017              0.438

 Optimization completed.
    -- Stationary point found.
 Normal termination of Gaussian 16 at Sat Feb 10 21:20:38 2024.
