 Gaussian 16, Revision A.03,
 Gaussian 16:  ES64L-G16RevA.03 25-Dec-2016

 ----------------------------------------------------------------
 #P UB3LYP/6-311++G(d,p) SCRF=(PCM,Solvent=n,n-DiMethylFormamide)
 ----------------------------------------------------------------

 -------
 Reduced
 -------
 Symbolic Z-matrix:
 Charge = -2 Multiplicity = 1

                         Standard orientation:
 ---------------------------------------------------------------------
 Center     Atomic      Atomic             Coordinates (Angstroms)
 Number     Number       Type             X           Y           Z
 ---------------------------------------------------------------------
      1          6           0        3.338158    0.709054   -0.027110
      2          6           0        4.297227   -0.281601   -0.005653
      3          6           0        3.895632   -1.647949    0.030009
      4          6           0        1.949001    0.416139   -0.014688
      5          6           0        1.542811   -0.966140    0.017052
      6          6           0        2.553438   -1.963593    0.042318
      7          6           0        0.995611    1.494525   -0.024760
      8          6           0        0.158928   -1.356683    0.014324
      9          6           0       -0.401314    1.115531    0.006549
     10          6           0       -0.810568   -0.288975   -0.031897
     11          6           0       -1.429096    2.132294    0.053215
     12          6           0       -2.761430    1.775811    0.027275
     13          6           0       -3.166783    0.421895   -0.064355
     14          6           0       -2.229401   -0.598809   -0.107616
     15          8           0        1.412049    2.728879   -0.067057
     16          8           0       -0.158274   -2.624577    0.058681
     17          7           0       -1.074553    3.501871    0.184688
     18          7           0       -2.615463   -1.931853   -0.260623
     19          6           0       -3.921971   -2.373550    0.138263
     20          1           0        3.609303    1.759564   -0.051450
     21          1           0        5.354907   -0.023034   -0.013404
     22          1           0        4.645536   -2.437265    0.046773
     23          1           0        2.214015   -2.993945    0.068371
     24          1           0       -3.514643    2.558290    0.108965
     25          1           0       -4.225016    0.188724   -0.122340
     26          1           0       -0.054403    3.584468    0.027377
     27          1           0       -1.619685    4.088327   -0.435294
     28          1           0       -1.795740   -2.546660   -0.086993
     29          1           0       -4.711361   -2.045343   -0.556836
     30          1           0       -4.224764   -2.016091    1.145159
     31          1           0       -3.939691   -3.469276    0.150659
 ---------------------------------------------------------------------

 SCF Done:  E(UB3LYP) =  -839.256243184     A.U. after   17 cycles

 The electronic state is 1-A.
 Alpha  occ. eigenvalues --  -19.02431 -19.02309 -14.27428 -14.26775 -10.17751
 Alpha  occ. eigenvalues --  -10.17672 -10.17635 -10.17477 -10.17098 -10.14916
 Alpha  occ. eigenvalues --  -10.14873 -10.14541 -10.14533 -10.14101 -10.14054
 Alpha  occ. eigenvalues --  -10.13499 -10.13449 -10.13058 -10.12973  -0.94469
 Alpha  occ. eigenvalues --   -0.94072  -0.89149  -0.86860  -0.82486  -0.79154
 Alpha  occ. eigenvalues --   -0.74750  -0.72257  -0.70714  -0.69824  -0.64991
 Alpha  occ. eigenvalues --   -0.63192  -0.60038  -0.58993  -0.54629  -0.52908
 Alpha  occ. eigenvalues --   -0.51049  -0.49098  -0.47698  -0.45539  -0.44155
 Alpha  occ. eigenvalues --   -0.43709  -0.43043  -0.41900  -0.41632  -0.40030
 Alpha  occ. eigenvalues --   -0.39774  -0.38066  -0.37791  -0.37481  -0.35841
 Alpha  occ. eigenvalues --   -0.35254  -0.34507  -0.34268  -0.33982  -0.32894
 Alpha  occ. eigenvalues --   -0.31613  -0.30566  -0.30304  -0.28647  -0.23749
 Alpha  occ. eigenvalues --   -0.22888  -0.22300  -0.21328  -0.20519  -0.19507
 Alpha  occ. eigenvalues --   -0.16257  -0.10317
 Alpha virt. eigenvalues --   -0.01814  -0.00042   0.00344   0.00583   0.01044
 Alpha virt. eigenvalues --    0.02206   0.02317   0.03074   0.03593   0.04038
 Alpha virt. eigenvalues --    0.04207   0.04776   0.05547   0.05933   0.05988

  Beta  occ. eigenvalues --  -19.02431 -19.02309 -14.27428 -14.26775 -10.17751
  Beta  occ. eigenvalues --  -10.17672 -10.17635 -10.17477 -10.17098 -10.14916
  Beta  occ. eigenvalues --  -10.14873 -10.14541 -10.14533 -10.14101 -10.14054
  Beta  occ. eigenvalues --  -10.13499 -10.13449 -10.13058 -10.12973  -0.94469
  Beta  occ. eigenvalues --   -0.94072  -0.89149  -0.86860  -0.82486  -0.79154
  Beta  occ. eigenvalues --   -0.74750  -0.72257  -0.70714  -0.69824  -0.64991
  Beta  occ. eigenvalues --   -0.63192  -0.60038  -0.58993  -0.54629  -0.52908
  Beta  occ. eigenvalues --   -0.51049  -0.49098  -0.47698  -0.45539  -0.44155
  Beta  occ. eigenvalues --   -0.43709  -0.43043  -0.41900  -0.41632  -0.40030
  Beta  occ. eigenvalues --   -0.39774  -0.38066  -0.37791  -0.37481  -0.35841
  Beta  occ. eigenvalues --   -0.35254  -0.34507  -0.34268  -0.33982  -0.32894
  Beta  occ. eigenvalues --   -0.31613  -0.30566  -0.30304  -0.28647  -0.23749
  Beta  occ. eigenvalues --   -0.22888  -0.22300  -0.21328  -0.20519  -0.19507
  Beta  occ. eigenvalues --   -0.16257  -0.10317
  Beta virt. eigenvalues --   -0.01814  -0.00042   0.00344   0.00583   0.01044
  Beta virt. eigenvalues --    0.02206   0.02317   0.03074   0.03593   0.04038
  Beta virt. eigenvalues --    0.04207   0.04776   0.05547   0.05933   0.05988

 Mulliken charges and spin densities:
               1          2
     1  C   -0.009874   0.000000
     2  C   -0.604755  -0.000000
     3  C   -0.593074  -0.000000
     4  C    0.115865  -0.000000
     5  C    0.102859   0.000000
     6  C   -0.059775   0.000000
     7  C   -0.402435  -0.000000
     8  C   -0.272532   0.000000
     9  C    0.530103   0.000000
    10  C    0.291304   0.000000
    11  C   -0.061448  -0.000000
    12  C   -0.427785  -0.000000
    13  C   -0.242855   0.000000
    14  C   -0.163339  -0.000000
    15  O   -0.620510   0.000000
    16  O   -0.627472   0.000000
    17  N   -0.502583   0.000000
    18  N   -0.280548   0.000000
    19  C   -0.392079   0.000000
    20  H    0.150217  -0.000000
    21  H    0.155139   0.000000
    22  H    0.155927   0.000000
    23  H    0.145863   0.000000
    24  H    0.145088   0.000000
    25  H    0.146813   0.000000
    26  H    0.304995  -0.000000
    27  H    0.239193   0.000000
    28  H    0.380220   0.000000
    29  H    0.135884  -0.000000
    30  H    0.127087   0.000000
    31  H    0.134504  -0.000000
 Sum of Mulliken charges =  -2.00000   0.00000

 Dipole moment (field-independent basis, Debye):
    X=             -3.6569    Y=             -1.9846    Z=             -0.7366  Tot=              4.2254
 Quadrupole moment (field-independent basis, Debye-Ang):
   XX=           -147.2905   YY=           -167.8356   ZZ=           -127.5486
   XY=             -5.8038   XZ=              0.7551   YZ=             -6.5984

 Normal termination of Gaussian 16 at Sun Jan 14 01:28:48 2024.
