 Q-Chem 5.4, Q-Chem, Inc., Pleasanton, CA (2021)
 Q-Chem 5.4.0 for Intel X86 EM64T Linux

User input:
--------------------------------------------------------------
$molecule
0 1
C                  5.8168810000     -5.1095630000      1.2543830000
C                  6.8112150000     -5.0400580000      0.2901320000
C                  6.6920060000     -4.1292620000     -0.7740590000
C                  4.6982000000     -4.2764600000      1.1696340000
C                  4.5790240000     -3.3690260000      0.1101780000
C                  5.5742760000     -3.2937530000     -0.8624050000
C                  3.6326040000     -4.3593120000      2.2125920000
C                  2.4492940000     -3.4569610000      2.0937710000
C                  2.3356070000     -2.5754800000      1.0678920000
C                  3.3869850000     -2.4744480000      0.0124610000
O                  3.7330650000     -5.1487660000      3.1378790000
O                  3.2803830000     -1.6824460000     -0.9093020000
C                  7.7195800000     -4.0589790000     -1.7689780000
N                  8.5522370000     -4.0076750000     -2.5679670000
H                  5.8888890000     -5.8038170000      2.0820410000
H                  7.6811810000     -5.6822890000      0.3488010000
H                  5.4675830000     -2.5870560000     -1.6753280000
C                  1.4019580000     -3.5758620000      3.1648990000
C                  1.1544550000     -1.6567120000      0.9302400000
H                  1.6652610000     -4.3592120000      3.8727190000
H                  0.4238550000     -3.8048080000      2.7308810000
H                  1.2950460000     -2.6329030000      3.7108980000
H                  0.2276300000     -2.2287060000      0.8181460000
H                  1.2711280000     -1.0107360000      0.0624400000
H                  1.0381590000     -1.0338340000      1.8224120000
$end

$rem
BASIS  =  6-311++G(d,p)
GUI  =  2
JOB_TYPE  =  SP
METHOD  =  B3LYP
SCF_CONVERGENCE  = 8
SOLVENT_METHOD = sm12
$end

$smx
solvent dimethylformamide
charges CM5
$end

--------------------------------------------------------------

             Standard Nuclear Orientation (Angstroms)
    I     Atom           X                Y                Z
 ----------------------------------------------------------------
    1      C       5.8168810000    -5.1095630000     1.2543830000
    2      C       6.8112150000    -5.0400580000     0.2901320000
    3      C       6.6920060000    -4.1292620000    -0.7740590000
    4      C       4.6982000000    -4.2764600000     1.1696340000
    5      C       4.5790240000    -3.3690260000     0.1101780000
    6      C       5.5742760000    -3.2937530000    -0.8624050000
    7      C       3.6326040000    -4.3593120000     2.2125920000
    8      C       2.4492940000    -3.4569610000     2.0937710000
    9      C       2.3356070000    -2.5754800000     1.0678920000
   10      C       3.3869850000    -2.4744480000     0.0124610000
   11      O       3.7330650000    -5.1487660000     3.1378790000
   12      O       3.2803830000    -1.6824460000    -0.9093020000
   13      C       7.7195800000    -4.0589790000    -1.7689780000
   14      N       8.5522370000    -4.0076750000    -2.5679670000
   15      H       5.8888890000    -5.8038170000     2.0820410000
   16      H       7.6811810000    -5.6822890000     0.3488010000
   17      H       5.4675830000    -2.5870560000    -1.6753280000
   18      C       1.4019580000    -3.5758620000     3.1648990000
   19      C       1.1544550000    -1.6567120000     0.9302400000
   20      H       1.6652610000    -4.3592120000     3.8727190000
   21      H       0.4238550000    -3.8048080000     2.7308810000
   22      H       1.2950460000    -2.6329030000     3.7108980000
   23      H       0.2276300000    -2.2287060000     0.8181460000
   24      H       1.2711280000    -1.0107360000     0.0624400000
   25      H       1.0381590000    -1.0338340000     1.8224120000
 ----------------------------------------------------------------

   15    -706.1778938655      8.18e-09  Convergence criterion met
 Total energy in the final basis set =     -706.1960589349

                    Orbital Energies (a.u.)
 --------------------------------------------------------------

 Alpha MOs
 -- Occupied --
-19.1372 -19.1366 -14.3396 -10.2858 -10.2857 -10.2455 -10.2405 -10.2218
-10.2202 -10.2197 -10.2191 -10.2161 -10.2153 -10.2092 -10.1707 -10.1707
 -1.0714  -1.0695  -0.9423  -0.9073  -0.8597  -0.8148  -0.7955  -0.7497
 -0.7170  -0.6952  -0.6551  -0.6322  -0.5984  -0.5738  -0.5475  -0.5159
 -0.5024  -0.4693  -0.4692  -0.4656  -0.4624  -0.4352  -0.4336  -0.4280
 -0.4203  -0.4127  -0.4097  -0.3992  -0.3980  -0.3938  -0.3809  -0.3761
 -0.3693  -0.3665  -0.2977  -0.2939  -0.2916  -0.2782  -0.2778

          Ground-State Mulliken Net Atomic Charges

     Atom                 Charge (a.u.)
  ----------------------------------------
      1 C                     0.626702
      2 C                    -0.102030
      3 C                     2.069649
      4 C                     0.167203
      5 C                    -0.353359
      6 C                     0.242344
      7 C                    -1.059428
      8 C                     0.503064
      9 C                     0.956922
     10 C                    -1.250897
     11 O                    -0.287235
     12 O                    -0.298212
     13 C                    -2.764467
     14 N                    -0.643508
     15 H                     0.235240
     16 H                     0.379807
     17 H                     0.242346
     18 C                     0.063802
     19 C                     0.033001
     20 H                     0.177398
     21 H                     0.221035
     22 H                     0.223405
     23 H                     0.224615
     24 H                     0.170524
     25 H                     0.222079
  ----------------------------------------
  Sum of atomic charges =     0.000000

                    Cartesian Multipole Moments
 -----------------------------------------------------------------
    Charge (ESU x 10^10)
                 0.0000
    Dipole Moment (Debye)
         X      -4.4431      Y      -0.2419      Z       4.2180
       Tot       6.1312
    Quadrupole Moments (Debye-Ang)
        XX    -137.6321     XY       9.7589     YY     -91.8640
        XZ      28.5570     YZ      -8.6041     ZZ    -106.7291

 Total job time:  421.63s(wall), 3289.34s(cpu)
        *  Thank you very much for using Q-Chem.  Have a nice day.  *
