 Gaussian 16, Revision A.03,
 Gaussian 16:  ES64L-G16RevA.03 25-Dec-2016

 --------------------------------------
 #P UB3LYP/6-311++G(d,p) nosym opt freq
 --------------------------------------

 --------
 Oxidized
 --------
 Symbolic Z-matrix:
 Charge =  0 Multiplicity = 1

 SCF Done:  E(UB3LYP) =  -706.180603633     A.U. after   16 cycles
 SCF Done:  E(UB3LYP) =  -706.180656325     A.U. after   11 cycles
 SCF Done:  E(UB3LYP) =  -706.180613265     A.U. after   12 cycles
 SCF Done:  E(UB3LYP) =  -706.180659202     A.U. after   11 cycles
 SCF Done:  E(UB3LYP) =  -706.180661366     A.U. after    9 cycles
 SCF Done:  E(UB3LYP) =  -706.180661887     A.U. after    9 cycles
 SCF Done:  E(UB3LYP) =  -706.180662600     A.U. after   10 cycles
 SCF Done:  E(UB3LYP) =  -706.180664636     A.U. after   10 cycles
 SCF Done:  E(UB3LYP) =  -706.180669626     A.U. after   12 cycles
 SCF Done:  E(UB3LYP) =  -706.180681952     A.U. after   12 cycles
 SCF Done:  E(UB3LYP) =  -706.180750081     A.U. after   10 cycles
 SCF Done:  E(UB3LYP) =  -706.180750134     A.U. after    9 cycles
 SCF Done:  E(UB3LYP) =  -706.180750194     A.U. after    7 cycles
 SCF Done:  E(UB3LYP) =  -706.180750161     A.U. after    8 cycles
 SCF Done:  E(UB3LYP) =  -706.180750192     A.U. after    8 cycles
 SCF Done:  E(UB3LYP) =  -706.180750416     A.U. after    9 cycles
 SCF Done:  E(UB3LYP) =  -706.180750339     A.U. after    8 cycles
 SCF Done:  E(UB3LYP) =  -706.180750621     A.U. after    9 cycles
 SCF Done:  E(UB3LYP) =  -706.180750701     A.U. after    9 cycles
 Optimization completed.
    -- Stationary point found.
 Normal termination of Gaussian 16 at Tue Jan 23 04:21:53 2024.

 ----------------------------------------------------------------------
 #P Geom=AllCheck Guess=TCheck SCRF=Check GenChk UB3LYP/6-311++G(d,p) F
 req
 ----------------------------------------------------------------------

 Structure from the checkpoint file:  "228.chk"
 --------
 Oxidized
 --------
 Charge =  0 Multiplicity = 1

                          Input orientation:
 ---------------------------------------------------------------------
 Center     Atomic      Atomic             Coordinates (Angstroms)
 Number     Number       Type             X           Y           Z
 ---------------------------------------------------------------------
      1          6           0        5.816881   -5.109563    1.254383
      2          6           0        6.811215   -5.040058    0.290132
      3          6           0        6.692006   -4.129262   -0.774059
      4          6           0        4.698200   -4.276460    1.169634
      5          6           0        4.579024   -3.369026    0.110178
      6          6           0        5.574276   -3.293753   -0.862405
      7          6           0        3.632604   -4.359312    2.212592
      8          6           0        2.449294   -3.456961    2.093771
      9          6           0        2.335607   -2.575480    1.067892
     10          6           0        3.386985   -2.474448    0.012461
     11          8           0        3.733065   -5.148766    3.137879
     12          8           0        3.280383   -1.682446   -0.909302
     13          6           0        7.719580   -4.058979   -1.768978
     14          7           0        8.552237   -4.007675   -2.567967
     15          1           0        5.888889   -5.803817    2.082041
     16          1           0        7.681181   -5.682289    0.348801
     17          1           0        5.467583   -2.587056   -1.675328
     18          6           0        1.401958   -3.575862    3.164899
     19          6           0        1.154455   -1.656712    0.930240
     20          1           0        1.665261   -4.359212    3.872719
     21          1           0        0.423855   -3.804808    2.730881
     22          1           0        1.295046   -2.632903    3.710898
     23          1           0        0.227630   -2.228706    0.818146
     24          1           0        1.271128   -1.010736    0.062440
     25          1           0        1.038159   -1.033834    1.822412
 ---------------------------------------------------------------------

 SCF Done:  E(UB3LYP) =  -706.180750701     A.U. after    2 cycles

 Alpha  occ. eigenvalues --  -19.14613 -19.14570 -14.33295 -10.29496 -10.29488
 Alpha  occ. eigenvalues --  -10.25282 -10.23069 -10.22947 -10.22930 -10.22928
 Alpha  occ. eigenvalues --  -10.22858 -10.22853 -10.22746 -10.22081 -10.18985
 Alpha  occ. eigenvalues --  -10.18964  -1.08015  -1.07817  -0.93558  -0.91345
 Alpha  occ. eigenvalues --   -0.87152  -0.82321  -0.80549  -0.76566  -0.72876
 Alpha  occ. eigenvalues --   -0.70590  -0.66609  -0.64392  -0.60895  -0.58324
 Alpha  occ. eigenvalues --   -0.55832  -0.52612  -0.51243  -0.48187  -0.47882
 Alpha  occ. eigenvalues --   -0.47665  -0.47186  -0.44667  -0.44664  -0.43965
 Alpha  occ. eigenvalues --   -0.43543  -0.42463  -0.41745  -0.41514  -0.40983
 Alpha  occ. eigenvalues --   -0.39538  -0.39198  -0.38187  -0.36838  -0.35762
 Alpha  occ. eigenvalues --   -0.30655  -0.30170  -0.29957  -0.28985  -0.28640
 Alpha virt. eigenvalues --   -0.13961  -0.08569  -0.06262  -0.02132  -0.00885
 Alpha virt. eigenvalues --    0.00684   0.00795   0.01074   0.01535   0.01643
 Alpha virt. eigenvalues --    0.01944   0.02066   0.03073   0.03866   0.04472

  Beta  occ. eigenvalues --  -19.14613 -19.14570 -14.33295 -10.29496 -10.29488
  Beta  occ. eigenvalues --  -10.25282 -10.23069 -10.22947 -10.22930 -10.22928
  Beta  occ. eigenvalues --  -10.22858 -10.22853 -10.22746 -10.22081 -10.18985
  Beta  occ. eigenvalues --  -10.18964  -1.08015  -1.07817  -0.93558  -0.91345
  Beta  occ. eigenvalues --   -0.87152  -0.82321  -0.80549  -0.76566  -0.72876
  Beta  occ. eigenvalues --   -0.70590  -0.66609  -0.64392  -0.60895  -0.58324
  Beta  occ. eigenvalues --   -0.55832  -0.52612  -0.51243  -0.48187  -0.47882
  Beta  occ. eigenvalues --   -0.47665  -0.47186  -0.44667  -0.44664  -0.43965
  Beta  occ. eigenvalues --   -0.43543  -0.42463  -0.41745  -0.41514  -0.40983
  Beta  occ. eigenvalues --   -0.39538  -0.39198  -0.38187  -0.36838  -0.35762
  Beta  occ. eigenvalues --   -0.30655  -0.30170  -0.29957  -0.28985  -0.28640
  Beta virt. eigenvalues --   -0.13961  -0.08569  -0.06262  -0.02132  -0.00885
  Beta virt. eigenvalues --    0.00684   0.00795   0.01074   0.01535   0.01643
  Beta virt. eigenvalues --    0.01944   0.02066   0.03073   0.03866   0.04472

 Mulliken charges and spin densities:
               1          2
     1  C    0.068970  -0.000000
     2  C   -0.596525   0.000000
     3  C    1.487372  -0.000000
     4  C    0.219867  -0.000000
     5  C   -0.035292   0.000000
     6  C    0.190388   0.000000
     7  C   -0.671602  -0.000000
     8  C    0.352483   0.000000
     9  C    0.837029  -0.000000
    10  C   -0.794058   0.000000
    11  O   -0.215158  -0.000000
    12  O   -0.206162  -0.000000
    13  C   -1.445083   0.000000
    14  N   -0.152216  -0.000000
    15  H    0.188993   0.000000
    16  H    0.205878   0.000000
    17  H    0.214590  -0.000000
    18  C   -0.393867  -0.000000
    19  C   -0.334193   0.000000
    20  H    0.215336   0.000000
    21  H    0.159286  -0.000000
    22  H    0.165082  -0.000000
    23  H    0.165965  -0.000000
    24  H    0.212754  -0.000000
    25  H    0.160163  -0.000000
 Sum of Mulliken charges =  -0.00000   0.00000

 Dipole moment (field-independent basis, Debye):
    X=             -3.4692    Y=             -0.1011    Z=              3.1808  Tot=              4.7078
 Quadrupole moment (field-independent basis, Debye-Ang):
   XX=           -127.3326   YY=            -93.3866   ZZ=           -105.1065
   XY=              7.8154   XZ=             21.6772   YZ=             -5.1279

  Exact polarizability: 195.397 -35.101 133.266 -53.658 -33.404 173.399
 Approx polarizability: 274.504 -47.120 238.546 -63.851 -93.872 310.083

                      1                      2                      3
                      A                      A                      A
 Frequencies --     25.9462                43.6372                78.1179
 Red. masses --      1.0408                 5.6345                 7.1088
 Frc consts  --      0.0004                 0.0063                 0.0256
 IR Inten    --      0.0035                 2.1179                 9.0047

                      4                      5                      6
                      A                      A                      A
 Frequencies --     89.4511               103.3654               119.6644
 Red. masses --      1.0630                 3.5899                 9.7446
 Frc consts  --      0.0050                 0.0226                 0.0822
 IR Inten    --      0.0743                 0.3466                 3.7436

                      7                      8                      9
                      A                      A                      A
 Frequencies --    135.2122               199.2838               256.8716
 Red. masses --      5.5445                 5.9104                 5.3447
 Frc consts  --      0.0597                 0.1383                 0.2078
 IR Inten    --      2.3039                 0.2052                 2.9026

                     10                     11                     12
                      A                      A                      A
 Frequencies --    287.7557               307.6985               335.5717
 Red. masses --      4.2214                 3.0156                 5.8207
 Frc consts  --      0.2059                 0.1682                 0.3862
 IR Inten    --      0.1548                 0.1382                 1.0685

                     13                     14                     15
                      A                      A                      A
 Frequencies --    348.2502               411.3604               413.8515
 Red. masses --      4.6829                 5.8101                 6.7723
 Frc consts  --      0.3346                 0.5793                 0.6834
 IR Inten    --      0.7991                 0.0555                 2.0339

                     16                     17                     18
                      A                      A                      A
 Frequencies --    425.9335               426.9568               490.1195
 Red. masses --      7.7445                 3.6348                 4.4822
 Frc consts  --      0.8278                 0.3904                 0.6344
 IR Inten    --     29.3203                 1.2200                 0.6708

                     19                     20                     21
                      A                      A                      A
 Frequencies --    492.0160               553.9069               573.1207
 Red. masses --      9.4940                 7.1586                 7.3562
 Frc consts  --      1.3541                 1.2941                 1.4236
 IR Inten    --      1.3686                 0.6696                 1.0342

                     22                     23                     24
                      A                      A                      A
 Frequencies --    601.2133               666.6291               690.6432
 Red. masses --      5.1936                 5.0334                 7.0106
 Frc consts  --      1.1061                 1.3179                 1.9702
 IR Inten    --      9.4749                 2.2960                 2.4940

                     25                     26                     27
                      A                      A                      A
 Frequencies --    698.9556               737.7831               739.2109
 Red. masses --      3.7067                 4.4003                 6.0890
 Frc consts  --      1.0669                 1.4112                 1.9603
 IR Inten    --     13.4366                 1.0668                15.1176

                     28                     29                     30
                      A                      A                      A
 Frequencies --    787.3235               867.3768               874.9376
 Red. masses --      5.7507                 4.0627                 1.4544
 Frc consts  --      2.1003                 1.8008                 0.6560
 IR Inten    --      0.1049                14.7527                20.0596

                     31                     32                     33
                      A                      A                      A
 Frequencies --    923.1357               954.1650               994.7236
 Red. masses --      3.2693                 1.4119                 3.4029
 Frc consts  --      1.6415                 0.7574                 1.9838
 IR Inten    --     20.1159                 8.9489                11.0078

                     34                     35                     36
                      A                      A                      A
 Frequencies --   1008.1452              1022.4350              1035.6450
 Red. masses --      1.3413                 1.4645                 1.6772
 Frc consts  --      0.8032                 0.9020                 1.0599
 IR Inten    --      0.2723                 0.5653                75.1806

                     37                     38                     39
                      A                      A                      A
 Frequencies --   1056.4649              1110.7199              1133.9385
 Red. masses --      1.5477                 2.7733                 2.0775
 Frc consts  --      1.0177                 2.0158                 1.5739
 IR Inten    --      0.0006                 1.7539                 2.1920

                     40                     41                     42
                      A                      A                      A
 Frequencies --   1153.6505              1186.7285              1225.7105
 Red. masses --      1.8369                 3.2442                 2.5186
 Frc consts  --      1.4404                 2.6919                 2.2294
 IR Inten    --     16.8970                 8.5133                17.8623

                     43                     44                     45
                      A                      A                      A
 Frequencies --   1281.2521              1308.1100              1319.8411
 Red. masses --      1.6733                 7.0515                 3.8685
 Frc consts  --      1.6184                 7.1092                 3.9704
 IR Inten    --     17.0207               339.9246                42.3962

                     46                     47                     48
                      A                      A                      A
 Frequencies --   1346.1064              1402.3016              1408.7796
 Red. masses --      7.4109                 1.3008                 1.2044
 Frc consts  --      7.9119                 1.5071                 1.4084
 IR Inten    --      1.9262                13.5975                21.9251

                     49                     50                     51
                      A                      A                      A
 Frequencies --   1437.3047              1478.9112              1481.6184
 Red. masses --      3.8044                 1.0687                 1.1339
 Frc consts  --      4.6305                 1.3772                 1.4666
 IR Inten    --      4.2337                 0.2773                43.2584

                     52                     53                     54
                      A                      A                      A
 Frequencies --   1487.1542              1501.5009              1514.2910
 Red. masses --      1.0448                 1.0447                 2.8112
 Frc consts  --      1.3614                 1.3877                 3.7981
 IR Inten    --      0.0096                24.3094                 0.4771

                     55                     56                     57
                      A                      A                      A
 Frequencies --   1598.8904              1636.2271              1653.7384
 Red. masses --      8.0668                 6.3135                 8.8945
 Frc consts  --     12.1504                 9.9589                14.3319
 IR Inten    --      5.4452                54.0483                50.6395

                     58                     59                     60
                      A                      A                      A
 Frequencies --   1712.6526              1719.1163              2336.8622
 Red. masses --     12.5453                12.3026                12.6794
 Frc consts  --     21.6805                21.4218                40.7958
 IR Inten    --     37.2468               355.5436                23.5575

                     61                     62                     63
                      A                      A                      A
 Frequencies --   3025.2659              3028.3591              3067.9766
 Red. masses --      1.0401                 1.0412                 1.0988
 Frc consts  --      5.6084                 5.6257                 6.0934
 IR Inten    --     26.5963                 0.1743                19.8790

                     64                     65                     66
                      A                      A                      A
 Frequencies --   3075.1614              3143.5235              3144.1000
 Red. masses --      1.0991                 1.0968                 1.0972
 Frc consts  --      6.1236                 6.3858                 6.3904
 IR Inten    --      0.2354                 3.5051                 3.9910

                     67                     68                     69
                      A                      A                      A
 Frequencies --   3193.3796              3207.6384              3208.9694
 Red. masses --      1.0895                 1.0942                 1.0928
 Frc consts  --      6.5459                 6.6332                 6.6298
 IR Inten    --      0.4550                 1.0541                 3.5191

 - Thermochemistry -
 -------------------
 Temperature   298.150 Kelvin.  Pressure   1.00000 Atm.
 Atom     1 has atomic number  6 and mass  12.00000

 Molecular mass:   211.06333 amu.
 Principal axes and moments of inertia in atomic units:
                           1         2         3
     Eigenvalues --  1699.316394999.015926676.06926
           X            0.83609  -0.27298   0.47584
           Y           -0.16579   0.70111   0.69352
           Z           -0.52293  -0.65874   0.54093
 This molecule is an asymmetric top.
 Rotational symmetry number  1.
 Warning -- assumption of classical behavior for rotation
           may cause significant error
 Rotational temperatures (Kelvin)      0.05097     0.01733     0.01297
 Rotational constants (GHZ):           1.06204     0.36102     0.27033
 Zero-point vibrational energy     486321.8 (Joules/Mol)
                                  116.23370 (Kcal/Mol)
 Warning -- explicit consideration of  22 degrees of freedom as
           vibrations may cause significant error
 Vibrational temperatures:     37.33    62.78   112.39   128.70   148.72
          (Kelvin)            172.17   194.54   286.72   369.58   414.02
                              442.71   482.81   501.05   591.86   595.44
                              612.82   614.30   705.17   707.90   796.95
                              824.59   865.01   959.13   993.68  1005.64
                             1061.51  1063.56  1132.78  1247.96  1258.84
                             1328.19  1372.83  1431.19  1450.50  1471.06
                             1490.06  1520.02  1598.08  1631.48  1659.85
                             1707.44  1763.52  1843.44  1882.08  1898.96
                             1936.75  2017.60  2026.92  2067.96  2127.82
                             2131.72  2139.68  2160.32  2178.73  2300.45
                             2354.17  2379.36  2464.13  2473.42  3362.22
                             4352.68  4357.13  4414.13  4424.47  4522.83
                             4523.66  4594.56  4615.08  4616.99

 Zero-point correction=                           0.185230 (Hartree/Particle)
 Thermal correction to Energy=                    0.199415
 Thermal correction to Enthalpy=                  0.200359
 Thermal correction to Gibbs Free Energy=         0.142760
 Sum of electronic and zero-point Energies=           -705.995521
 Sum of electronic and thermal Energies=              -705.981335
 Sum of electronic and thermal Enthalpies=            -705.980391
 Sum of electronic and thermal Free Energies=         -706.037991

                     E (Thermal)             CV                S
                      KCal/Mol        Cal/Mol-Kelvin    Cal/Mol-Kelvin
 Total                  125.135             52.411            121.229
 Electronic               0.000              0.000              0.000
 Translational            0.889              2.981             41.945
 Rotational               0.889              2.981             32.406
 Vibrational            123.358             46.449             46.879
 Vibration     1          0.593              1.985              6.117
 Vibration     2          0.595              1.980              5.087
 Vibration     3          0.599              1.964              3.938
 Vibration     4          0.602              1.957              3.672
 Vibration     5          0.605              1.947              3.390
 Vibration     6          0.609              1.933              3.106
 Vibration     7          0.613              1.918              2.871
 Vibration     8          0.637              1.841              2.140
 Vibration     9          0.666              1.751              1.683
 Vibration    10          0.685              1.696              1.487
 Vibration    11          0.698              1.659              1.375
 Vibration    12          0.717              1.604              1.233
 Vibration    13          0.726              1.579              1.174
 Vibration    14          0.775              1.446              0.922
 Vibration    15          0.777              1.440              0.913
 Vibration    16          0.788              1.414              0.872
 Vibration    17          0.789              1.412              0.869
 Vibration    18          0.846              1.272              0.683
 Vibration    19          0.848              1.268              0.678
 Vibration    20          0.909              1.131              0.536
 Vibration    21          0.929              1.089              0.498
 Vibration    22          0.959              1.029              0.448

                           ! Non-Optimized Parameters !
 Normal termination of Gaussian 16 at Tue Jan 23 05:16:28 2024.
