 Gaussian 16, Revision A.03,
 Gaussian 16:  ES64L-G16RevA.03 25-Dec-2016

 ----------------------------------------------------------------
 #P UB3LYP/6-311++G(d,p) SCRF=(PCM,Solvent=n,n-DiMethylFormamide)
 ----------------------------------------------------------------

 ------------------
 Quinone PCM in DMF
 ------------------
 Symbolic Z-matrix:
 Charge =  0 Multiplicity = 1

                         Standard orientation:
 ---------------------------------------------------------------------
 Center     Atomic      Atomic             Coordinates (Angstroms)
 Number     Number       Type             X           Y           Z
 ---------------------------------------------------------------------
      1          8           0        0.438912    2.706027   -0.000101
      2          6           0        0.435916    1.490177   -0.000190
      3          6           0       -0.838187    0.698344   -0.000149
      4          6           0       -2.056396    1.374618   -0.000045
      5          6           0       -3.252723    0.658417    0.000133
      6          6           0       -3.237509   -0.736066    0.000185
      7          6           0       -2.023937   -1.420706    0.000022
      8          6           0       -0.825221   -0.708108   -0.000136
      9          6           0        0.468239   -1.430961   -0.000219
     10          8           0        0.571953   -2.654887   -0.000078
     11          6           0        1.699435   -0.633224    0.000043
     12          8           0        2.867857   -1.316676    0.000117
     13          6           0        1.705933    0.722484    0.000083
     14          8           0        2.836752    1.449261    0.000195
     15          1           0       -2.049079    2.457655   -0.000092
     16          1           0       -4.197484    1.189818    0.000247
     17          1           0       -4.169486   -1.289348    0.000357
     18          1           0       -1.988121   -2.503248    0.000016
     19          1           0        2.632351   -2.262409   -0.000133
     20          1           0        3.594733    0.847889    0.000176
 ---------------------------------------------------------------------

 SCF Done:  E(UB3LYP) =  -685.777511781     A.U. after   15 cycles

 The electronic state is 1-A.
 Alpha  occ. eigenvalues --  -19.18751 -19.18544 -19.14745 -19.14142 -10.29491
 Alpha  occ. eigenvalues --  -10.29343 -10.27055 -10.26636 -10.21543 -10.21484
 Alpha  occ. eigenvalues --  -10.20397 -10.20257 -10.20196 -10.20134  -1.11874
 Alpha  occ. eigenvalues --   -1.09788  -1.07251  -1.06562  -0.89693  -0.83768
 Alpha  occ. eigenvalues --   -0.78488  -0.77534  -0.71232  -0.66664  -0.65553
 Alpha  occ. eigenvalues --   -0.61461  -0.59386  -0.56683  -0.55369  -0.51130
 Alpha  occ. eigenvalues --   -0.50248  -0.48535  -0.47249  -0.46940  -0.45958
 Alpha  occ. eigenvalues --   -0.45687  -0.43807  -0.42498  -0.42347  -0.41064
 Alpha  occ. eigenvalues --   -0.38836  -0.38763  -0.38052  -0.37550  -0.30571
 Alpha  occ. eigenvalues --   -0.29302  -0.29180  -0.28403  -0.25075
 Alpha virt. eigenvalues --   -0.12929  -0.05845  -0.02623  -0.01601  -0.00051
 Alpha virt. eigenvalues --    0.01138   0.02060   0.02232   0.02557   0.04237
 Alpha virt. eigenvalues --    0.04531   0.05026   0.06176   0.06543   0.07179

  Beta  occ. eigenvalues --  -19.18751 -19.18544 -19.14745 -19.14142 -10.29491
  Beta  occ. eigenvalues --  -10.29343 -10.27055 -10.26636 -10.21543 -10.21484
  Beta  occ. eigenvalues --  -10.20397 -10.20257 -10.20196 -10.20134  -1.11874
  Beta  occ. eigenvalues --   -1.09788  -1.07251  -1.06562  -0.89693  -0.83768
  Beta  occ. eigenvalues --   -0.78488  -0.77534  -0.71232  -0.66664  -0.65553
  Beta  occ. eigenvalues --   -0.61461  -0.59386  -0.56683  -0.55369  -0.51130
  Beta  occ. eigenvalues --   -0.50248  -0.48535  -0.47249  -0.46940  -0.45958
  Beta  occ. eigenvalues --   -0.45687  -0.43807  -0.42498  -0.42347  -0.41064
  Beta  occ. eigenvalues --   -0.38836  -0.38763  -0.38052  -0.37550  -0.30571
  Beta  occ. eigenvalues --   -0.29302  -0.29180  -0.28403  -0.25075
  Beta virt. eigenvalues --   -0.12929  -0.05845  -0.02623  -0.01601  -0.00051
  Beta virt. eigenvalues --    0.01138   0.02060   0.02232   0.02557   0.04237
  Beta virt. eigenvalues --    0.04531   0.05026   0.06176   0.06543   0.07179

 Mulliken charges and spin densities:
               1          2
     1  O   -0.286029  -0.000000
     2  C   -0.539916  -0.000000
     3  C    0.397315  -0.000000
     4  C    0.294756  -0.000000
     5  C   -0.399184   0.000000
     6  C   -0.336300  -0.000000
     7  C    0.242234   0.000000
     8  C    0.372418   0.000000
     9  C   -0.512484   0.000000
    10  O   -0.328451  -0.000000
    11  C    0.045941   0.000000
    12  O   -0.289817  -0.000000
    13  C    0.164104  -0.000000
    14  O   -0.258163   0.000000
    15  H    0.183005   0.000000
    16  H    0.211904   0.000000
    17  H    0.215284  -0.000000
    18  H    0.186031   0.000000
    19  H    0.316697  -0.000000
    20  H    0.320656  -0.000000
 Sum of Mulliken charges =  -0.00000  -0.00000

 Dipole moment (field-independent basis, Debye):
    X=             -2.5136    Y=             -2.7006    Z=             -0.0004  Tot=              3.6894
 Quadrupole moment (field-independent basis, Debye-Ang):
   XX=            -60.3826   YY=            -94.7886   ZZ=            -80.7861
   XY=             -5.3439   XZ=             -0.0028   YZ=              0.0007

 Normal termination of Gaussian 16 at Thu Jan 25 05:44:33 2024.
