 Q-Chem 5.4, Q-Chem, Inc., Pleasanton, CA (2021)
 Q-Chem 5.4.0 for Intel X86 EM64T Linux

User input:
--------------------------------------------------------------
$molecule
-1 2
C                 -2.4328590000      0.4319480000      1.3320660000
C                 -3.6010730000      1.1657460000      1.3752950000
C                 -3.7679970000      2.3696070000      2.2741140000
C                 -4.7584530000      0.8003470000      0.5667980000
O                 -5.8496190000      1.4405520000      0.6175360000
C                 -4.6072730000     -0.3581850000     -0.3026470000
C                 -3.4351250000     -1.0756960000     -0.3590790000
O                 -3.3296620000     -2.1115670000     -1.2632690000
C                 -3.1176130000     -3.4001090000     -0.6933020000
C                 -2.2817620000     -0.7184310000      0.4529200000
O                 -1.1979990000     -1.3708250000      0.3847670000
O                 -5.6904300000     -0.7946380000     -1.0358870000
C                 -6.1513170000      0.1047990000     -2.0400680000
H                 -4.7265100000      2.8429460000      2.0586440000
H                 -2.9687410000      3.1051340000      2.1312590000
H                 -3.7613900000      2.0898380000      3.3356270000
H                 -3.9748650000     -3.6908880000     -0.0711110000
H                 -3.0354960000     -4.0959600000     -1.5318700000
H                 -2.1993030000     -3.4174580000     -0.1023900000
H                 -6.4474660000      1.0596650000     -1.6004350000
H                 -7.0148580000     -0.3747690000     -2.5074670000
H                 -5.3749960000      0.2615930000     -2.8011970000
C                 -1.2202570000      0.7859530000      2.1625340000
C                 -0.1872190000      1.6384510000      1.4001080000
C                  1.0628600000      1.9560360000      2.2279220000
C                  2.1032340000      2.7954090000      1.4772540000
C                  3.3570500000      3.1104180000      2.3015360000
C                  4.3979150000      3.9479330000      1.5495290000
C                  5.6516000000      4.2621390000      2.3740870000
C                  6.6926080000      5.0986450000      1.6216980000
C                  7.9461850000      5.4135270000      2.4459830000
C                  8.9802310000      6.2492040000      1.6851470000
H                 -0.7294850000     -0.1451250000      2.4634750000
H                 -1.5212160000      1.3140890000      3.0736460000
H                 -0.6569170000      2.5748280000      1.0727480000
H                  0.0995760000      1.0945030000      0.4946550000
H                  1.5253920000      1.0143640000      2.5518790000
H                  0.7694890000      2.4833550000      3.1466670000
H                  1.6408930000      3.7362230000      1.1498300000
H                  2.3961890000      2.2673020000      0.5606940000
H                  3.8191160000      2.1695740000      2.6286600000
H                  3.0636620000      3.6382820000      3.2189030000
H                  3.9361520000      4.8886430000      1.2216790000
H                  4.6914970000      3.4199740000      0.6328140000
H                  6.1131560000      3.3213810000      2.7020030000
H                  5.3580360000      4.7905480000      3.2908210000
H                  6.2320690000      6.0397510000      1.2929760000
H                  6.9875740000      4.5705790000      0.7052700000
H                  8.4070910000      4.4736400000      2.7740200000
H                  7.6522160000      5.9421190000      3.3612380000
H                  9.3197290000      5.7310830000      0.7823750000
H                  9.8611280000      6.4563350000      2.3002170000
H                  8.5591040000      7.2105790000      1.3734200000
$end

$rem
BASIS  =  6-311++G(d,p)
GUI  =  2
JOB_TYPE  =  SP
METHOD  =  B3LYP
SCF_CONVERGENCE  = 8
SOLVENT_METHOD = sm12
$end

$smx
solvent dimethylformamide
charges CM5
$end

--------------------------------------------------------------

             Standard Nuclear Orientation (Angstroms)
    I     Atom           X                Y                Z
 ----------------------------------------------------------------
    1      C      -2.4328590000     0.4319480000     1.3320660000
    2      C      -3.6010730000     1.1657460000     1.3752950000
    3      C      -3.7679970000     2.3696070000     2.2741140000
    4      C      -4.7584530000     0.8003470000     0.5667980000
    5      O      -5.8496190000     1.4405520000     0.6175360000
    6      C      -4.6072730000    -0.3581850000    -0.3026470000
    7      C      -3.4351250000    -1.0756960000    -0.3590790000
    8      O      -3.3296620000    -2.1115670000    -1.2632690000
    9      C      -3.1176130000    -3.4001090000    -0.6933020000
   10      C      -2.2817620000    -0.7184310000     0.4529200000
   11      O      -1.1979990000    -1.3708250000     0.3847670000
   12      O      -5.6904300000    -0.7946380000    -1.0358870000
   13      C      -6.1513170000     0.1047990000    -2.0400680000
   14      H      -4.7265100000     2.8429460000     2.0586440000
   15      H      -2.9687410000     3.1051340000     2.1312590000
   16      H      -3.7613900000     2.0898380000     3.3356270000
   17      H      -3.9748650000    -3.6908880000    -0.0711110000
   18      H      -3.0354960000    -4.0959600000    -1.5318700000
   19      H      -2.1993030000    -3.4174580000    -0.1023900000
   20      H      -6.4474660000     1.0596650000    -1.6004350000
   21      H      -7.0148580000    -0.3747690000    -2.5074670000
   22      H      -5.3749960000     0.2615930000    -2.8011970000
   23      C      -1.2202570000     0.7859530000     2.1625340000
   24      C      -0.1872190000     1.6384510000     1.4001080000
   25      C       1.0628600000     1.9560360000     2.2279220000
   26      C       2.1032340000     2.7954090000     1.4772540000
   27      C       3.3570500000     3.1104180000     2.3015360000
   28      C       4.3979150000     3.9479330000     1.5495290000
   29      C       5.6516000000     4.2621390000     2.3740870000
   30      C       6.6926080000     5.0986450000     1.6216980000
   31      C       7.9461850000     5.4135270000     2.4459830000
   32      C       8.9802310000     6.2492040000     1.6851470000
   33      H      -0.7294850000    -0.1451250000     2.4634750000
   34      H      -1.5212160000     1.3140890000     3.0736460000
   35      H      -0.6569170000     2.5748280000     1.0727480000
   36      H       0.0995760000     1.0945030000     0.4946550000
   37      H       1.5253920000     1.0143640000     2.5518790000
   38      H       0.7694890000     2.4833550000     3.1466670000
   39      H       1.6408930000     3.7362230000     1.1498300000
   40      H       2.3961890000     2.2673020000     0.5606940000
   41      H       3.8191160000     2.1695740000     2.6286600000
   42      H       3.0636620000     3.6382820000     3.2189030000
   43      H       3.9361520000     4.8886430000     1.2216790000
   44      H       4.6914970000     3.4199740000     0.6328140000
   45      H       6.1131560000     3.3213810000     2.7020030000
   46      H       5.3580360000     4.7905480000     3.2908210000
   47      H       6.2320690000     6.0397510000     1.2929760000
   48      H       6.9875740000     4.5705790000     0.7052700000
   49      H       8.4070910000     4.4736400000     2.7740200000
   50      H       7.6522160000     5.9421190000     3.3612380000
   51      H       9.3197290000     5.7310830000     0.7823750000
   52      H       9.8611280000     6.4563350000     2.3002170000
   53      H       8.5591040000     7.2105790000     1.3734200000
 ----------------------------------------------------------------

   16   -1043.3151697637      4.74e-09  Convergence criterion met
 Total energy in the final basis set =    -1043.3969285854

                    Orbital Energies (a.u.)
 --------------------------------------------------------------

 Alpha MOs
 -- Occupied --
-19.1294 -19.1293 -19.0684 -19.0675 -10.2135 -10.2122 -10.2090 -10.2083
-10.2063 -10.2061 -10.1660 -10.1646 -10.1626 -10.1624 -10.1622 -10.1622
-10.1620 -10.1618 -10.1618 -10.1617 -10.1615 -10.1597 -10.1572  -1.0540
 -1.0355  -0.9879  -0.9853  -0.8273  -0.8139  -0.7984  -0.7782  -0.7623
 -0.7392  -0.7118  -0.7013  -0.6938  -0.6663  -0.6420  -0.6370  -0.6059
 -0.5817  -0.5772  -0.5739  -0.5600  -0.5536  -0.5139  -0.4934  -0.4864
 -0.4832  -0.4712  -0.4631  -0.4493  -0.4414  -0.4376  -0.4361  -0.4331
 -0.4279  -0.4253  -0.4174  -0.4140  -0.4043  -0.3991  -0.3945  -0.3892
 -0.3868  -0.3808  -0.3717  -0.3664  -0.3657  -0.3583  -0.3534  -0.3440
 -0.3429  -0.3409  -0.3371  -0.3365  -0.3289  -0.3261  -0.3247  -0.3225
 -0.3223  -0.3027  -0.2832  -0.2799  -0.2600  -0.2310  -0.2287  -0.2207
 -0.1522

 Beta MOs
 -- Occupied --
-19.1292 -19.1291 -19.0614 -19.0606 -10.2120 -10.2107 -10.2081 -10.2074
-10.2062 -10.2060 -10.1649 -10.1646 -10.1626 -10.1622 -10.1622 -10.1620
-10.1620 -10.1618 -10.1617 -10.1614 -10.1612 -10.1598 -10.1572  -1.0531
 -1.0345  -0.9762  -0.9735  -0.8234  -0.8133  -0.7977  -0.7772  -0.7613
 -0.7382  -0.7096  -0.7001  -0.6927  -0.6648  -0.6374  -0.6342  -0.6052
 -0.5815  -0.5770  -0.5739  -0.5571  -0.5507  -0.5125  -0.4920  -0.4861
 -0.4816  -0.4708  -0.4599  -0.4488  -0.4401  -0.4371  -0.4351  -0.4311
 -0.4272  -0.4235  -0.4166  -0.4124  -0.4023  -0.3939  -0.3918  -0.3886
 -0.3858  -0.3718  -0.3702  -0.3637  -0.3614  -0.3543  -0.3441  -0.3422
 -0.3387  -0.3368  -0.3340  -0.3318  -0.3283  -0.3251  -0.3245  -0.3224
 -0.3217  -0.3022  -0.2801  -0.2765  -0.2318  -0.2254  -0.2223  -0.2145

          Ground-State Mulliken Net Atomic Charges

     Atom                 Charge (a.u.)    Spin (a.u.)
  --------------------------------------------------------
      1 C                     0.673592       0.093655
      2 C                    -0.068425       0.091236
      3 C                     0.260000       0.000403
      4 C                    -1.609046       0.060047
      5 O                    -0.357420       0.256533
      6 C                    -0.712258       0.079616
      7 C                    -0.386499       0.083915
      8 O                    -0.101659      -0.000319
      9 C                    -0.032079       0.001014
     10 C                    -1.250797       0.066017
     11 O                    -0.303193       0.255773
     12 O                    -0.093595       0.000039
     13 C                    -0.032795       0.001846
     14 H                     0.171625      -0.002009
     15 H                     0.218517       0.003718
     16 H                     0.199941       0.005137
     17 H                     0.121128       0.000878
     18 H                     0.227357       0.000200
     19 H                     0.129477      -0.000524
     20 H                     0.131583      -0.000675
     21 H                     0.233646       0.000434
     22 H                     0.120491       0.000643
     23 C                    -0.866549       0.003355
     24 C                    -2.636713      -0.004284
     25 C                    -0.890482       0.010430
     26 C                    -0.037320      -0.006522
     27 C                     1.159537      -0.000126
     28 C                     1.106130      -0.000177
     29 C                     0.905296       0.000126
     30 C                     0.376396       0.000012
     31 C                     0.052419       0.000013
     32 C                    -0.404211      -0.000009
     33 H                     0.130343       0.003373
     34 H                     0.195995      -0.000130
     35 H                     0.051068      -0.000842
     36 H                     0.095072      -0.002873
     37 H                     0.171529       0.000092
     38 H                     0.178033      -0.000238
     39 H                     0.147939       0.000107
     40 H                     0.111017       0.000134
     41 H                     0.103221      -0.000010
     42 H                     0.108501      -0.000006
     43 H                     0.110301      -0.000003
     44 H                     0.110642       0.000004
     45 H                     0.120698       0.000001
     46 H                     0.124781      -0.000004
     47 H                     0.106750       0.000000
     48 H                     0.105321      -0.000000
     49 H                     0.123783      -0.000000
     50 H                     0.125396       0.000000
     51 H                     0.139740      -0.000000
     52 H                     0.195506      -0.000001
     53 H                     0.140269       0.000000
  --------------------------------------------------------
  Sum of atomic charges =    -1.000000

                    Cartesian Multipole Moments
 -----------------------------------------------------------------
    Charge (ESU x 10^10)
                -4.8032
    Dipole Moment (Debye)
         X      17.4308      Y       0.4115      Z      -1.5423
       Tot      17.5037
    Quadrupole Moments (Debye-Ang)
        XX    -242.5148     XY       6.6391     YY    -157.6933
        XZ       7.1865     YZ      -4.6502     ZZ    -153.0018

 Total job time:  2684.54s(wall), 19888.52s(cpu)
        *  Thank you very much for using Q-Chem.  Have a nice day.  *
