 Gaussian 16, Revision A.03,
 Gaussian 16:  ES64L-G16RevA.03 25-Dec-2016

 --------------------------------------
 #P UB3LYP/6-311++G(d,p) nosym opt freq
 --------------------------------------

 -------
 Radical
 -------
 Symbolic Z-matrix:
 Charge = -1 Multiplicity = 2

 SCF Done:  E(UB3LYP) =  -917.946402354     A.U. after   23 cycles
 SCF Done:  E(UB3LYP) =  -917.946402073     A.U. after   11 cycles
 SCF Done:  E(UB3LYP) =  -917.946402498     A.U. after    9 cycles
 Optimization completed.
    -- Stationary point found.
 Normal termination of Gaussian 16 at Sun Jan  7 07:04:56 2024.

 ----------------------------------------------------------------------
 #P Geom=AllCheck Guess=TCheck SCRF=Check GenChk UB3LYP/6-311++G(d,p) F
 req
 ----------------------------------------------------------------------

 Structure from the checkpoint file:  "211-rad.chk"
 -------
 Radical
 -------
 Charge = -1 Multiplicity = 2

                          Input orientation:
 ---------------------------------------------------------------------
 Center     Atomic      Atomic             Coordinates (Angstroms)
 Number     Number       Type             X           Y           Z
 ---------------------------------------------------------------------
      1          6           0        5.262768   -2.326951    0.372304
      2          6           0        6.019446   -1.501448   -0.438122
      3          6           0        5.385089   -0.605467   -1.322191
      4          6           0        3.852684   -2.292516    0.334088
      5          6           0        3.219367   -1.391636   -0.554765
      6          6           0        4.005038   -0.556389   -1.374714
      7          6           0        3.096750   -3.196701    1.221922
      8          6           0        1.637726   -3.131226    1.152875
      9          6           0        1.016004   -2.217873    0.252014
     10          6           0        1.758786   -1.319305   -0.630385
     11          6           0        0.781869   -3.973525    1.979182
     12          6           0       -0.641914   -3.863141    1.866325
     13          6           0       -0.401353   -2.144421    0.175570
     14          6           0       -1.206720   -2.928891    0.945288
     15          8           0        3.733610   -3.969604    1.984767
     16          8           0        1.183404   -0.525409   -1.413537
     17          1           0        5.725266   -3.024358    1.060340
     18          1           0        7.103871   -1.542760   -0.394131
     19          1           0        5.979825    0.042920   -1.958756
     20          1           0       -2.288301   -2.856263    0.870653
     21          1           0        3.484933    0.120416   -2.042671
     22          1           0       -0.811844   -1.430301   -0.528499
     23          6           0       -1.483804   -4.674451    2.662142
     24          6           0       -0.956623   -5.581904    3.556584
     25          6           0        0.433354   -5.706494    3.683273
     26          6           0        1.274593   -4.923010    2.914874
     27          8           0       -1.748449   -6.391972    4.351303
     28          1           0       -2.562077   -4.570130    2.556274
     29          1           0        0.835613   -6.423676    4.390113
     30          1           0        2.345280   -5.017985    3.011496
     31          1           0       -2.671004   -6.198096    4.157783
 ---------------------------------------------------------------------

 SCF Done:  E(UB3LYP) =  -917.946402498     A.U. after    1 cycles

 Alpha  occ. eigenvalues --  -19.06526 -18.95400 -18.95112 -10.13372 -10.10439
 Alpha  occ. eigenvalues --  -10.10387 -10.07856 -10.07117 -10.07036 -10.06508
 Alpha  occ. eigenvalues --  -10.06476 -10.06458 -10.06144 -10.06041 -10.05800
 Alpha  occ. eigenvalues --  -10.05703 -10.05689 -10.05624 -10.05614 -10.05568
 Alpha  occ. eigenvalues --  -10.05414  -0.97149  -0.88143  -0.87818  -0.76268
 Alpha  occ. eigenvalues --   -0.74353  -0.71321  -0.67409  -0.65018  -0.63624
 Alpha  occ. eigenvalues --   -0.63379  -0.61052  -0.55736  -0.52819  -0.52593
 Alpha  occ. eigenvalues --   -0.50064  -0.48589  -0.45565  -0.44256  -0.42419
 Alpha  occ. eigenvalues --   -0.40671  -0.39112  -0.36819  -0.35477  -0.34937
 Alpha  occ. eigenvalues --   -0.34380  -0.32795  -0.31857  -0.31644  -0.30878
 Alpha  occ. eigenvalues --   -0.30147  -0.30001  -0.29201  -0.28905  -0.28391
 Alpha  occ. eigenvalues --   -0.26578  -0.26277  -0.25656  -0.25174  -0.23409
 Alpha  occ. eigenvalues --   -0.23303  -0.23087  -0.21912  -0.19894  -0.16898
 Alpha  occ. eigenvalues --   -0.14488  -0.14125  -0.13028  -0.12131  -0.11096
 Alpha  occ. eigenvalues --   -0.10959  -0.02501
 Alpha virt. eigenvalues --    0.06084   0.06106   0.07623   0.07963   0.08894
 Alpha virt. eigenvalues --    0.09671   0.09878   0.09975   0.11135   0.11434
 Alpha virt. eigenvalues --    0.11863   0.13423   0.13667   0.14581   0.14681

  Beta  occ. eigenvalues --  -19.06517 -18.94824 -18.94537 -10.13347 -10.10294
  Beta  occ. eigenvalues --  -10.10285 -10.07860 -10.07125 -10.07026 -10.06474
  Beta  occ. eigenvalues --  -10.06453 -10.06421 -10.06005 -10.05940 -10.05810
  Beta  occ. eigenvalues --  -10.05664 -10.05659 -10.05656 -10.05611 -10.05500
  Beta  occ. eigenvalues --  -10.05279  -0.97125  -0.87165  -0.86805  -0.76154
  Beta  occ. eigenvalues --   -0.74190  -0.71128  -0.67113  -0.64861  -0.63469
  Beta  occ. eigenvalues --   -0.63253  -0.60865  -0.55139  -0.52612  -0.52460
  Beta  occ. eigenvalues --   -0.49875  -0.48510  -0.45454  -0.44083  -0.42264
  Beta  occ. eigenvalues --   -0.40554  -0.39011  -0.36624  -0.35346  -0.34790
  Beta  occ. eigenvalues --   -0.34287  -0.32755  -0.31695  -0.31567  -0.30835
  Beta  occ. eigenvalues --   -0.29852  -0.29114  -0.29057  -0.28628  -0.28003
  Beta  occ. eigenvalues --   -0.26394  -0.25974  -0.25071  -0.23555  -0.23280
  Beta  occ. eigenvalues --   -0.23020  -0.22399  -0.21732  -0.19313  -0.16087
  Beta  occ. eigenvalues --   -0.13684  -0.12898  -0.12431  -0.11599  -0.10570
  Beta  occ. eigenvalues --   -0.10113
  Beta virt. eigenvalues --    0.03246   0.06107   0.06737   0.07957   0.08421
  Beta virt. eigenvalues --    0.08895   0.09670   0.09969   0.10356   0.11411
  Beta virt. eigenvalues --    0.11434   0.11862   0.13421   0.13669   0.14684

 Mulliken charges and spin densities:
               1          2
     1  C    0.001514   0.019780
     2  C   -0.423775   0.023818
     3  C   -0.414199   0.031658
     4  C    0.285708   0.009003
     5  C    0.242749   0.030844
     6  C   -0.073298   0.010288
     7  C   -0.779768   0.081583
     8  C    0.690070   0.112771
     9  C    0.757896   0.105468
    10  C   -1.060724   0.049168
    11  C    0.957072   0.007518
    12  C    0.671878  -0.014463
    13  C   -0.228832  -0.024601
    14  C   -0.443448   0.087241
    15  O   -0.324527   0.219755
    16  O   -0.346841   0.214654
    17  H    0.152951  -0.001615
    18  H    0.127462  -0.002135
    19  H    0.125981  -0.002675
    20  H    0.105629  -0.005431
    21  H    0.154314  -0.001231
    22  H    0.159435   0.000896
    23  C   -0.331962   0.007013
    24  C   -0.485589   0.014554
    25  C   -0.434487   0.008187
    26  C   -0.466654   0.023809
    27  O   -0.260462   0.002099
    28  H    0.057476  -0.001289
    29  H    0.170083  -0.001398
    30  H    0.161195  -0.005172
    31  H    0.253154  -0.000097
 Sum of Mulliken charges =  -1.00000   1.00000

 Dipole moment (field-independent basis, Debye):
    X=            -10.9271    Y=             13.0212    Z=             -3.5596  Tot=             17.3673
 Quadrupole moment (field-independent basis, Debye-Ang):
   XX=           -154.9750   YY=           -184.1163   ZZ=           -150.8617
   XY=             30.3976   XZ=             -8.8652   YZ=             28.5082

  Exact polarizability: 357.486  68.512 240.488 -66.693-125.443 236.088
 Approx polarizability: 561.814  55.453 405.944 -53.435-218.834 398.665

                      1                      2                      3
                      A                      A                      A
 Frequencies --     35.8610                56.7314                90.6346
 Red. masses --      7.4708                 5.3204                 6.2415
 Frc consts  --      0.0057                 0.0101                 0.0302
 IR Inten    --      3.1902                 2.1365                 1.1324

                      4                      5                      6
                      A                      A                      A
 Frequencies --    129.1155               155.1195               171.0448
 Red. masses --      4.6956                 6.2857                 7.2740
 Frc consts  --      0.0461                 0.0891                 0.1254
 IR Inten    --      0.0022                 1.9225                 5.0144

                      7                      8                      9
                      A                      A                      A
 Frequencies --    186.4152               244.9582               257.8118
 Red. masses --      4.4989                 1.9928                 1.8054
 Frc consts  --      0.0921                 0.0705                 0.0707
 IR Inten    --      1.8817                33.2730                55.0436

                     10                     11                     12
                      A                      A                      A
 Frequencies --    274.2744               287.2787               335.1039
 Red. masses --      6.3314                 7.0317                 8.4856
 Frc consts  --      0.2806                 0.3419                 0.5614
 IR Inten    --      2.4435                 0.5689                 2.6388

                     13                     14                     15
                      A                      A                      A
 Frequencies --    337.0786               395.0287               406.5994
 Red. masses --      6.0394                 8.2594                 7.7512
 Frc consts  --      0.4043                 0.7594                 0.7550
 IR Inten    --      6.7564                 7.4894                 0.9404

                     16                     17                     18
                      A                      A                      A
 Frequencies --    407.8921               441.3543               444.3974
 Red. masses --      3.7889                 3.3247                 4.9202
 Frc consts  --      0.3714                 0.3816                 0.5725
 IR Inten    --      3.5421                 1.6605                 2.0334

                     19                     20                     21
                      A                      A                      A
 Frequencies --    468.2413               485.3827               519.1420
 Red. masses --      4.9169                10.7198                 3.4205
 Frc consts  --      0.6352                 1.4880                 0.5431
 IR Inten    --     25.3101                 4.4665                15.1731

                     22                     23                     24
                      A                      A                      A
 Frequencies --    522.7212               549.5478               552.0888
 Red. masses --      7.7576                 4.4420                 7.1674
 Frc consts  --      1.2489                 0.7904                 1.2871
 IR Inten    --     17.1136                 1.1329                 6.1532

                     25                     26                     27
                      A                      A                      A
 Frequencies --    621.0807               629.6029               658.0716
 Red. masses --      6.6592                 3.8133                 6.8425
 Frc consts  --      1.5135                 0.8906                 1.7459
 IR Inten    --     16.8792                 0.0886                 0.3112

                     28                     29                     30
                      A                      A                      A
 Frequencies --    685.8343               687.2638               711.0726
 Red. masses --      4.6114                 7.0940                 2.2954
 Frc consts  --      1.2780                 1.9742                 0.6838
 IR Inten    --      1.1302                 0.2928                56.6148

                     31                     32                     33
                      A                      A                      A
 Frequencies --    740.3217               748.0690               777.3217
 Red. masses --      6.9457                 4.1618                 1.4819
 Frc consts  --      2.2429                 1.3722                 0.5276
 IR Inten    --     15.2455                 0.9662                 8.6090

                     34                     35                     36
                      A                      A                      A
 Frequencies --    788.0268               799.6648               808.5449
 Red. masses --      1.9536                 6.2024                 2.9764
 Frc consts  --      0.7148                 2.3368                 1.1465
 IR Inten    --     13.4144                15.4982                 3.3182

                     37                     38                     39
                      A                      A                      A
 Frequencies --    828.3276               829.0281               834.6834
 Red. masses --      6.3551                 1.6807                 1.6299
 Frc consts  --      2.5691                 0.6806                 0.6690
 IR Inten    --      0.4096                 0.0136                70.2270

                     40                     41                     42
                      A                      A                      A
 Frequencies --    875.9494               911.5118               967.9273
 Red. masses --      1.4863                 6.6889                 3.9888
 Frc consts  --      0.6719                 3.2744                 2.2018
 IR Inten    --      0.0015                 4.6289                29.8187

                     43                     44                     45
                      A                      A                      A
 Frequencies --    982.2853               987.4375               994.7401
 Red. masses --      1.3260                 1.2924                 1.2980
 Frc consts  --      0.7538                 0.7425                 0.7568
 IR Inten    --      1.3387                 0.7461                 1.6593

                     46                     47                     48
                      A                      A                      A
 Frequencies --    999.7407              1006.1493              1042.8423
 Red. masses --      1.2728                 5.0763                 1.9827
 Frc consts  --      0.7495                 3.0278                 1.2704
 IR Inten    --      2.2530                17.3402                23.7850

                     49                     50                     51
                      A                      A                      A
 Frequencies --   1081.0304              1112.4118              1143.0569
 Red. masses --      3.4031                 1.9413                 1.4440
 Frc consts  --      2.3431                 1.4154                 1.1116
 IR Inten    --      2.4298                 5.9308                41.1644

                     52                     53                     54
                      A                      A                      A
 Frequencies --   1156.8822              1169.0609              1184.9583
 Red. masses --      1.2576                 1.8200                 1.5996
 Frc consts  --      0.9917                 1.4655                 1.3233
 IR Inten    --     15.8169               125.5368                 0.4824

                     55                     56                     57
                      A                      A                      A
 Frequencies --   1189.5099              1199.9698              1220.4507
 Red. masses --      1.6360                 2.0866                 2.3352
 Frc consts  --      1.3639                 1.7703                 2.0494
 IR Inten    --    307.5841                 8.1234                23.9724

                     58                     59                     60
                      A                      A                      A
 Frequencies --   1241.5656              1265.6621              1289.9838
 Red. masses --      2.2637                 2.3705                 2.0861
 Frc consts  --      2.0559                 2.2373                 2.0453
 IR Inten    --     21.8079                96.3606                 0.9435

                     61                     62                     63
                      A                      A                      A
 Frequencies --   1296.3989              1357.2714              1363.9126
 Red. masses --      2.4910                 6.3957                 9.4913
 Frc consts  --      2.4666                 6.9418                10.4027
 IR Inten    --     29.2916                47.2560                 3.5078

                     64                     65                     66
                      A                      A                      A
 Frequencies --   1377.8472              1386.3495              1421.5225
 Red. masses --      4.1102                 4.6017                 2.2721
 Frc consts  --      4.5974                 5.2110                 2.7051
 IR Inten    --    142.7718                43.0280                69.5097

                     67                     68                     69
                      A                      A                      A
 Frequencies --   1461.5464              1478.3886              1487.5119
 Red. masses --      3.3171                 2.6920                 2.7378
 Frc consts  --      4.1748                 3.4666                 3.5692
 IR Inten    --    143.7989                 3.5495                86.0607

                     70                     71                     72
                      A                      A                      A
 Frequencies --   1514.5561              1532.8941              1558.2690
 Red. masses --      4.7217                 5.8696                 6.2590
 Frc consts  --      6.3814                 8.1262                 8.9544
 IR Inten    --    123.5879               230.3768               105.2904

                     73                     74                     75
                      A                      A                      A
 Frequencies --   1574.3601              1614.3549              1624.9344
 Red. masses --      5.2813                 8.4339                 5.9596
 Frc consts  --      7.7125                12.9503                 9.2712
 IR Inten    --    120.7775                39.2271                50.4469

                     76                     77                     78
                      A                      A                      A
 Frequencies --   1632.5197              1641.2132              3118.8404
 Red. masses --      6.5732                 6.2927                 1.0891
 Frc consts  --     10.3215                 9.9866                 6.2416
 IR Inten    --     14.7491                96.4392                42.4296

                     79                     80                     81
                      A                      A                      A
 Frequencies --   3135.4109              3137.2812              3154.5759
 Red. masses --      1.0849                 1.0879                 1.0916
 Frc consts  --      6.2840                 6.3090                 6.4002
 IR Inten    --     16.9051                38.2297                58.5761

                     82                     83                     84
                      A                      A                      A
 Frequencies --   3172.2049              3184.7334              3186.6322
 Red. masses --      1.0900                 1.0919                 1.0919
 Frc consts  --      6.4623                 6.5247                 6.5328
 IR Inten    --     18.5674                19.1642                15.8129

                     85                     86                     87
                      A                      A                      A
 Frequencies --   3190.0563              3226.0988              3834.7819
 Red. masses --      1.0920                 1.0919                 1.0658
 Frc consts  --      6.5473                 6.6958                 9.2346
 IR Inten    --     21.7285                18.3293                49.3538

 - Thermochemistry -
 -------------------
 Temperature   298.150 Kelvin.  Pressure   1.00000 Atm.
 Atom     1 has atomic number  6 and mass  12.00000

 Molecular mass:   274.06299 amu.
 Principal axes and moments of inertia in atomic units:
                           1         2         3
     Eigenvalues --  2320.575239402.56167**********
           X            0.67842   0.73467  -0.00217
           Y            0.52464  -0.48240   0.70146
           Z           -0.51429   0.47702   0.71271
 This molecule is an asymmetric top.
 Rotational symmetry number  1.
 Warning -- assumption of classical behavior for rotation
           may cause significant error
 Rotational temperatures (Kelvin)      0.03732     0.00921     0.00739
 Rotational constants (GHZ):           0.77771     0.19194     0.15395
 Zero-point vibrational energy     595670.5 (Joules/Mol)
                                  142.36866 (Kcal/Mol)
 Warning -- explicit consideration of  24 degrees of freedom as
           vibrations may cause significant error
 Vibrational temperatures:     51.60    81.62   130.40   185.77   223.18
          (Kelvin)            246.10   268.21   352.44   370.93   394.62
                              413.33   482.14   484.98   568.36   585.01
                              586.87   635.01   639.39   673.69   698.36
                              746.93   752.08   790.68   794.33   893.60
                              905.86   946.82   986.76   988.82  1023.07
                             1065.16  1076.30  1118.39  1133.79  1150.54
                             1163.32  1191.78  1192.79  1200.92  1260.30
                             1311.46  1392.63  1413.29  1420.70  1431.21
                             1438.40  1447.62  1500.42  1555.36  1600.51
                             1644.60  1664.50  1682.02  1704.89  1711.44
                             1726.49  1755.96  1786.34  1821.01  1856.00
                             1865.23  1952.81  1962.37  1982.41  1994.65
                             2045.25  2102.84  2127.07  2140.20  2179.11
                             2205.49  2242.00  2265.15  2322.70  2337.92
                             2348.83  2361.34  4487.32  4511.16  4513.85
                             4538.73  4564.10  4582.12  4584.85  4589.78
                             4641.64  5517.40

 Zero-point correction=                           0.226879 (Hartree/Particle)
 Thermal correction to Energy=                    0.242183
 Thermal correction to Enthalpy=                  0.243128
 Thermal correction to Gibbs Free Energy=         0.183788
 Sum of electronic and zero-point Energies=           -917.719524
 Sum of electronic and thermal Energies=              -917.704219
 Sum of electronic and thermal Enthalpies=            -917.703275
 Sum of electronic and thermal Free Energies=         -917.762614

                     E (Thermal)             CV                S
                      KCal/Mol        Cal/Mol-Kelvin    Cal/Mol-Kelvin
 Total                  151.972             63.025            124.891
 Electronic               0.000              0.000              1.377
 Translational            0.889              2.981             42.723
 Rotational               0.889              2.981             33.902
 Vibrational            150.195             57.063             46.888
 Vibration     1          0.594              1.982              5.476
 Vibration     2          0.596              1.975              4.568
 Vibration     3          0.602              1.956              3.646
 Vibration     4          0.612              1.924              2.959
 Vibration     5          0.620              1.897              2.608
 Vibration     6          0.626              1.878              2.424
 Vibration     7          0.632              1.858              2.263
 Vibration     8          0.660              1.771              1.767
 Vibration     9          0.667              1.750              1.677
 Vibration    10          0.677              1.721              1.569
 Vibration    11          0.684              1.697              1.490
 Vibration    12          0.716              1.605              1.235
 Vibration    13          0.718              1.601              1.226
 Vibration    14          0.762              1.481              0.981
 Vibration    15          0.771              1.456              0.939
 Vibration    16          0.772              1.453              0.934
 Vibration    17          0.801              1.380              0.822
 Vibration    18          0.804              1.373              0.813
 Vibration    19          0.825              1.321              0.742
 Vibration    20          0.841              1.282              0.696
 Vibration    21          0.874              1.208              0.612
 Vibration    22          0.878              1.200              0.604
 Vibration    23          0.905              1.141              0.545
 Vibration    24          0.907              1.135              0.540

 Optimization completed.
    -- Stationary point found.
 Normal termination of Gaussian 16 at Sun Jan  7 09:17:11 2024.
