 Q-Chem 5.4, Q-Chem, Inc., Pleasanton, CA (2021)
 Q-Chem 5.4.0 for Intel X86 EM64T Linux

User input:
--------------------------------------------------------------
$molecule
-2 1
C                 -2.1784800000     -3.9145440000      1.1110960000
C                 -0.7649990000     -3.8387700000      1.3860580000
C                 -0.0712750000     -2.6745710000      1.6689390000
C                 -0.6869860000     -1.3781810000      1.7158260000
C                 -2.1087360000     -1.4155680000      1.4580030000
C                 -2.7794830000     -2.6202910000      1.1655950000
O                 -2.7857930000     -5.0222360000      0.8666290000
O                 -0.0320230000     -0.2894970000      1.9254480000
Cl                -4.5650130000     -2.5645240000      0.9129400000
C                 -2.8030690000     -0.1079590000      1.4601070000
O                 -3.2392040000      0.5118670000      0.5094410000
O                 -2.9142810000      0.4050780000      2.7293050000
C                 -3.3774950000      1.7498140000      2.8131470000
H                 -0.2393440000     -4.7936220000      1.3662270000
H                  1.0005100000     -2.7077130000      1.8635500000
H                 -3.3810010000      2.0055210000      3.8759890000
H                 -4.3864980000      1.8534950000      2.4014020000
H                 -2.7082000000      2.4266620000      2.2721980000
$end
$rem
MAX_SCF_CYCLES=200
BASIS  =  6-311++G(d,p)
GUI  =  2
JOB_TYPE  =  SP
METHOD  =  B3LYP
SOLVENT_METHOD = COSMO
$end
$solvent
dielectric 37.219
opticaldielectric 1.43
$end

--------------------------------------------------------------

             Standard Nuclear Orientation (Angstroms)
    I     Atom           X                Y                Z
 ----------------------------------------------------------------
    1      C       2.3366943354    -0.0457277519     0.1169594265
    2      C       2.3957117843     1.3948466894     0.1401231447
    3      C       1.3019207202     2.2372239130     0.0368967865
    4      C      -0.0465396007     1.7679326192    -0.1158968739
    5      C      -0.1474205277     0.3261050083    -0.1300294115
    6      C       0.9906963189    -0.4994360311    -0.0303623706
    7      O       3.3793422432    -0.7910861046     0.2305421162
    8      O      -1.0571445291     2.5516713560    -0.2661700824
    9      Cl      0.7496993358    -2.2872398861    -0.0031646089
   10      C      -1.5079952555    -0.2272581029    -0.3159587418
   11      O      -1.9696692767    -0.7692807260    -1.3014699930
   12      O      -2.2835673717    -0.0533789001     0.8041718537
   13      C      -3.6660986156    -0.3620545324     0.6517306714
   14      H       3.3955382286     1.8137913248     0.2553675078
   15      H       1.4373407521     3.3183058142     0.0617615727
   16      H      -4.1350345446    -0.1454603951     1.6151711485
   17      H      -3.8163636808    -1.4148884266     0.3922466637
   18      H      -4.1198729465     0.2581338742    -0.1281154863
 ----------------------------------------------------------------

   13   -1069.1248231562      4.62e-06  Convergence criterion met
 Total energy in the final basis set =    -1069.1248231562
    6   -1069.4217654318      5.19e-06  Convergence criterion met
 Total energy in the final basis set =    -1069.4217654318

                    Orbital Energies (a.u.)
 --------------------------------------------------------------

 Alpha MOs
 -- Occupied --
******** -19.1575 -19.1116 -19.0316 -19.0312 -10.2987 -10.2090 -10.1972
-10.1928 -10.1904 -10.1554 -10.1411 -10.1370  -9.4450  -7.2087  -7.2004
 -7.1999  -1.0982  -1.0133  -0.9511  -0.9477  -0.8425  -0.7864  -0.7430
 -0.6959  -0.6626  -0.6027  -0.5513  -0.5457  -0.4935  -0.4775  -0.4751
 -0.4462  -0.4387  -0.4192  -0.3967  -0.3853  -0.3804  -0.3772  -0.3575
 -0.3494  -0.3416  -0.3361  -0.3155  -0.3025  -0.2951  -0.2828  -0.2417
 -0.2259  -0.2143  -0.2120  -0.1359

          Ground-State Mulliken Net Atomic Charges

     Atom                 Charge (a.u.)
  ----------------------------------------
      1 C                    -0.603866
      2 C                    -0.128909
      3 C                     0.053643
      4 C                    -0.730924
      5 C                     0.899774
      6 C                     0.295308
      7 O                    -0.708850
      8 O                    -0.688799
      9 Cl                    0.312384
     10 C                    -0.920988
     11 O                    -0.314620
     12 O                    -0.064434
     13 C                    -0.270659
     14 H                     0.174247
     15 H                     0.168758
     16 H                     0.172814
     17 H                     0.170080
     18 H                     0.185040
  ----------------------------------------
  Sum of atomic charges =    -2.000000

                    Cartesian Multipole Moments
 -----------------------------------------------------------------
    Charge (ESU x 10^10)
                -9.6064
    Dipole Moment (Debye)
         X      -9.3692      Y      -3.1829      Z       2.1849
       Tot      10.1334
    Quadrupole Moments (Debye-Ang)
        XX    -131.9580     XY      21.5805     YY    -121.6981
        XZ      -9.5283     YZ       0.3253     ZZ     -95.2968

 Total job time:  39.08s(wall), 230.18s(cpu)
        *  Thank you very much for using Q-Chem.  Have a nice day.  *
