 Gaussian 16, Revision A.03,
 Gaussian 16:  ES64L-G16RevA.03 25-Dec-2016

 ----------------------------------------------------------------
 #P UB3LYP/6-311++G(d,p) SCRF=(PCM,Solvent=n,n-DiMethylFormamide)
 ----------------------------------------------------------------

 -------
 Reduced
 -------
 Symbolic Z-matrix:
 Charge = -2 Multiplicity = 1

                         Standard orientation:
 ---------------------------------------------------------------------
 Center     Atomic      Atomic             Coordinates (Angstroms)
 Number     Number       Type             X           Y           Z
 ---------------------------------------------------------------------
      1          6           0       -0.501153   -1.241514   -0.632316
      2          6           0       -1.296217   -0.026667   -0.563691
      3          6           0       -0.783011    1.128537    0.023968
      4          6           0        0.501083    1.241549    0.632504
      5          6           0        1.296189    0.026735    0.563782
      6          6           0        0.782970   -1.128477   -0.023851
      7          8           0        0.982610    2.293448    1.194119
      8          8           0       -0.982710   -2.293424   -1.193882
      9         35           0        1.821365   -2.790327    0.022113
     10         35           0       -1.821336    2.790427   -0.022082
     11          7           0        2.569576    0.135444    1.190668
     12          7           0       -2.569553   -0.135387   -1.190682
     13          6           0       -3.765061   -0.096611   -0.332389
     14          6           0       -5.020181   -0.109212   -1.216523
     15          6           0       -6.313549   -0.060230   -0.389234
     16          6           0       -6.367003   -1.183153    0.657378
     17          6           0       -5.113047   -1.176775    1.544949
     18          6           0       -3.829949   -1.239101    0.703738
     19          6           0        3.764977    0.096680    0.332227
     20          6           0        5.020228    0.108498    1.216185
     21          6           0        3.830057    1.239602   -0.703408
     22          6           0        5.113019    1.177275   -1.544833
     23          6           0        6.313462    0.059508    0.388682
     24          6           0        6.367100    1.182886   -0.657431
     25          1           0        2.523808    1.057802    1.636209
     26          1           0       -2.523728   -1.057743   -1.636229
     27          1           0       -3.747735    0.854261    0.209409
     28          1           0       -5.011633   -1.022799   -1.828804
     29          1           0       -4.969259    0.735377   -1.911583
     30          1           0       -7.192548   -0.113990   -1.046419
     31          1           0       -6.371588    0.908508    0.126004
     32          1           0       -6.432424   -2.150974    0.140271
     33          1           0       -7.276499   -1.093727    1.267604
     34          1           0       -5.149984   -2.014989    2.253796
     35          1           0       -5.108023   -0.259353    2.150079
     36          1           0       -3.773934   -2.199173    0.174607
     37          1           0       -2.941524   -1.189884    1.339639
     38          1           0        3.747281   -0.853952   -0.209976
     39          1           0        4.969141   -0.736396    1.910859
     40          1           0        5.012040    1.021805    1.828889
     41          1           0        3.774420    2.199458   -0.173845
     42          1           0        2.941519    1.190946   -1.339191
     43          1           0        5.150105    2.015799   -2.253307
     44          1           0        5.107640    0.260128   -2.150375
     45          1           0        6.371133   -0.909014   -0.127002
     46          1           0        7.192576    0.112706    1.045760
     47          1           0        7.276483    1.093471   -1.267825
     48          1           0        6.432876    2.150458   -0.139898
 ---------------------------------------------------------------------

 SCF Done:  E(UB3LYP) =  -6109.13499021     A.U. after   16 cycles

 The electronic state is 1-A.
 Alpha  occ. eigenvalues -- -482.80124-482.80124 -62.45404 -62.45403 -56.27403
 Alpha  occ. eigenvalues --  -56.27403 -56.27079 -56.27079 -56.27052 -56.27052
 Alpha  occ. eigenvalues --  -19.02339 -19.02338 -14.27962 -14.27961 -10.18036
 Alpha  occ. eigenvalues --  -10.18035 -10.17850 -10.17850 -10.17709 -10.17708
 Alpha  occ. eigenvalues --  -10.16386 -10.16384 -10.15638 -10.15638 -10.15554
 Alpha  occ. eigenvalues --  -10.15554 -10.15492 -10.15492 -10.15156 -10.15155
 Alpha  occ. eigenvalues --  -10.14641 -10.14640  -8.66364  -8.66364  -6.49381
 Alpha  occ. eigenvalues --   -6.49381  -6.48307  -6.48307  -6.48225  -6.48225
 Alpha  occ. eigenvalues --   -2.60496  -2.60496  -2.60202  -2.60202  -2.60141
 Alpha  occ. eigenvalues --   -2.60140  -2.59287  -2.59287  -2.59286  -2.59285
 Alpha  occ. eigenvalues --   -0.95185  -0.94657  -0.89032  -0.88870  -0.81558
 Alpha  occ. eigenvalues --   -0.81138  -0.79353  -0.77549  -0.74225  -0.73137
 Alpha  occ. eigenvalues --   -0.73051  -0.72237  -0.70836  -0.65677  -0.63940
 Alpha  occ. eigenvalues --   -0.60312  -0.60007  -0.59573  -0.58513  -0.55313
 Alpha  occ. eigenvalues --   -0.54906  -0.53839  -0.52312  -0.48670  -0.47034
 Alpha  occ. eigenvalues --   -0.46025  -0.45204  -0.45148  -0.43645  -0.43092
 Alpha  occ. eigenvalues --   -0.42897  -0.42883  -0.40932  -0.40481  -0.39383
 Alpha  occ. eigenvalues --   -0.38897  -0.38089  -0.37981  -0.37171  -0.36854
 Alpha  occ. eigenvalues --   -0.36812  -0.36419  -0.36047  -0.35708  -0.33767
 Alpha  occ. eigenvalues --   -0.33558  -0.33410  -0.33344  -0.33269  -0.32354
 Alpha  occ. eigenvalues --   -0.31341  -0.31199  -0.30535  -0.30525  -0.30308
 Alpha  occ. eigenvalues --   -0.29605  -0.29050  -0.27989  -0.26437  -0.26343
 Alpha  occ. eigenvalues --   -0.24667  -0.24554  -0.21194  -0.20834  -0.20471
 Alpha  occ. eigenvalues --   -0.17996  -0.11616
 Alpha virt. eigenvalues --   -0.00720  -0.00138   0.00287   0.00479   0.01268
 Alpha virt. eigenvalues --    0.01458   0.01586   0.01754   0.02218   0.02633
 Alpha virt. eigenvalues --    0.03078   0.03418   0.03576   0.03928   0.04317

  Beta  occ. eigenvalues -- -482.80124-482.80124 -62.45404 -62.45403 -56.27403
  Beta  occ. eigenvalues --  -56.27403 -56.27079 -56.27079 -56.27052 -56.27052
  Beta  occ. eigenvalues --  -19.02339 -19.02338 -14.27962 -14.27961 -10.18036
  Beta  occ. eigenvalues --  -10.18035 -10.17850 -10.17850 -10.17709 -10.17708
  Beta  occ. eigenvalues --  -10.16386 -10.16384 -10.15638 -10.15638 -10.15554
  Beta  occ. eigenvalues --  -10.15554 -10.15492 -10.15492 -10.15156 -10.15155
  Beta  occ. eigenvalues --  -10.14641 -10.14640  -8.66364  -8.66364  -6.49381
  Beta  occ. eigenvalues --   -6.49381  -6.48307  -6.48307  -6.48225  -6.48225
  Beta  occ. eigenvalues --   -2.60496  -2.60496  -2.60202  -2.60202  -2.60141
  Beta  occ. eigenvalues --   -2.60140  -2.59287  -2.59287  -2.59286  -2.59285
  Beta  occ. eigenvalues --   -0.95185  -0.94657  -0.89032  -0.88870  -0.81558
  Beta  occ. eigenvalues --   -0.81138  -0.79353  -0.77549  -0.74225  -0.73137
  Beta  occ. eigenvalues --   -0.73051  -0.72237  -0.70836  -0.65677  -0.63940
  Beta  occ. eigenvalues --   -0.60312  -0.60007  -0.59573  -0.58513  -0.55313
  Beta  occ. eigenvalues --   -0.54906  -0.53839  -0.52312  -0.48670  -0.47034
  Beta  occ. eigenvalues --   -0.46025  -0.45204  -0.45148  -0.43645  -0.43092
  Beta  occ. eigenvalues --   -0.42897  -0.42883  -0.40932  -0.40481  -0.39383
  Beta  occ. eigenvalues --   -0.38897  -0.38089  -0.37981  -0.37171  -0.36854
  Beta  occ. eigenvalues --   -0.36812  -0.36419  -0.36047  -0.35708  -0.33767
  Beta  occ. eigenvalues --   -0.33558  -0.33410  -0.33344  -0.33269  -0.32354
  Beta  occ. eigenvalues --   -0.31341  -0.31199  -0.30535  -0.30525  -0.30308
  Beta  occ. eigenvalues --   -0.29605  -0.29050  -0.27989  -0.26437  -0.26343
  Beta  occ. eigenvalues --   -0.24667  -0.24554  -0.21194  -0.20834  -0.20471
  Beta  occ. eigenvalues --   -0.17996  -0.11616
  Beta virt. eigenvalues --   -0.00720  -0.00138   0.00287   0.00479   0.01268
  Beta virt. eigenvalues --    0.01458   0.01586   0.01754   0.02218   0.02633
  Beta virt. eigenvalues --    0.03078   0.03418   0.03576   0.03928   0.04317

 Mulliken charges and spin densities:
               1          2
     1  C   -0.570384  -0.000000
     2  C   -0.291711  -0.000000
     3  C    0.685421  -0.000000
     4  C   -0.570476   0.000000
     5  C   -0.291907   0.000000
     6  C    0.685254  -0.000000
     7  O   -0.604629  -0.000000
     8  O   -0.604630   0.000000
     9  Br  -0.162403   0.000000
    10  Br  -0.162411   0.000000
    11  N    0.247863  -0.000000
    12  N    0.247837  -0.000000
    13  C   -0.633241   0.000000
    14  C   -0.172225   0.000000
    15  C   -0.330430   0.000000
    16  C   -0.419072   0.000000
    17  C   -0.476522  -0.000000
    18  C   -0.081702  -0.000000
    19  C   -0.633342   0.000000
    20  C   -0.172130  -0.000000
    21  C   -0.081777  -0.000000
    22  C   -0.476432   0.000000
    23  C   -0.330271   0.000000
    24  C   -0.419152   0.000000
    25  H    0.256885  -0.000000
    26  H    0.256867   0.000000
    27  H    0.059308  -0.000000
    28  H    0.122253   0.000000
    29  H    0.161263  -0.000000
    30  H    0.174255   0.000000
    31  H    0.130383   0.000000
    32  H    0.119867  -0.000000
    33  H    0.167640  -0.000000
    34  H    0.164977  -0.000000
    35  H    0.137125   0.000000
    36  H    0.157800  -0.000000
    37  H    0.157528   0.000000
    38  H    0.059250   0.000000
    39  H    0.161258  -0.000000
    40  H    0.122242   0.000000
    41  H    0.157799  -0.000000
    42  H    0.157524  -0.000000
    43  H    0.164976  -0.000000
    44  H    0.137127   0.000000
    45  H    0.130379  -0.000000
    46  H    0.174255  -0.000000
    47  H    0.167640  -0.000000
    48  H    0.119871  -0.000000
 Sum of Mulliken charges =  -2.00000  -0.00000

 Dipole moment (field-independent basis, Debye):
    X=              0.0002    Y=             -0.0002    Z=             -0.0010  Tot=              0.0010
 Quadrupole moment (field-independent basis, Debye-Ang):
   XX=           -196.8672   YY=           -235.3355   ZZ=           -197.1844
   XY=              1.6954   XZ=            -13.5050   YZ=            -14.0682

 Normal termination of Gaussian 16 at Sun Jan 21 07:49:23 2024.
