 Gaussian 16, Revision A.03,
 Gaussian 16:  ES64L-G16RevA.03 25-Dec-2016

 ----------------------------------------------------------------
 #P UB3LYP/6-311++G(d,p) SCRF=(PCM,Solvent=n,n-DiMethylFormamide)
 ----------------------------------------------------------------

 ------------------
 Quinone PCM in DMF
 ------------------
 Symbolic Z-matrix:
 Charge =  0 Multiplicity = 1

                         Standard orientation:
 ---------------------------------------------------------------------
 Center     Atomic      Atomic             Coordinates (Angstroms)
 Number     Number       Type             X           Y           Z
 ---------------------------------------------------------------------
      1          6           0        0.634862    2.020234    0.080344
      2          6           0        1.812897    2.708879   -0.501484
      3          6           0        2.893238    2.032603   -0.905253
      4          6           0        2.971098    0.562386   -0.772594
      5          6           0        1.799782   -0.161366   -0.153341
      6          6           0        0.748639    0.544900    0.298803
      7          8           0       -0.385309    2.634209    0.324941
      8          8           0        3.955673   -0.055475   -1.132219
      9         16           0       -0.590266   -0.273448    1.250639
     10          6           0       -2.023027   -0.246311    0.170671
     11          6           0       -2.987471    0.742385    0.351830
     12          6           0       -2.141456   -1.233570   -0.807720
     13          6           0       -3.263620   -1.218980   -1.631726
     14          6           0       -4.107064    0.736414   -0.475900
     15          6           0       -4.242617   -0.239144   -1.463873
     16          8           0       -0.148894   -1.666119    1.395656
     17          8           0       -0.847007    0.546884    2.431872
     18          1           0        1.720273    3.784678   -0.600144
     19          1           0        3.757550    2.512369   -1.350516
     20          1           0       -2.854042    1.491069    1.121205
     21          1           0       -1.376898   -1.993039   -0.916399
     22          1           0       -3.375568   -1.977067   -2.397783
     23          1           0       -4.872205    1.493001   -0.348157
     24          1           0       -5.116104   -0.236484   -2.106088
     25          6           0        1.922521   -1.689472   -0.219949
     26          6           0        2.755132   -2.383988    0.816056
     27          8           0        1.428037   -2.222609   -1.184412
     28          1           0        2.446479   -2.087668    1.819540
     29          1           0        3.800877   -2.094216    0.670707
     30          1           0        2.656399   -3.462413    0.695507
 ---------------------------------------------------------------------

 SCF Done:  E(UB3LYP) =  -1313.99654992     A.U. after   17 cycles

 The electronic state is 1-A.
 Alpha  occ. eigenvalues --  -89.08029 -19.16560 -19.16124 -19.14916 -19.14508
 Alpha  occ. eigenvalues --  -19.14417 -10.31355 -10.31222 -10.30496 -10.26105
 Alpha  occ. eigenvalues --  -10.25747 -10.23065 -10.22862 -10.22729 -10.20890
 Alpha  occ. eigenvalues --  -10.20755 -10.20093 -10.19872 -10.19842 -10.18383
 Alpha  occ. eigenvalues --   -8.14405  -6.10672  -6.10600  -6.10498  -1.14176
 Alpha  occ. eigenvalues --   -1.09943  -1.09450  -1.08506  -1.03767  -0.89458
 Alpha  occ. eigenvalues --   -0.89082  -0.83048  -0.79909  -0.77762  -0.77169
 Alpha  occ. eigenvalues --   -0.73870  -0.70623  -0.66921  -0.64538  -0.63651
 Alpha  occ. eigenvalues --   -0.60459  -0.58165  -0.56276  -0.55164  -0.53342
 Alpha  occ. eigenvalues --   -0.51583  -0.50361  -0.50089  -0.49646  -0.48365
 Alpha  occ. eigenvalues --   -0.47918  -0.47317  -0.46771  -0.46622  -0.46101
 Alpha  occ. eigenvalues --   -0.45099  -0.44544  -0.44235  -0.43858  -0.41047
 Alpha  occ. eigenvalues --   -0.40132  -0.39407  -0.39041  -0.37435  -0.36853
 Alpha  occ. eigenvalues --   -0.35701  -0.34209  -0.33675  -0.33257  -0.32333
 Alpha  occ. eigenvalues --   -0.31406  -0.30843  -0.28858  -0.28274  -0.28022
 Alpha virt. eigenvalues --   -0.15756  -0.07259  -0.05599  -0.04637  -0.03696
 Alpha virt. eigenvalues --   -0.02707  -0.00783   0.00144   0.00633   0.01243
 Alpha virt. eigenvalues --    0.01510   0.01981   0.02891   0.02944   0.03226

  Beta  occ. eigenvalues --  -89.08029 -19.16560 -19.16124 -19.14916 -19.14508
  Beta  occ. eigenvalues --  -19.14417 -10.31355 -10.31222 -10.30496 -10.26105
  Beta  occ. eigenvalues --  -10.25747 -10.23065 -10.22862 -10.22729 -10.20890
  Beta  occ. eigenvalues --  -10.20755 -10.20093 -10.19872 -10.19842 -10.18383
  Beta  occ. eigenvalues --   -8.14405  -6.10672  -6.10600  -6.10498  -1.14176
  Beta  occ. eigenvalues --   -1.09943  -1.09450  -1.08506  -1.03767  -0.89458
  Beta  occ. eigenvalues --   -0.89082  -0.83048  -0.79909  -0.77762  -0.77169
  Beta  occ. eigenvalues --   -0.73870  -0.70623  -0.66921  -0.64538  -0.63651
  Beta  occ. eigenvalues --   -0.60459  -0.58165  -0.56276  -0.55164  -0.53342
  Beta  occ. eigenvalues --   -0.51583  -0.50361  -0.50089  -0.49646  -0.48365
  Beta  occ. eigenvalues --   -0.47918  -0.47317  -0.46771  -0.46622  -0.46101
  Beta  occ. eigenvalues --   -0.45099  -0.44544  -0.44235  -0.43858  -0.41047
  Beta  occ. eigenvalues --   -0.40132  -0.39407  -0.39041  -0.37435  -0.36853
  Beta  occ. eigenvalues --   -0.35701  -0.34209  -0.33675  -0.33257  -0.32333
  Beta  occ. eigenvalues --   -0.31406  -0.30843  -0.28858  -0.28274  -0.28022
  Beta virt. eigenvalues --   -0.15756  -0.07259  -0.05599  -0.04637  -0.03696
  Beta virt. eigenvalues --   -0.02707  -0.00783   0.00144   0.00633   0.01243
  Beta virt. eigenvalues --    0.01510   0.01981   0.02891   0.02944   0.03226

 Mulliken charges and spin densities:
               1          2
     1  C   -0.247327  -0.000000
     2  C    0.021500  -0.000000
     3  C   -0.067823   0.000000
     4  C   -0.452501  -0.000000
     5  C    0.871291  -0.000000
     6  C   -0.092709   0.000000
     7  O   -0.207115   0.000000
     8  O   -0.214210  -0.000000
     9  S    0.455446  -0.000000
    10  C    0.759664  -0.000000
    11  C   -0.099386   0.000000
    12  C   -0.372859  -0.000000
    13  C   -0.515092  -0.000000
    14  C   -0.440765   0.000000
    15  C   -0.321931   0.000000
    16  O   -0.135955   0.000000
    17  O   -0.140716   0.000000
    18  H    0.263328   0.000000
    19  H    0.257822   0.000000
    20  H    0.265697   0.000000
    21  H    0.240935  -0.000000
    22  H    0.225892  -0.000000
    23  H    0.221989   0.000000
    24  H    0.200217  -0.000000
    25  C   -0.232710   0.000000
    26  C   -0.633047  -0.000000
    27  O   -0.210820   0.000000
    28  H    0.197381  -0.000000
    29  H    0.217829   0.000000
    30  H    0.185976   0.000000
 Sum of Mulliken charges =  -0.00000  -0.00000

 Dipole moment (field-independent basis, Debye):
    X=             -0.0844    Y=              3.4691    Z=             -3.1963  Tot=              4.7178
 Quadrupole moment (field-independent basis, Debye-Ang):
   XX=           -102.9602   YY=           -120.4104   ZZ=           -132.0698
   XY=              9.6711   XZ=             15.4639   YZ=             -6.1918

 Normal termination of Gaussian 16 at Wed Jan 24 22:55:25 2024.
