 Gaussian 16, Revision A.03,
 Gaussian 16:  ES64L-G16RevA.03 25-Dec-2016

 --------------------------------------
 #P UB3LYP/6-311++G(d,p) nosym opt freq
 --------------------------------------

 --------
 Oxidized
 --------
 Symbolic Z-matrix:
 Charge =  0 Multiplicity = 1

 SCF Done:  E(UB3LYP) =  -1313.97868905     A.U. after   23 cycles
 Optimization completed.
    -- Stationary point found.
 Normal termination of Gaussian 16 at Wed Jan 10 04:55:40 2024.

 ----------------------------------------------------------------------
 #P Geom=AllCheck Guess=TCheck SCRF=Check GenChk UB3LYP/6-311++G(d,p) F
 req
 ----------------------------------------------------------------------

 Structure from the checkpoint file:  "067.chk"
 --------
 Oxidized
 --------
 Charge =  0 Multiplicity = 1

                          Input orientation:
 ---------------------------------------------------------------------
 Center     Atomic      Atomic             Coordinates (Angstroms)
 Number     Number       Type             X           Y           Z
 ---------------------------------------------------------------------
      1          6           0       -0.563381   -1.148375    2.487027
      2          6           0       -0.478708   -1.950390    1.241987
      3          6           0        0.101434   -1.472053    0.136480
      4          6           0        0.671266   -0.108585    0.098448
      5          6           0        0.569712    0.742307    1.341405
      6          6           0       -0.069540    0.262030    2.422534
      7          8           0       -0.979627   -1.642193    3.516796
      8          8           0        1.193372    0.332603   -0.908144
      9         16           0       -0.403998    1.340732    3.869216
     10          6           0        0.654503    0.718703    5.177852
     11          6           0        0.112519   -0.131528    6.139024
     12          6           0        1.988808    1.124501    5.208094
     13          6           0        2.801812    0.653396    6.235487
     14          6           0        0.938262   -0.586074    7.163815
     15          6           0        2.276936   -0.196189    7.209858
     16          8           0        0.087137    2.665352    3.469792
     17          8           0       -1.805361    1.152355    4.236457
     18          1           0       -0.891205   -2.951150    1.305089
     19          1           0        0.191705   -2.046596   -0.778518
     20          1           0       -0.927165   -0.423607    6.075652
     21          1           0        2.376339    1.793395    4.449442
     22          1           0        3.841166    0.956720    6.278019
     23          1           0        0.535406   -1.243560    7.925131
     24          1           0        2.914587   -0.555606    8.009638
     25          6           0        1.337869    2.066675    1.238483
     26          6           0        0.684194    3.217428    0.533234
     27          8           0        2.478280    2.053963    1.636275
     28          1           0       -0.309694    3.404696    0.942098
     29          1           0        0.585150    2.962368   -0.526866
     30          1           0        1.306813    4.105604    0.637016
 ---------------------------------------------------------------------

 SCF Done:  E(UB3LYP) =  -1313.97868905     A.U. after    2 cycles

 Alpha  occ. eigenvalues --  -89.07184 -19.16787 -19.16295 -19.14181 -19.13384
 Alpha  occ. eigenvalues --  -19.13326 -10.31613 -10.31398 -10.29913 -10.26038
 Alpha  occ. eigenvalues --  -10.25748 -10.23995 -10.23865 -10.22926 -10.20959
 Alpha  occ. eigenvalues --  -10.20837 -10.20590 -10.20262 -10.20243 -10.18414
 Alpha  occ. eigenvalues --   -8.13547  -6.09792  -6.09753  -6.09656  -1.13111
 Alpha  occ. eigenvalues --   -1.10085  -1.09540  -1.07771  -1.02594  -0.89777
 Alpha  occ. eigenvalues --   -0.89276  -0.83677  -0.79913  -0.77976  -0.77132
 Alpha  occ. eigenvalues --   -0.74070  -0.70799  -0.67197  -0.64840  -0.63879
 Alpha  occ. eigenvalues --   -0.60526  -0.58078  -0.56263  -0.55578  -0.53056
 Alpha  occ. eigenvalues --   -0.52006  -0.50210  -0.49948  -0.49322  -0.48327
 Alpha  occ. eigenvalues --   -0.47831  -0.47082  -0.46719  -0.46593  -0.45891
 Alpha  occ. eigenvalues --   -0.45351  -0.44897  -0.44442  -0.44114  -0.41013
 Alpha  occ. eigenvalues --   -0.40220  -0.39653  -0.38565  -0.37707  -0.35771
 Alpha  occ. eigenvalues --   -0.34681  -0.33974  -0.33519  -0.32921  -0.32221
 Alpha  occ. eigenvalues --   -0.31445  -0.30494  -0.28913  -0.28407  -0.27634
 Alpha virt. eigenvalues --   -0.16117  -0.07632  -0.05456  -0.04514  -0.03867
 Alpha virt. eigenvalues --   -0.03115  -0.01434  -0.00944   0.00204   0.00982
 Alpha virt. eigenvalues --    0.01213   0.01653   0.02450   0.03082   0.03552

  Beta  occ. eigenvalues --  -89.07184 -19.16787 -19.16295 -19.14181 -19.13384
  Beta  occ. eigenvalues --  -19.13326 -10.31613 -10.31398 -10.29913 -10.26038
  Beta  occ. eigenvalues --  -10.25748 -10.23995 -10.23865 -10.22926 -10.20959
  Beta  occ. eigenvalues --  -10.20837 -10.20590 -10.20262 -10.20243 -10.18414
  Beta  occ. eigenvalues --   -8.13547  -6.09792  -6.09753  -6.09656  -1.13111
  Beta  occ. eigenvalues --   -1.10085  -1.09540  -1.07771  -1.02594  -0.89777
  Beta  occ. eigenvalues --   -0.89276  -0.83677  -0.79913  -0.77976  -0.77132
  Beta  occ. eigenvalues --   -0.74070  -0.70799  -0.67197  -0.64840  -0.63879
  Beta  occ. eigenvalues --   -0.60526  -0.58078  -0.56263  -0.55578  -0.53056
  Beta  occ. eigenvalues --   -0.52006  -0.50210  -0.49948  -0.49322  -0.48327
  Beta  occ. eigenvalues --   -0.47831  -0.47082  -0.46719  -0.46593  -0.45891
  Beta  occ. eigenvalues --   -0.45351  -0.44897  -0.44442  -0.44114  -0.41013
  Beta  occ. eigenvalues --   -0.40220  -0.39653  -0.38565  -0.37707  -0.35771
  Beta  occ. eigenvalues --   -0.34681  -0.33974  -0.33519  -0.32921  -0.32221
  Beta  occ. eigenvalues --   -0.31445  -0.30494  -0.28913  -0.28407  -0.27634
  Beta virt. eigenvalues --   -0.16117  -0.07632  -0.05456  -0.04514  -0.03867
  Beta virt. eigenvalues --   -0.03115  -0.01434  -0.00944   0.00204   0.00982
  Beta virt. eigenvalues --    0.01213   0.01653   0.02450   0.03082   0.03552

 Mulliken charges and spin densities:
               1          2
     1  C   -0.272147   0.000000
     2  C    0.036656  -0.000000
     3  C   -0.036863   0.000000
     4  C   -0.498660   0.000000
     5  C    0.823543  -0.000000
     6  C   -0.168447  -0.000000
     7  O   -0.158628   0.000000
     8  O   -0.171537   0.000000
     9  S    0.385112   0.000000
    10  C    0.739319  -0.000000
    11  C   -0.141590   0.000000
    12  C   -0.331883   0.000000
    13  C   -0.489945  -0.000000
    14  C   -0.408233   0.000000
    15  C   -0.284333   0.000000
    16  O   -0.066360  -0.000000
    17  O   -0.056844  -0.000000
    18  H    0.238109  -0.000000
    19  H    0.232499   0.000000
    20  H    0.270047  -0.000000
    21  H    0.246804   0.000000
    22  H    0.197126   0.000000
    23  H    0.192027   0.000000
    24  H    0.168999  -0.000000
    25  C   -0.250309   0.000000
    26  C   -0.612888  -0.000000
    27  O   -0.163562  -0.000000
    28  H    0.190331   0.000000
    29  H    0.208723  -0.000000
    30  H    0.182934   0.000000
 Sum of Mulliken charges =  -0.00000  -0.00000

 Dipole moment (field-independent basis, Debye):
    X=              0.9116    Y=             -3.4400    Z=             -0.0501  Tot=              3.5591
 Quadrupole moment (field-independent basis, Debye-Ang):
   XX=           -129.2401   YY=           -122.6147   ZZ=           -110.6958
   XY=             -0.5908   XZ=             19.3062   YZ=            -10.8885

  Exact polarizability: 169.797  20.850 170.959  -1.153 -29.509 245.836
 Approx polarizability: 314.316  52.308 269.098 -45.718 -79.863 389.348

                      1                      2                      3
                      A                      A                      A
 Frequencies --     28.6273                35.4480                43.7291
 Red. masses --      6.2670                 4.9346                 5.4145
 Frc consts  --      0.0030                 0.0037                 0.0061
 IR Inten    --      2.1418                 0.7895                 1.2187

                      4                      5                      6
                      A                      A                      A
 Frequencies --     69.7858                82.8722                98.2976
 Red. masses --      6.4871                 6.5164                 1.1421
 Frc consts  --      0.0186                 0.0264                 0.0065
 IR Inten    --      3.9752                 2.9915                 0.1275

                      7                      8                      9
                      A                      A                      A
 Frequencies --    111.2692               151.2500               156.3959
 Red. masses --      5.1085                 8.6013                 4.5636
 Frc consts  --      0.0373                 0.1159                 0.0658
 IR Inten    --      5.6225                 4.0885                 5.0076

                     10                     11                     12
                      A                      A                      A
 Frequencies --    173.1893               177.5895               207.5188
 Red. masses --      7.2715                 6.0099                 6.2721
 Frc consts  --      0.1285                 0.1117                 0.1591
 IR Inten    --      0.1902                 1.2498                 3.1415

                     13                     14                     15
                      A                      A                      A
 Frequencies --    232.7386               256.1291               271.8937
 Red. masses --      8.0546                 8.5615                 5.2860
 Frc consts  --      0.2571                 0.3309                 0.2302
 IR Inten    --      1.3763                 0.8733                 0.4163

                     16                     17                     18
                      A                      A                      A
 Frequencies --    296.9870               306.4788               354.1004
 Red. masses --      7.5490                 8.3876                 6.7251
 Frc consts  --      0.3923                 0.4642                 0.4968
 IR Inten    --      1.9192                 3.3047                 3.4863

                     19                     20                     21
                      A                      A                      A
 Frequencies --    409.4217               410.9896               434.9178
 Red. masses --      3.9814                 4.3989                 7.9411
 Frc consts  --      0.3932                 0.4378                 0.8850
 IR Inten    --      3.6972                 5.2316                17.9744

                     22                     23                     24
                      A                      A                      A
 Frequencies --    452.1533               476.4090               500.7953
 Red. masses --      5.3988                 7.0694                 7.2506
 Frc consts  --      0.6503                 0.9453                 1.0714
 IR Inten    --      8.7629                 7.2289                33.6043

                     25                     26                     27
                      A                      A                      A
 Frequencies --    523.8512               544.5406               586.5903
 Red. masses --      4.4454                 4.3223                 6.7760
 Frc consts  --      0.7188                 0.7551                 1.3737
 IR Inten    --     13.6190                66.2041                29.8000

                     28                     29                     30
                      A                      A                      A
 Frequencies --    607.6123               616.2069               625.7699
 Red. masses --      4.3884                 3.7735                 6.4476
 Frc consts  --      0.9546                 0.8442                 1.4876
 IR Inten    --     59.2400                29.7288                 0.1694

                     31                     32                     33
                      A                      A                      A
 Frequencies --    649.4889               693.2944               700.5277
 Red. masses --      3.5194                 6.5826                 2.0835
 Frc consts  --      0.8747                 1.8642                 0.6024
 IR Inten    --      6.4654                12.8142                42.9260

                     34                     35                     36
                      A                      A                      A
 Frequencies --    723.6590               767.0683               810.0137
 Red. masses --      6.7751                 1.6183                 8.5319
 Frc consts  --      2.0904                 0.5610                 3.2982
 IR Inten    --     65.1919                22.6814                 3.7385

                     37                     38                     39
                      A                      A                      A
 Frequencies --    844.2987               856.2122               858.7683
 Red. masses --      4.9668                 1.2452                 2.3618
 Frc consts  --      2.0860                 0.5378                 1.0262
 IR Inten    --     23.3176                 0.1424                38.8902

                     40                     41                     42
                      A                      A                      A
 Frequencies --    881.4412               949.3639               984.6072
 Red. masses --      5.8709                 1.3492                 2.2813
 Frc consts  --      2.6875                 0.7165                 1.3030
 IR Inten    --      8.6849                 0.4349                21.8310

                     43                     44                     45
                      A                      A                      A
 Frequencies --    996.3826              1009.4161              1013.5416
 Red. masses --      1.3788                 3.1317                 1.5643
 Frc consts  --      0.8065                 1.8800                 0.9468
 IR Inten    --      0.1685                 9.5419                 0.5852

                     46                     47                     48
                      A                      A                      A
 Frequencies --   1015.4429              1017.9773              1041.2942
 Red. masses --      2.8500                 1.3072                 3.2379
 Frc consts  --      1.7314                 0.7981                 2.0685
 IR Inten    --      1.7623                 0.3888                 6.1588

                     49                     50                     51
                      A                      A                      A
 Frequencies --   1068.2983              1075.2936              1103.2373
 Red. masses --      2.5308                 3.1040                 1.5854
 Frc consts  --      1.7017                 2.1146                 1.1369
 IR Inten    --     63.2918                24.1314                 9.1639

                     52                     53                     54
                      A                      A                      A
 Frequencies --   1112.0503              1120.2012              1186.2456
 Red. masses --      1.5279                 5.8614                 1.1219
 Frc consts  --      1.1132                 4.3335                 0.9302
 IR Inten    --     74.4687               156.1567                 0.2540

                     55                     56                     57
                      A                      A                      A
 Frequencies --   1202.1500              1203.5283              1267.5761
 Red. masses --      1.9717                 1.5004                 4.1884
 Frc consts  --      1.6788                 1.2805                 3.9650
 IR Inten    --     65.9415                29.1932                27.0258

                     58                     59                     60
                      A                      A                      A
 Frequencies --   1276.5321              1282.0740              1333.5727
 Red. masses --      2.7865                17.5552                 2.9473
 Frc consts  --      2.6753                17.0013                 3.0882
 IR Inten    --    162.0051               147.4673                 0.0621

                     61                     62                     63
                      A                      A                      A
 Frequencies --   1350.4610              1384.8385              1386.9501
 Red. masses --      1.7697                 1.3821                 1.7035
 Frc consts  --      1.9016                 1.5617                 1.9307
 IR Inten    --      2.7466                42.9468                18.5382

                     64                     65                     66
                      A                      A                      A
 Frequencies --   1460.0489              1471.5725              1477.3800
 Red. masses --      1.0544                 1.0539                 2.1527
 Frc consts  --      1.3243                 1.3446                 2.7683
 IR Inten    --     16.3550                12.4121                17.6726

                     67                     68                     69
                      A                      A                      A
 Frequencies --   1507.0804              1620.8028              1622.7326
 Red. masses --      1.9929                 5.4253                 7.2519
 Frc consts  --      2.6670                 8.3972                11.2511
 IR Inten    --      3.6511                 4.4927                 4.1947

                     70                     71                     72
                      A                      A                      A
 Frequencies --   1625.5064              1677.6222              1722.7191
 Red. masses --      7.4896                 8.1997                11.0849
 Frc consts  --     11.6597                13.5967                19.3825
 IR Inten    --      4.5018                 7.1021                75.4593

                     73                     74                     75
                      A                      A                      A
 Frequencies --   1730.3847              1781.3277              3038.7651
 Red. masses --     11.9808                11.3767                 1.0373
 Frc consts  --     21.1359                21.2694                 5.6437
 IR Inten    --    318.8542               144.6001                 0.1596

                     76                     77                     78
                      A                      A                      A
 Frequencies --   3111.1240              3144.9514              3170.6746
 Red. masses --      1.0956                 1.1046                 1.0866
 Frc consts  --      6.2479                 6.4368                 6.4364
 IR Inten    --      0.7755                 3.9820                 1.0990

                     79                     80                     81
                      A                      A                      A
 Frequencies --   3180.3211              3183.6681              3191.5423
 Red. masses --      1.0875                 1.0899                 1.0943
 Frc consts  --      6.4809                 6.5087                 6.5673
 IR Inten    --      0.1332                 9.6999                 6.9461

                     82                     83                     84
                      A                      A                      A
 Frequencies --   3197.3405              3201.7206              3215.9719
 Red. masses --      1.0998                 1.0956                 1.0937
 Frc consts  --      6.6240                 6.6172                 6.6644
 IR Inten    --      0.9796                 8.1347                 4.3732

 - Thermochemistry -
 -------------------
 Temperature   298.150 Kelvin.  Pressure   1.00000 Atm.
 Atom     1 has atomic number  6 and mass  12.00000

 Molecular mass:   290.02490 amu.
 Principal axes and moments of inertia in atomic units:
                           1         2         3
     Eigenvalues --  3507.268726976.250448062.65167
           X            0.07497   0.48549   0.87102
           Y           -0.05119   0.87420  -0.48286
           Z            0.99587   0.00839  -0.09039
 This molecule is an asymmetric top.
 Rotational symmetry number  1.
 Warning -- assumption of classical behavior for rotation
           may cause significant error
 Rotational temperatures (Kelvin)      0.02470     0.01242     0.01074
 Rotational constants (GHZ):           0.51457     0.25870     0.22384
 Zero-point vibrational energy     554724.1 (Joules/Mol)
                                  132.58223 (Kcal/Mol)
 Warning -- explicit consideration of  29 degrees of freedom as
           vibrations may cause significant error
 Vibrational temperatures:     41.19    51.00    62.92   100.41   119.23
          (Kelvin)            141.43   160.09   217.61   225.02   249.18
                              255.51   298.57   334.86   368.51   391.19
                              427.30   440.95   509.47   589.07   591.32
                              625.75   650.55   685.45   720.53   753.71
                              783.47   843.97   874.22   886.58   900.34
                              934.47   997.50  1007.90  1041.18  1103.64
                             1165.43  1214.76  1231.90  1235.58  1268.20
                             1365.92  1416.63  1433.57  1452.32  1458.26
                             1461.00  1464.64  1498.19  1537.04  1547.11
                             1587.31  1599.99  1611.72  1706.74  1729.63
                             1731.61  1823.76  1836.64  1844.62  1918.71
                             1943.01  1992.47  1995.51  2100.68  2117.26
                             2125.62  2168.35  2331.97  2334.75  2338.74
                             2413.72  2478.61  2489.64  2562.93  4372.11
                             4476.21  4524.88  4561.89  4575.77  4580.59
                             4591.92  4600.26  4606.56  4627.07

 Zero-point correction=                           0.211283 (Hartree/Particle)
 Thermal correction to Energy=                    0.229471
 Thermal correction to Enthalpy=                  0.230415
 Thermal correction to Gibbs Free Energy=         0.163666
 Sum of electronic and zero-point Energies=          -1313.767406
 Sum of electronic and thermal Energies=             -1313.749218
 Sum of electronic and thermal Enthalpies=           -1313.748274
 Sum of electronic and thermal Free Energies=        -1313.815023

                     E (Thermal)             CV                S
                      KCal/Mol        Cal/Mol-Kelvin    Cal/Mol-Kelvin
 Total                  143.995             67.423            140.485
 Electronic               0.000              0.000              0.000
 Translational            0.889              2.981             42.892
 Rotational               0.889              2.981             33.644
 Vibrational            142.218             61.461             63.949
 Vibration     1          0.593              1.984              5.922
 Vibration     2          0.594              1.982              5.499
 Vibration     3          0.595              1.980              5.083
 Vibration     4          0.598              1.969              4.159
 Vibration     5          0.600              1.961              3.822
 Vibration     6          0.604              1.950              3.488
 Vibration     7          0.607              1.940              3.247
 Vibration     8          0.619              1.901              2.656
 Vibration     9          0.620              1.896              2.593
 Vibration    10          0.627              1.875              2.401
 Vibration    11          0.628              1.870              2.354
 Vibration    12          0.641              1.829              2.065
 Vibration    13          0.653              1.791              1.858
 Vibration    14          0.666              1.752              1.688
 Vibration    15          0.675              1.725              1.584
 Vibration    16          0.691              1.679              1.434
 Vibration    17          0.697              1.661              1.381
 Vibration    18          0.730              1.567              1.148
 Vibration    19          0.774              1.450              0.929
 Vibration    20          0.775              1.446              0.923
 Vibration    21          0.796              1.394              0.843
 Vibration    22          0.811              1.356              0.789
 Vibration    23          0.833              1.302              0.720
 Vibration    24          0.856              1.248              0.656
 Vibration    25          0.879              1.197              0.601
 Vibration    26          0.900              1.152              0.556
 Vibration    27          0.944              1.060              0.473
 Vibration    28          0.966              1.016              0.437
 Vibration    29          0.976              0.998              0.423

 Optimization completed.
    -- Stationary point found.
 Normal termination of Gaussian 16 at Wed Jan 10 05:42:41 2024.
