 Gaussian 16, Revision A.03,
 Gaussian 16:  ES64L-G16RevA.03 25-Dec-2016

 ----------------------------------------------------------------------
 #P UB3LYP/6-311++G(d,p) nosym opt freq SCRF=(PCM,Solvent=n,n-DiMethylF
 ormamide)
 ----------------------------------------------------------------------

 -------
 Reduced
 -------
 Symbolic Z-matrix:
 Charge = -2 Multiplicity = 1

 SCF Done:  E(UB3LYP) =  -844.050161606     A.U. after   17 cycles
 SCF Done:  E(UB3LYP) =  -844.051428718     A.U. after   13 cycles
 SCF Done:  E(UB3LYP) =  -844.052645414     A.U. after   14 cycles
 SCF Done:  E(UB3LYP) =  -844.053204305     A.U. after   14 cycles
 SCF Done:  E(UB3LYP) =  -844.053428888     A.U. after   12 cycles
 SCF Done:  E(UB3LYP) =  -844.053543983     A.U. after   14 cycles
 SCF Done:  E(UB3LYP) =  -844.053573733     A.U. after   12 cycles
 SCF Done:  E(UB3LYP) =  -844.053584364     A.U. after   13 cycles
 SCF Done:  E(UB3LYP) =  -844.053586131     A.U. after   11 cycles
 SCF Done:  E(UB3LYP) =  -844.053586341     A.U. after   10 cycles
 Optimization completed.
    -- Stationary point found.
 Normal termination of Gaussian 16 at Sat Feb 10 12:49:14 2024.

 ----------------------------------------------------------------------
 #P Geom=AllCheck Guess=TCheck SCRF=Check GenChk UB3LYP/6-311++G(d,p) F
 req
 ----------------------------------------------------------------------

 Structure from the checkpoint file:  "064-an.chk"
 -------
 Reduced
 -------
 Charge = -2 Multiplicity = 1

                          Input orientation:
 ---------------------------------------------------------------------
 Center     Atomic      Atomic             Coordinates (Angstroms)
 Number     Number       Type             X           Y           Z
 ---------------------------------------------------------------------
      1          8           0        1.437959    2.388331   -0.191441
      2          6           0        0.788947    1.250582   -0.193450
      3          6           0       -0.629209    1.207601   -0.240243
      4          6           0       -1.423627    0.044985   -0.212610
      5          6           0       -0.788958   -1.250587   -0.127272
      6          8           0       -1.437962   -2.388341   -0.129448
      7          6           0        0.629200   -1.207611   -0.080564
      8          6           0        1.423620   -0.044994   -0.108197
      9          6           0        2.896540   -0.186374   -0.024714
     10          6           0        3.492272   -1.214421    0.736492
     11          6           0        4.875187   -1.381648    0.789935
     12          6           0        5.719209   -0.522559    0.084285
     13          6           0        5.152409    0.507466   -0.670514
     14          6           0        3.770171    0.676882   -0.719120
     15          6           0       -2.896543    0.186365   -0.296189
     16          6           0       -3.492223    1.214368   -1.057494
     17          6           0       -4.875134    1.381606   -1.111025
     18          6           0       -5.719201    0.522571   -0.405365
     19          6           0       -5.152454   -0.507408    0.349535
     20          6           0       -3.770219   -0.676835    0.398228
     21          1           0       -1.125344    2.175199   -0.266500
     22          1           0        1.125335   -2.175211   -0.054378
     23          1           0        2.859473   -1.884380    1.307585
     24          1           0        5.294665   -2.180947    1.392855
     25          1           0        6.795609   -0.648987    0.126279
     26          1           0        5.793162    1.185051   -1.226563
     27          1           0        3.340765    1.488962   -1.289288
     28          1           0       -2.859385    1.884286   -1.628594
     29          1           0       -5.294571    2.180869   -1.714020
     30          1           0       -6.795599    0.649007   -0.447426
     31          1           0       -5.793243   -1.184949    0.905595
     32          1           0       -3.340853   -1.488880    0.968474
 ---------------------------------------------------------------------

 SCF Done:  E(UB3LYP) =  -844.053586341     A.U. after    1 cycles

 Alpha  occ. eigenvalues --  -19.01099 -19.01098 -10.17017 -10.17016 -10.16772
 Alpha  occ. eigenvalues --  -10.16772 -10.16417 -10.16417 -10.16292 -10.16292
 Alpha  occ. eigenvalues --  -10.16156 -10.16156 -10.15861 -10.15861 -10.15428
 Alpha  occ. eigenvalues --  -10.15428 -10.13668 -10.13667 -10.11974 -10.11972
 Alpha  occ. eigenvalues --   -0.92194  -0.91784  -0.84467  -0.84446  -0.78714
 Alpha  occ. eigenvalues --   -0.76063  -0.73354  -0.73346  -0.72884  -0.68368
 Alpha  occ. eigenvalues --   -0.64724  -0.61000  -0.59490  -0.59081  -0.57594
 Alpha  occ. eigenvalues --   -0.54817  -0.53099  -0.50293  -0.48493  -0.45241
 Alpha  occ. eigenvalues --   -0.44858  -0.44370  -0.43450  -0.41941  -0.41247
 Alpha  occ. eigenvalues --   -0.40940  -0.40654  -0.40592  -0.38405  -0.36359
 Alpha  occ. eigenvalues --   -0.36129  -0.35913  -0.35011  -0.34432  -0.33303
 Alpha  occ. eigenvalues --   -0.33161  -0.32822  -0.31822  -0.31355  -0.30505
 Alpha  occ. eigenvalues --   -0.26380  -0.25044  -0.24623  -0.24573  -0.21165
 Alpha  occ. eigenvalues --   -0.19533  -0.19006  -0.18839  -0.11883
 Alpha virt. eigenvalues --   -0.02695  -0.00481  -0.00241   0.00099   0.00342
 Alpha virt. eigenvalues --    0.00365   0.01392   0.01795   0.02136   0.02762
 Alpha virt. eigenvalues --    0.03281   0.03545   0.04274   0.04279   0.04909

  Beta  occ. eigenvalues --  -19.01099 -19.01098 -10.17017 -10.17016 -10.16772
  Beta  occ. eigenvalues --  -10.16772 -10.16417 -10.16417 -10.16292 -10.16292
  Beta  occ. eigenvalues --  -10.16156 -10.16156 -10.15861 -10.15861 -10.15428
  Beta  occ. eigenvalues --  -10.15428 -10.13668 -10.13667 -10.11974 -10.11972
  Beta  occ. eigenvalues --   -0.92194  -0.91784  -0.84467  -0.84446  -0.78714
  Beta  occ. eigenvalues --   -0.76063  -0.73354  -0.73346  -0.72884  -0.68368
  Beta  occ. eigenvalues --   -0.64724  -0.61000  -0.59490  -0.59081  -0.57594
  Beta  occ. eigenvalues --   -0.54817  -0.53099  -0.50293  -0.48493  -0.45241
  Beta  occ. eigenvalues --   -0.44858  -0.44370  -0.43450  -0.41941  -0.41247
  Beta  occ. eigenvalues --   -0.40940  -0.40654  -0.40592  -0.38405  -0.36359
  Beta  occ. eigenvalues --   -0.36129  -0.35913  -0.35011  -0.34432  -0.33303
  Beta  occ. eigenvalues --   -0.33161  -0.32822  -0.31822  -0.31355  -0.30505
  Beta  occ. eigenvalues --   -0.26380  -0.25044  -0.24623  -0.24573  -0.21165
  Beta  occ. eigenvalues --   -0.19533  -0.19006  -0.18839  -0.11883
  Beta virt. eigenvalues --   -0.02695  -0.00481  -0.00241   0.00099   0.00342
  Beta virt. eigenvalues --    0.00365   0.01392   0.01795   0.02136   0.02762
  Beta virt. eigenvalues --    0.03281   0.03545   0.04274   0.04279   0.04909

 Mulliken charges and spin densities:
               1          2
     1  O   -0.711042   0.000000
     2  C   -0.684936   0.000000
     3  C   -0.655184  -0.000000
     4  C    1.015856  -0.000000
     5  C   -0.684891   0.000000
     6  O   -0.711047  -0.000000
     7  C   -0.655189  -0.000000
     8  C    1.015724   0.000000
     9  C    1.065609  -0.000000
    10  C   -0.675917  -0.000000
    11  C   -0.389709   0.000000
    12  C   -0.383825  -0.000000
    13  C   -0.315240   0.000000
    14  C   -0.258264   0.000000
    15  C    1.065458  -0.000000
    16  C   -0.675934   0.000000
    17  C   -0.389733  -0.000000
    18  C   -0.383795   0.000000
    19  C   -0.315219  -0.000000
    20  C   -0.258236   0.000000
    21  H    0.113504  -0.000000
    22  H    0.113502  -0.000000
    23  H    0.169994  -0.000000
    24  H    0.177504   0.000000
    25  H    0.168720  -0.000000
    26  H    0.179014   0.000000
    27  H    0.184021   0.000000
    28  H    0.169993   0.000000
    29  H    0.177506  -0.000000
    30  H    0.168721  -0.000000
    31  H    0.179017   0.000000
    32  H    0.184018  -0.000000
 Sum of Mulliken charges =  -2.00000   0.00000

 Dipole moment (field-independent basis, Debye):
    X=             -0.0001    Y=              0.0001    Z=              1.5412  Tot=              1.5412
 Quadrupole moment (field-independent basis, Debye-Ang):
   XX=           -160.3770   YY=           -168.3198   ZZ=           -127.5686
   XY=            -23.2794   XZ=             -1.6784   YZ=             -6.8210

  Exact polarizability: 636.931 -39.231 357.017  12.811 -52.001 222.994
 Approx polarizability: 630.805 -33.056 418.891   8.525 -69.565 256.123

                      1                      2                      3
                      A                      A                      A
 Frequencies --     30.9600                38.1381                53.0798
 Red. masses --      5.9053                 3.7756                 4.9978
 Frc consts  --      0.0033                 0.0032                 0.0083
 IR Inten    --     15.0607                 6.4306                 0.0000

                      4                      5                      6
                      A                      A                      A
 Frequencies --     75.0918               107.1748               136.0618
 Red. masses --      5.3003                 5.0053                 9.3518
 Frc consts  --      0.0176                 0.0339                 0.1020
 IR Inten    --     11.3200                 0.0000                20.9697

                      7                      8                      9
                      A                      A                      A
 Frequencies --    145.5642               215.3349               233.6318
 Red. masses --      5.3311                 6.7494                 5.1004
 Frc consts  --      0.0666                 0.1844                 0.1640
 IR Inten    --      0.0000                 0.0000                 1.9331

                     10                     11                     12
                      A                      A                      A
 Frequencies --    271.6730               308.6849               310.5296
 Red. masses --      5.5141                 6.1922                10.6765
 Frc consts  --      0.2398                 0.3476                 0.6066
 IR Inten    --      0.0000                 0.0000                13.5492

                     13                     14                     15
                      A                      A                      A
 Frequencies --    329.3386               416.0762               416.3515
 Red. masses --      5.1859                 2.9304                 2.9927
 Frc consts  --      0.3314                 0.2989                 0.3057
 IR Inten    --     14.9052                 5.0991                 0.0000

                     16                     17                     18
                      A                      A                      A
 Frequencies --    419.7183               463.9710               476.4637
 Red. masses --      6.3077                 6.2933                 4.1217
 Frc consts  --      0.6547                 0.7982                 0.5513
 IR Inten    --      0.0000                12.1938                10.0314

                     19                     20                     21
                      A                      A                      A
 Frequencies --    491.8723               528.3541               537.0106
 Red. masses --     11.9850                 2.7726                 3.7054
 Frc consts  --      1.7084                 0.4560                 0.6296
 IR Inten    --      0.0000                23.6812                 0.0000

                     22                     23                     24
                      A                      A                      A
 Frequencies --    608.2194               631.3636               631.9850
 Red. masses --      6.4275                 6.3790                 6.2832
 Frc consts  --      1.4009                 1.4982                 1.4786
 IR Inten    --      0.0000                 0.5848                 0.0000

                     25                     26                     27
                      A                      A                      A
 Frequencies --    672.3262               699.9974               700.9318
 Red. masses --      4.6637                 3.7983                 4.8327
 Frc consts  --      1.2421                 1.0965                 1.3989
 IR Inten    --      0.0000               149.5331                18.5440

                     28                     29                     30
                      A                      A                      A
 Frequencies --    704.6626               705.4038               720.2204
 Red. masses --      1.7194                 1.8558                 4.4429
 Frc consts  --      0.5030                 0.5441                 1.3578
 IR Inten    --      0.0002               125.7375                 0.0000

                     31                     32                     33
                      A                      A                      A
 Frequencies --    736.2756               781.0475               782.1786
 Red. masses --      3.1928                 2.0632                 2.5760
 Frc consts  --      1.0198                 0.7416                 0.9286
 IR Inten    --      0.0000                 0.0000               127.3431

                     34                     35                     36
                      A                      A                      A
 Frequencies --    843.1914               848.6803               851.7763
 Red. masses --      2.4665                 1.2537                 1.7344
 Frc consts  --      1.0332                 0.5320                 0.7414
 IR Inten    --    141.0929                 0.0001                46.3580

                     37                     38                     39
                      A                      A                      A
 Frequencies --    854.1215               869.7406               917.7545
 Red. masses --      1.7574                 1.5127                 1.5307
 Frc consts  --      0.7554                 0.6742                 0.7596
 IR Inten    --      0.0000               112.2204                12.9067

                     40                     41                     42
                      A                      A                      A
 Frequencies --    918.1717               936.2704               982.1840
 Red. masses --      1.5386                 6.8516                 1.3668
 Frc consts  --      0.7642                 3.5387                 0.7769
 IR Inten    --      0.0004                 0.0000                 2.6209

                     43                     44                     45
                      A                      A                      A
 Frequencies --    982.3260               991.9422               992.3530
 Red. masses --      1.3650                 1.2832                 1.2781
 Frc consts  --      0.7761                 0.7439                 0.7416
 IR Inten    --      0.0012                 5.5797                 0.0000

                     46                     47                     48
                      A                      A                      A
 Frequencies --   1005.8778              1008.7506              1028.9640
 Red. masses --      5.5430                 5.9615                 4.2046
 Frc consts  --      3.3044                 3.5742                 2.6228
 IR Inten    --    104.5219                 0.0000                87.8074

                     49                     50                     51
                      A                      A                      A
 Frequencies --   1046.9722              1051.9822              1090.5438
 Red. masses --      2.0952                 1.9161                 1.6150
 Frc consts  --      1.3532                 1.2493                 1.1317
 IR Inten    --      0.0000                 4.7024                39.5542

                     52                     53                     54
                      A                      A                      A
 Frequencies --   1091.6112              1166.0513              1169.0031
 Red. masses --      1.6101                 1.6964                 1.0920
 Frc consts  --      1.1304                 1.3590                 0.8792
 IR Inten    --      0.0001               427.0115                 0.0001

                     55                     56                     57
                      A                      A                      A
 Frequencies --   1172.2815              1192.0677              1193.4346
 Red. masses --      1.7862                 1.1460                 1.2064
 Frc consts  --      1.4463                 0.9595                 1.0123
 IR Inten    --    419.1672                 0.0002                15.9074

                     58                     59                     60
                      A                      A                      A
 Frequencies --   1229.5355              1247.4465              1250.3112
 Red. masses --      2.5760                 4.8064                 4.7997
 Frc consts  --      2.2944                 4.4067                 4.4208
 IR Inten    --    573.9877                 0.0000               205.3366

                     61                     62                     63
                      A                      A                      A
 Frequencies --   1265.2892              1305.6734              1313.3918
 Red. masses --      1.3067                 4.1810                 5.1674
 Frc consts  --      1.2326                 4.1995                 5.2519
 IR Inten    --      0.0000                 0.0000               175.3839

                     64                     65                     66
                      A                      A                      A
 Frequencies --   1314.9059              1346.7816              1347.0378
 Red. masses --      6.2271                 1.7766                 1.8136
 Frc consts  --      6.3435                 1.8986                 1.9389
 IR Inten    --      0.0000                 0.0101                71.7724

                     67                     68                     69
                      A                      A                      A
 Frequencies --   1394.4536              1438.9882              1455.8620
 Red. masses --      4.4706                 3.3908                 2.5168
 Frc consts  --      5.1218                 4.1368                 3.1430
 IR Inten    --   1158.7800                 0.0000               544.8679

                     70                     71                     72
                      A                      A                      A
 Frequencies --   1470.9416              1479.6737              1513.3317
 Red. masses --      2.3575                 3.3649                 2.1691
 Frc consts  --      3.0053                 4.3406                 2.9269
 IR Inten    --     99.5569                 0.0000                 0.0013

                     73                     74                     75
                      A                      A                      A
 Frequencies --   1514.2512              1591.1536              1594.9893
 Red. masses --      2.2299                 5.0361                 5.2385
 Frc consts  --      3.0126                 7.5123                 7.8519
 IR Inten    --    343.8827                 0.0000                 9.3572

                     76                     77                     78
                      A                      A                      A
 Frequencies --   1603.8428              1620.5498              1624.5320
 Red. masses --      6.5244                 5.4809                 5.5367
 Frc consts  --      9.8882                 8.4806                 8.6091
 IR Inten    --      0.0000               449.4828                 0.0000

                     79                     80                     81
                      A                      A                      A
 Frequencies --   3121.5867              3124.9185              3147.2695
 Red. masses --      1.0864                 1.0873                 1.0850
 Frc consts  --      6.2370                 6.2555                 6.3321
 IR Inten    --    144.9268                 0.0000                30.2516

                     82                     83                     84
                      A                      A                      A
 Frequencies --   3147.3560              3153.8284              3153.8455
 Red. masses --      1.0850                 1.0888                 1.0889
 Frc consts  --      6.3325                 6.3811                 6.3812
 IR Inten    --      0.0002                53.8487                 0.0138

                     85                     86                     87
                      A                      A                      A
 Frequencies --   3170.4383              3170.4806              3178.4358
 Red. masses --      1.0914                 1.0914                 1.0962
 Frc consts  --      6.4638                 6.4640                 6.5250
 IR Inten    --    103.6054                 0.0008                95.3244

                     88                     89                     90
                      A                      A                      A
 Frequencies --   3178.5345              3211.7349              3211.7444
 Red. masses --      1.0962                 1.0911                 1.0911
 Frc consts  --      6.5250                 6.6314                 6.6313
 IR Inten    --      0.0001                 2.9883                17.5227

 - Thermochemistry -
 -------------------
 Temperature   298.150 Kelvin.  Pressure   1.00000 Atm.
 Atom     1 has atomic number  8 and mass  15.99491

 Molecular mass:   260.08373 amu.
 Principal axes and moments of inertia in atomic units:
                           1         2         3
     Eigenvalues --  1623.52516********************
           X            0.99796   0.05785  -0.02690
           Y           -0.04868   0.96300   0.26507
           Z            0.04124  -0.26322   0.96385
 This molecule is an asymmetric top.
 Rotational symmetry number  1.
 Warning -- assumption of classical behavior for rotation
           may cause significant error
 Rotational temperatures (Kelvin)      0.05335     0.00740     0.00664
 Rotational constants (GHZ):           1.11162     0.15421     0.13837
 Zero-point vibrational energy     636885.0 (Joules/Mol)
                                  152.21917 (Kcal/Mol)
 Warning -- explicit consideration of  22 degrees of freedom as
           vibrations may cause significant error
 Vibrational temperatures:     44.54    54.87    76.37   108.04   154.20
          (Kelvin)            195.76   209.43   309.82   336.14   390.88
                              444.13   446.78   473.84   598.64   599.04
                              603.88   667.55   685.53   707.69   760.18
                              772.64   875.09   908.39   909.29   967.33
                             1007.14  1008.48  1013.85  1014.92  1036.24
                             1059.34  1123.75  1125.38  1213.16  1221.06
                             1225.52  1228.89  1251.36  1320.44  1321.04
                             1347.08  1413.14  1413.35  1427.18  1427.77
                             1447.23  1451.37  1480.45  1506.36  1513.57
                             1569.05  1570.59  1677.69  1681.93  1686.65
                             1715.12  1717.09  1769.03  1794.80  1798.92
                             1820.47  1878.57  1889.68  1891.86  1937.72
                             1938.09  2006.31  2070.38  2094.66  2116.36
                             2128.92  2177.35  2178.67  2289.32  2294.83
                             2307.57  2331.61  2337.34  4491.27  4496.06
                             4528.22  4528.34  4537.66  4537.68  4561.55
                             4561.61  4573.06  4573.20  4620.97  4620.98

 Zero-point correction=                           0.242577 (Hartree/Particle)
 Thermal correction to Energy=                    0.257985
 Thermal correction to Enthalpy=                  0.258929
 Thermal correction to Gibbs Free Energy=         0.198500
 Sum of electronic and zero-point Energies=           -843.811010
 Sum of electronic and thermal Energies=              -843.795601
 Sum of electronic and thermal Enthalpies=            -843.794657
 Sum of electronic and thermal Free Energies=         -843.855087

                     E (Thermal)             CV                S
                      KCal/Mol        Cal/Mol-Kelvin    Cal/Mol-Kelvin
 Total                  161.888             61.939            127.185
 Electronic               0.000              0.000              0.000
 Translational            0.889              2.981             42.567
 Rotational               0.889              2.981             33.871
 Vibrational            160.111             55.977             50.747
 Vibration     1          0.594              1.984              5.767
 Vibration     2          0.594              1.982              5.354
 Vibration     3          0.596              1.976              4.699
 Vibration     4          0.599              1.966              4.015
 Vibration     5          0.606              1.943              3.319
 Vibration     6          0.614              1.917              2.859
 Vibration     7          0.617              1.907              2.729
 Vibration     8          0.645              1.818              1.998
 Vibration     9          0.654              1.789              1.851
 Vibration    10          0.675              1.725              1.586
 Vibration    11          0.698              1.657              1.369
 Vibration    12          0.699              1.654              1.360
 Vibration    13          0.712              1.617              1.263
 Vibration    14          0.779              1.435              0.905
 Vibration    15          0.780              1.435              0.904
 Vibration    16          0.782              1.427              0.893
 Vibration    17          0.822              1.330              0.755
 Vibration    18          0.833              1.302              0.720
 Vibration    19          0.848              1.268              0.679
 Vibration    20          0.883              1.187              0.591
 Vibration    21          0.892              1.168              0.572
 Vibration    22          0.967              1.014              0.436

 Optimization completed.
    -- Stationary point found.
 Normal termination of Gaussian 16 at Sat Feb 10 14:16:46 2024.
