 Q-Chem 5.4, Q-Chem, Inc., Pleasanton, CA (2021)
 Q-Chem 5.4.0 for Intel X86 EM64T Linux

User input:
--------------------------------------------------------------
$molecule
0 1
C                 -2.0354440000      3.0102280000      0.5322580000
C                 -2.7647160000      2.3199090000      1.4954690000
C                 -2.3086120000      1.0867450000      1.9648750000
C                 -0.8479520000      2.4638110000      0.0395770000
C                 -0.3865980000      1.2233060000      0.5096540000
C                 -1.1244690000      0.5394640000      1.4742480000
C                 -0.0641050000      3.1822750000     -0.9814950000
C                  1.1984350000      2.5571580000     -1.4701710000
C                  1.6589580000      1.3568770000     -1.0393730000
C                  0.8888770000      0.6237360000     -0.0127620000
O                 -0.3854740000      4.2658560000     -1.4565850000
O                  1.2747290000     -0.4577260000      0.4088550000
H                 -2.3689900000      3.9681250000      0.1523100000
H                 -3.6864120000      2.7403950000      1.8806600000
H                 -2.8781760000      0.5505150000      2.7154610000
H                 -0.7566030000     -0.4159150000      1.8272730000
C                  2.9417390000      0.7570500000     -1.5424070000
O                  1.8469380000      3.2884440000     -2.3913400000
H                  3.1161240000      1.0930480000     -2.5677970000
H                  2.8348080000     -0.3304370000     -1.5531530000
H                  1.3040050000      4.0872030000     -2.5330920000
C                  4.1592780000      1.1313140000     -0.6698780000
C                  5.4626720000      0.5109590000     -1.1833080000
C                  6.6848360000      0.8766210000     -0.3334930000
H                  3.9760080000      0.8012310000      0.3581380000
H                  4.2583480000      2.2223490000     -0.6411750000
H                  5.6328940000      0.8311430000     -2.2193560000
H                  5.3553430000     -0.5807240000     -1.2139130000
H                  6.5137690000      0.5558790000      0.7021290000
H                  6.7885600000      1.9689180000     -0.3003500000
C                  7.9925330000      0.2606030000     -0.8438230000
C                  9.2155200000      0.6263510000      0.0048460000
C                 10.5236990000      0.0102750000     -0.5039720000
C                 11.7468940000      0.3773750000      0.3439100000
C                 13.0552720000     -0.2384250000     -0.1641650000
C                 14.2791950000      0.1290010000      0.6825800000
C                 15.5814120000     -0.4907310000      0.1671070000
H                  8.1627210000      0.5804480000     -1.8800770000
H                  7.8887320000     -0.8316870000     -0.8767450000
H                  9.0447330000      0.3071560000      1.0411980000
H                  9.3191620000      1.7187660000      0.0375090000
H                 10.6939470000      0.3285350000     -1.5407360000
H                 10.4204490000     -1.0821690000     -0.5356190000
H                 11.5765700000      0.0593390000      1.3807510000
H                 11.8500920000      1.4698940000      0.3753590000
H                 13.2264060000      0.0788690000     -1.2012610000
H                 12.9535000000     -1.3312160000     -0.1950420000
H                 14.1090740000     -0.1885070000      1.7186470000
H                 14.3816780000      1.2206860000      0.7130820000
H                 15.5228100000     -1.5838180000      0.1580260000
H                 16.4336100000     -0.2095660000      0.7922320000
H                 15.7975210000     -0.1639480000     -0.8550850000
$end
$rem
MAX_SCF_CYCLES=200
BASIS  =  6-311++G(d,p)
GUI  =  2
JOB_TYPE  =  SP
THRESH = 14
SCF_CONVERGENCE  = 8
METHOD  =  B3LYP
SOLVENT_METHOD = COSMO
$end
$solvent
dielectric 37.219
opticaldielectric 1.43
$end

--------------------------------------------------------------

             Standard Nuclear Orientation (Angstroms)
    I     Atom           X                Y                Z
 ----------------------------------------------------------------
    1      C       6.7881041277    -0.0029689209     1.0717979477
    2      C       7.4102194713     1.2410370479     1.1114848592
    3      C       6.7736212483     2.3571836100     0.5655674139
    4      C       5.5267593308    -0.1278481098     0.4845519623
    5      C       4.8838498011     0.9931089588    -0.0657162824
    6      C       5.5154690793     2.2347307745    -0.0213605317
    7      C       4.8545848203    -1.4388832940     0.4339274520
    8      C       3.5070125186    -1.5163800717    -0.1998121549
    9      C       2.8707962399    -0.4511326570    -0.7464561173
   10      C       3.5271556726     0.8723509585    -0.7013558694
   11      O       5.3349980586    -2.4741732054     0.8817156226
   12      O       2.9829248760     1.8600066410    -1.1752248502
   13      H       7.2619787617    -0.8834385596     1.4882065524
   14      H       8.3887023020     1.3424291627     1.5664519878
   15      H       7.2599298924     3.3255858741     0.5975996457
   16      H       5.0078548619     3.0900881856    -0.4496041351
   17      C       1.5069997764    -0.5579036961    -1.3685669437
   18      O       2.9713429096    -2.7479927359    -0.1910945503
   19      H       1.3781361091    -1.5630093914    -1.7783060473
   20      H       1.4452626441     0.1570911415    -2.1926716695
   21      H       3.6295392086    -3.3256265876     0.2401856109
   22      C       0.3685965517    -0.2664054183    -0.3671437235
   23      C      -1.0188086457    -0.3694873419    -1.0088348839
   24      C      -2.1632878387    -0.0898103718    -0.0282599278
   25      H       0.5071702817     0.7376430876     0.0476375383
   26      H       0.4387912015    -0.9695194292     0.4705313312
   27      H      -1.1460777001    -1.3718126033    -1.4378284032
   28      H      -1.0809578896     0.3334190381    -1.8492443347
   29      H      -2.0352731461     0.9126425794     0.3999369837
   30      H      -2.0974617440    -0.7908720008     0.8138501484
   31      C      -3.5542524903    -0.1938255458    -0.6641722728
   32      C      -4.6995408507     0.0848575889     0.3158063776
   33      C      -6.0909785028    -0.0180331414    -0.3190892428
   34      C      -7.2362707145     0.2591543159     0.6613928668
   35      C      -8.6278565499     0.1566201891     0.0272174559
   36      C      -9.7738270677     0.4326723626     1.0072752298
   37      C     -11.1599899121     0.3277645727     0.3645496235
   38      H      -3.6815417621    -1.1960796698    -1.0935570002
   39      H      -3.6199996488     0.5074044403    -1.5061400677
   40      H      -4.5715589413     1.0868165661     0.7456644405
   41      H      -4.6336194440    -0.6166330942     1.1576758791
   42      H      -6.2185750081    -1.0196362011    -0.7499765173
   43      H      -6.1572835145     0.6842000473    -1.1602599641
   44      H      -7.1085640353     1.2606755318     1.0924876125
   45      H      -7.1699043785    -0.4432713681     1.5024816255
   46      H      -8.7564797651    -0.8446834382    -0.4044972140
   47      H      -8.6956691050     0.8595158234    -0.8135216733
   48      H      -9.6462459638     1.4332482036     1.4382721690
   49      H      -9.7068901960    -0.2698474979     1.8470338721
   50      H     -11.2703272343     1.0430398453    -0.4567681033
   51      H     -11.9537275004     0.5300029399     1.0892266121
   52      H     -11.3314714335    -0.6729090835    -0.0448560866
 ----------------------------------------------------------------

   15   -1043.0932215592      5.59e-09  Convergence criterion met
 Total energy in the final basis set =    -1043.0932215592
   10   -1043.1078647636      7.86e-09  Convergence criterion met
 Total energy in the final basis set =    -1043.1078647636

                    Orbital Energies (a.u.)
 --------------------------------------------------------------

 Alpha MOs
 -- Occupied --
-19.1782 -19.1501 -19.1303 -10.2941 -10.2817 -10.2672 -10.2104 -10.2092
-10.2035 -10.2003 -10.1981 -10.1965 -10.1963 -10.1750 -10.1660 -10.1598
-10.1586 -10.1579 -10.1570 -10.1566 -10.1565 -10.1563 -10.1562 -10.1521
 -1.1084  -1.0677  -1.0641  -0.8922  -0.8437  -0.8114  -0.8015  -0.7876
 -0.7796  -0.7698  -0.7456  -0.7176  -0.6949  -0.6733  -0.6544  -0.6398
 -0.6156  -0.6043  -0.5900  -0.5769  -0.5735  -0.5711  -0.5689  -0.5425
 -0.5185  -0.4976  -0.4837  -0.4781  -0.4727  -0.4704  -0.4688  -0.4564
 -0.4518  -0.4456  -0.4371  -0.4303  -0.4261  -0.4244  -0.4216  -0.4113
 -0.4084  -0.3997  -0.3983  -0.3867  -0.3795  -0.3782  -0.3759  -0.3701
 -0.3689  -0.3539  -0.3476  -0.3391  -0.3348  -0.3313  -0.3255  -0.3219
 -0.3202  -0.3175  -0.3167  -0.3047  -0.2975  -0.2894  -0.2800  -0.2798
 -0.2562

          Ground-State Mulliken Net Atomic Charges

     Atom                 Charge (a.u.)
  ----------------------------------------
      1 C                     0.124272
      2 C                    -0.399470
      3 C                    -0.421709
      4 C                     0.560509
      5 C                    -0.157466
      6 C                     0.132998
      7 C                    -0.799700
      8 C                    -0.450374
      9 C                     1.914328
     10 C                    -0.735799
     11 O                    -0.332817
     12 O                    -0.298915
     13 H                     0.205846
     14 H                     0.230275
     15 H                     0.226066
     16 H                     0.205196
     17 C                    -0.398855
     18 O                    -0.238260
     19 H                     0.240890
     20 H                     0.226049
     21 H                     0.324493
     22 C                    -0.890094
     23 C                    -0.347316
     24 C                    -0.046426
     25 H                     0.185314
     26 H                     0.183087
     27 H                     0.124523
     28 H                     0.127768
     29 H                     0.133460
     30 H                     0.133381
     31 C                     0.015748
     32 C                     0.042699
     33 C                    -0.052232
     34 C                    -0.311375
     35 C                    -0.500054
     36 C                    -0.298524
     37 C                    -0.709419
     38 H                     0.138018
     39 H                     0.138234
     40 H                     0.134529
     41 H                     0.134665
     42 H                     0.133635
     43 H                     0.133534
     44 H                     0.132186
     45 H                     0.131680
     46 H                     0.128964
     47 H                     0.128869
     48 H                     0.136258
     49 H                     0.136036
     50 H                     0.145300
     51 H                     0.154636
     52 H                     0.145360
  ----------------------------------------
  Sum of atomic charges =     0.000000

                    Cartesian Multipole Moments
 -----------------------------------------------------------------
    Charge (ESU x 10^10)
                -0.0000
    Dipole Moment (Debye)
         X       2.7482      Y       0.5084      Z       1.4872
       Tot       3.1659
    Quadrupole Moments (Debye-Ang)
        XX    -117.6789     XY      13.1455     YY    -148.9413
        XZ       7.0671     YZ       4.8362     ZZ    -151.2740

 Total job time:  368.77s(wall), 2864.71s(cpu)
        *  Thank you very much for using Q-Chem.  Have a nice day.  *
