 Gaussian 16, Revision A.03,
 Gaussian 16:  ES64L-G16RevA.03 25-Dec-2016

 ----------------------------------------------------------------
 #P UB3LYP/6-311++G(d,p) SCRF=(PCM,Solvent=n,n-DiMethylFormamide)
 ----------------------------------------------------------------

 -------
 Reduced
 -------
 Symbolic Z-matrix:
 Charge = -2 Multiplicity = 1

                         Standard orientation:
 ---------------------------------------------------------------------
 Center     Atomic      Atomic             Coordinates (Angstroms)
 Number     Number       Type             X           Y           Z
 ---------------------------------------------------------------------
      1          6           0       -4.765128   -0.837759    0.014607
      2          6           0       -3.373956   -0.249815    0.009823
      3          6           0       -3.201144    1.168017   -0.001290
      4          6           0       -1.936606    1.716976   -0.014055
      5          6           0       -0.763173    0.921931   -0.004465
      6          6           0        0.533829    1.568866    0.002382
      7          8           0        0.675430    2.844072    0.003758
      8          6           0        1.661504    0.657464    0.000361
      9          6           0        2.978115    1.183331    0.002951
     10          6           0        4.096363    0.374267    0.005081
     11          6           0        3.938419   -1.040862    0.006218
     12          6           0        2.670288   -1.585100    0.001689
     13          6           0        1.500262   -0.783338   -0.004985
     14          6           0        0.201104   -1.427796   -0.007614
     15          8           0        0.064254   -2.703978   -0.004088
     16          6           0       -0.924462   -0.515926   -0.009607
     17          6           0       -2.244473   -1.042426   -0.006365
     18          1           0       -5.358456   -0.516966   -0.860777
     19          1           0       -5.339018   -0.531056    0.897610
     20          1           0       -4.735903   -1.931887    0.004830
     21          1           0       -4.078449    1.814000    0.005056
     22          1           0       -1.791304    2.793010   -0.020130
     23          1           0        3.063688    2.265858    0.003350
     24          1           0        5.092852    0.813058    0.006686
     25          1           0        4.814071   -1.688074    0.009778
     26          1           0        2.516161   -2.659946    0.001998
     27          1           0       -2.326757   -2.125724   -0.014148
 ---------------------------------------------------------------------

 SCF Done:  E(UB3LYP) =  -728.515240530     A.U. after   17 cycles

 The electronic state is 1-A.
 Alpha  occ. eigenvalues --  -19.01821 -19.01634 -10.17139 -10.16939 -10.15475
 Alpha  occ. eigenvalues --  -10.15374 -10.14731 -10.14674 -10.14475 -10.14413
 Alpha  occ. eigenvalues --  -10.14409 -10.14359 -10.13926 -10.13286 -10.13247
 Alpha  occ. eigenvalues --  -10.13214 -10.13168  -0.93792  -0.93418  -0.82680
 Alpha  occ. eigenvalues --   -0.81964  -0.75863  -0.73006  -0.72026  -0.71043
 Alpha  occ. eigenvalues --   -0.66955  -0.62738  -0.60126  -0.57537  -0.55536
 Alpha  occ. eigenvalues --   -0.52194  -0.50100  -0.48559  -0.43995  -0.43499
 Alpha  occ. eigenvalues --   -0.42631  -0.41514  -0.40396  -0.39629  -0.39576
 Alpha  occ. eigenvalues --   -0.38209  -0.37532  -0.36586  -0.36361  -0.35384
 Alpha  occ. eigenvalues --   -0.34652  -0.33209  -0.32323  -0.31376  -0.31114
 Alpha  occ. eigenvalues --   -0.29537  -0.29501  -0.23198  -0.22246  -0.22080
 Alpha  occ. eigenvalues --   -0.20950  -0.19996  -0.19223  -0.10171
 Alpha virt. eigenvalues --   -0.02400  -0.00056   0.00404   0.00610   0.01497
 Alpha virt. eigenvalues --    0.02189   0.02208   0.02548   0.03880   0.04229
 Alpha virt. eigenvalues --    0.04496   0.04966   0.05394   0.06409   0.06623

  Beta  occ. eigenvalues --  -19.01821 -19.01634 -10.17139 -10.16939 -10.15475
  Beta  occ. eigenvalues --  -10.15374 -10.14731 -10.14674 -10.14475 -10.14413
  Beta  occ. eigenvalues --  -10.14409 -10.14359 -10.13926 -10.13286 -10.13247
  Beta  occ. eigenvalues --  -10.13214 -10.13168  -0.93792  -0.93418  -0.82680
  Beta  occ. eigenvalues --   -0.81964  -0.75863  -0.73006  -0.72026  -0.71043
  Beta  occ. eigenvalues --   -0.66955  -0.62738  -0.60126  -0.57537  -0.55536
  Beta  occ. eigenvalues --   -0.52194  -0.50100  -0.48559  -0.43995  -0.43499
  Beta  occ. eigenvalues --   -0.42631  -0.41514  -0.40396  -0.39629  -0.39576
  Beta  occ. eigenvalues --   -0.38209  -0.37532  -0.36586  -0.36361  -0.35384
  Beta  occ. eigenvalues --   -0.34652  -0.33209  -0.32323  -0.31376  -0.31114
  Beta  occ. eigenvalues --   -0.29537  -0.29501  -0.23198  -0.22246  -0.22080
  Beta  occ. eigenvalues --   -0.20950  -0.19996  -0.19223  -0.10171
  Beta virt. eigenvalues --   -0.02400  -0.00056   0.00404   0.00610   0.01497
  Beta virt. eigenvalues --    0.02189   0.02208   0.02548   0.03880   0.04229
  Beta virt. eigenvalues --    0.04496   0.04966   0.05394   0.06409   0.06623

 Mulliken charges and spin densities:
               1          2
     1  C   -0.410889  -0.000000
     2  C    0.311725   0.000000
     3  C   -0.501928  -0.000000
     4  C    0.011160  -0.000000
     5  C    0.107719  -0.000000
     6  C   -0.579264  -0.000000
     7  O   -0.652998   0.000000
     8  C    0.235854   0.000000
     9  C   -0.006595   0.000000
    10  C   -0.504399  -0.000000
    11  C   -0.513471  -0.000000
    12  C   -0.041792   0.000000
    13  C    0.412554  -0.000000
    14  C   -0.522495   0.000000
    15  O   -0.654740  -0.000000
    16  C    0.142713  -0.000000
    17  C   -0.287843   0.000000
    18  H    0.146659  -0.000000
    19  H    0.148984  -0.000000
    20  H    0.156367   0.000000
    21  H    0.154590   0.000000
    22  H    0.141540   0.000000
    23  H    0.141629   0.000000
    24  H    0.155411  -0.000000
    25  H    0.156117   0.000000
    26  H    0.143382  -0.000000
    27  H    0.110011  -0.000000
 Sum of Mulliken charges =  -2.00000  -0.00000

 Dipole moment (field-independent basis, Debye):
    X=             -4.1033    Y=             -0.5786    Z=              0.0137  Tot=              4.1439
 Quadrupole moment (field-independent basis, Debye-Ang):
   XX=           -126.4100   YY=           -161.8452   ZZ=           -112.3907
   XY=             -4.1462   XZ=             -0.0652   YZ=             -0.0650

 Normal termination of Gaussian 16 at Sun Jan 14 01:22:30 2024.
