 Q-Chem 5.4, Q-Chem, Inc., Pleasanton, CA (2021)
 Q-Chem 5.4.0 for Intel X86 EM64T Linux

User input:
--------------------------------------------------------------
$molecule
-1 2
C                 -1.6749410000      0.8164670000      1.6355490000
C                 -2.8573130000      1.1188710000      0.8066850000
C                 -2.8061420000      1.0077620000     -0.5666230000
C                 -1.6353210000      0.6320280000     -1.3004610000
C                 -0.4527760000      0.3298840000     -0.4715910000
C                 -0.5039970000      0.4410010000      0.9017380000
O                 -1.5401020000      0.5588910000     -2.5537960000
O                 -1.7701690000      0.8890950000      2.8889030000
Br                 1.0869550000      0.0641780000      1.9371720000
Br                -4.3971120000      1.3841090000     -1.6021220000
N                  0.6491130000     -0.0888010000     -1.1907460000
N                 -3.9595300000      1.5383170000      1.5258500000
H                  0.5492530000      0.1169040000     -2.1783310000
H                  1.5527680000      0.0740250000     -0.7734190000
H                 -3.8590830000      1.3310920000      2.5132220000
H                 -4.8628720000      1.3704670000      1.1095940000
$end

$rem
BASIS  =  6-311++G(d,p)
GUI  =  2
JOB_TYPE  =  SP
METHOD  =  B3LYP
SCF_CONVERGENCE  = 8
SOLVENT_METHOD = sm12
$end

$smx
solvent dimethylformamide
charges CM5
$end

--------------------------------------------------------------

             Standard Nuclear Orientation (Angstroms)
    I     Atom           X                Y                Z
 ----------------------------------------------------------------
    1      C      -1.6749410000     0.8164670000     1.6355490000
    2      C      -2.8573130000     1.1188710000     0.8066850000
    3      C      -2.8061420000     1.0077620000    -0.5666230000
    4      C      -1.6353210000     0.6320280000    -1.3004610000
    5      C      -0.4527760000     0.3298840000    -0.4715910000
    6      C      -0.5039970000     0.4410010000     0.9017380000
    7      O      -1.5401020000     0.5588910000    -2.5537960000
    8      O      -1.7701690000     0.8890950000     2.8889030000
    9      Br      1.0869550000     0.0641780000     1.9371720000
   10      Br     -4.3971120000     1.3841090000    -1.6021220000
   11      N       0.6491130000    -0.0888010000    -1.1907460000
   12      N      -3.9595300000     1.5383170000     1.5258500000
   13      H       0.5492530000     0.1169040000    -2.1783310000
   14      H       1.5527680000     0.0740250000    -0.7734190000
   15      H      -3.8590830000     1.3310920000     2.5132220000
   16      H      -4.8628720000     1.3704670000     1.1095940000
 ----------------------------------------------------------------

   17   -5639.5014615971      6.17e-09  Convergence criterion met
 Total energy in the final basis set =    -5639.5786364722

                    Orbital Energies (a.u.)
 --------------------------------------------------------------

 Alpha MOs
 -- Occupied --
********-482.8215 -62.4740 -62.4740 -56.2944 -56.2944 -56.2908 -56.2907
-56.2906 -56.2906 -19.0772 -19.0772 -14.3227 -14.3227 -10.2305 -10.2305
-10.2181 -10.2181 -10.2052 -10.2051  -8.6825  -8.6825  -6.5135  -6.5134
 -6.5013  -6.5013  -6.5009  -6.5009  -2.6246  -2.6245  -2.6209  -2.6208
 -2.6205  -2.6205  -2.6111  -2.6111  -2.6110  -2.6110  -1.0089  -1.0052
 -0.9210  -0.9202  -0.8284  -0.8027  -0.7661  -0.7001  -0.6776  -0.5961
 -0.5846  -0.5557  -0.4928  -0.4899  -0.4867  -0.4460  -0.4328  -0.4118
 -0.4073  -0.3990  -0.3872  -0.3660  -0.3565  -0.3245  -0.3010  -0.2941
 -0.2849  -0.2847  -0.2528  -0.2455  -0.2450  -0.2071  -0.1511

 Beta MOs
 -- Occupied --
********-482.8215 -62.4740 -62.4740 -56.2944 -56.2944 -56.2908 -56.2908
-56.2906 -56.2906 -19.0713 -19.0713 -14.3215 -14.3214 -10.2287 -10.2287
-10.2157 -10.2156 -10.2058 -10.2058  -8.6826  -8.6825  -6.5135  -6.5135
 -6.5013  -6.5013  -6.5009  -6.5009  -2.6246  -2.6246  -2.6209  -2.6209
 -2.6205  -2.6205  -2.6111  -2.6111  -2.6111  -2.6110  -0.9993  -0.9951
 -0.9168  -0.9167  -0.8257  -0.8022  -0.7637  -0.6969  -0.6688  -0.5927
 -0.5809  -0.5541  -0.4901  -0.4884  -0.4835  -0.4436  -0.4188  -0.4064
 -0.4029  -0.3973  -0.3670  -0.3598  -0.3512  -0.3043  -0.2984  -0.2881
 -0.2848  -0.2829  -0.2472  -0.2396  -0.2270  -0.2012

          Ground-State Mulliken Net Atomic Charges

     Atom                 Charge (a.u.)    Spin (a.u.)
  --------------------------------------------------------
      1 C                    -1.459291       0.109738
      2 C                    -1.945872       0.140941
      3 C                     2.676920      -0.028232
      4 C                    -1.457425       0.109923
      5 C                    -1.949370       0.140229
      6 C                     2.684601      -0.028080
      7 O                    -0.353195       0.215348
      8 O                    -0.353126       0.215162
      9 Br                    0.100551       0.000757
     10 Br                    0.100164       0.000776
     11 N                    -0.084764       0.063785
     12 N                    -0.085635       0.063479
     13 H                     0.277107      -0.002358
     14 H                     0.286308       0.000409
     15 H                     0.276931      -0.002339
     16 H                     0.286095       0.000464
  --------------------------------------------------------
  Sum of atomic charges =    -1.000000

                    Cartesian Multipole Moments
 -----------------------------------------------------------------
    Charge (ESU x 10^10)
                -4.8032
    Dipole Moment (Debye)
         X       7.9589      Y      -3.4884      Z      -0.8096
       Tot       8.7275
    Quadrupole Moments (Debye-Ang)
        XX    -113.1386     XY      10.3680     YY    -106.5031
        XZ      -9.4167     YZ      -1.9750     ZZ    -131.6557

 Total job time:  238.72s(wall), 1690.48s(cpu)
        *  Thank you very much for using Q-Chem.  Have a nice day.  *
