 Q-Chem 5.4, Q-Chem, Inc., Pleasanton, CA (2021)
 Q-Chem 5.4.0 for Intel X86 EM64T Linux

User input:
--------------------------------------------------------------
$molecule
-2 1
C                  4.7341800000      0.1560290000      0.9862550000
C                  3.9477820000     -0.6123910000     -0.0964270000
C                  4.6128890000     -0.4263970000     -1.4742580000
C                  2.4685340000     -0.2499700000     -0.1052420000
C                  2.0282210000      1.0450450000     -0.4971360000
C                  0.6792390000      1.3510470000     -0.5126180000
C                 -0.3234170000      0.4176460000     -0.1572320000
C                  0.1097140000     -0.8958160000      0.2249600000
C                  1.5047260000     -1.1742770000      0.2424930000
C                 -0.8104960000     -1.9566530000      0.6084870000
O                 -0.3890160000     -3.1055450000      0.9243490000
C                 -2.2612250000     -1.6410690000      0.6348500000
O                 -3.0865770000     -2.5306660000      0.9945370000
C                 -2.6901790000     -0.2974250000      0.2322710000
C                 -4.0905920000      0.0580980000      0.2144200000
C                 -5.1928770000     -0.9149930000      0.5839070000
C                 -4.4857740000      1.3326050000     -0.1584320000
C                 -3.5491360000      2.3226890000     -0.5309410000
C                 -2.2063620000      2.0055710000     -0.5252700000
C                 -1.7345700000      0.7258790000     -0.1562320000
H                  4.2956500000     -0.0121390000      1.9743980000
H                  4.7167780000      1.2350710000      0.7938370000
H                  5.7859120000     -0.1584600000      1.0170070000
H                  4.0073590000     -1.6783900000      0.1543120000
H                  4.0876450000     -1.0059640000     -2.2396750000
H                  5.6622030000     -0.7443470000     -1.4577230000
H                  4.5952070000      0.6229580000     -1.7861920000
H                  2.7490180000      1.8106940000     -0.7716020000
H                  0.3956830000      2.3534500000     -0.8167550000
H                  1.7817170000     -2.1807010000      0.5425400000
H                 -5.0826170000     -1.2839800000      1.6051550000
H                 -6.1674520000     -0.4174900000      0.4751430000
H                 -5.1683470000     -1.8095840000     -0.0409780000
H                 -5.5478170000      1.5712810000     -0.1639790000
H                 -3.8816580000      3.3167990000     -0.8196240000
H                 -1.4943450000      2.7713940000     -0.8120580000
$end
$rem
MAX_SCF_CYCLES=200
BASIS  =  6-311++G(d,p)
GUI  =  2
JOB_TYPE  =  SP
METHOD  =  B3LYP
SOLVENT_METHOD = PCM
$end
$pcm
theory = CPCM
$end
$solvent
dielectric 37.219
opticaldielectric 1.43
$end

--------------------------------------------------------------

             Standard Nuclear Orientation (Angstroms)
    I     Atom           X                Y                Z
 ----------------------------------------------------------------
    1      C       4.7341800000     0.1560290000     0.9862550000
    2      C       3.9477820000    -0.6123910000    -0.0964270000
    3      C       4.6128890000    -0.4263970000    -1.4742580000
    4      C       2.4685340000    -0.2499700000    -0.1052420000
    5      C       2.0282210000     1.0450450000    -0.4971360000
    6      C       0.6792390000     1.3510470000    -0.5126180000
    7      C      -0.3234170000     0.4176460000    -0.1572320000
    8      C       0.1097140000    -0.8958160000     0.2249600000
    9      C       1.5047260000    -1.1742770000     0.2424930000
   10      C      -0.8104960000    -1.9566530000     0.6084870000
   11      O      -0.3890160000    -3.1055450000     0.9243490000
   12      C      -2.2612250000    -1.6410690000     0.6348500000
   13      O      -3.0865770000    -2.5306660000     0.9945370000
   14      C      -2.6901790000    -0.2974250000     0.2322710000
   15      C      -4.0905920000     0.0580980000     0.2144200000
   16      C      -5.1928770000    -0.9149930000     0.5839070000
   17      C      -4.4857740000     1.3326050000    -0.1584320000
   18      C      -3.5491360000     2.3226890000    -0.5309410000
   19      C      -2.2063620000     2.0055710000    -0.5252700000
   20      C      -1.7345700000     0.7258790000    -0.1562320000
   21      H       4.2956500000    -0.0121390000     1.9743980000
   22      H       4.7167780000     1.2350710000     0.7938370000
   23      H       5.7859120000    -0.1584600000     1.0170070000
   24      H       4.0073590000    -1.6783900000     0.1543120000
   25      H       4.0876450000    -1.0059640000    -2.2396750000
   26      H       5.6622030000    -0.7443470000    -1.4577230000
   27      H       4.5952070000     0.6229580000    -1.7861920000
   28      H       2.7490180000     1.8106940000    -0.7716020000
   29      H       0.3956830000     2.3534500000    -0.8167550000
   30      H       1.7817170000    -2.1807010000     0.5425400000
   31      H      -5.0826170000    -1.2839800000     1.6051550000
   32      H      -6.1674520000    -0.4174900000     0.4751430000
   33      H      -5.1683470000    -1.8095840000    -0.0409780000
   34      H      -5.5478170000     1.5712810000    -0.1639790000
   35      H      -3.8816580000     3.3167990000    -0.8196240000
   36      H      -1.4943450000     2.7713940000    -0.8120580000
 ----------------------------------------------------------------

    9    -846.4849322058      4.21e-06  Convergence criterion met
 Total energy in the final basis set =     -846.4849322058

                    Orbital Energies (a.u.)
 --------------------------------------------------------------

 Alpha MOs
 -- Occupied --
-19.0197 -19.0146 -10.1669 -10.1647 -10.1626 -10.1561 -10.1524 -10.1496
-10.1489 -10.1475 -10.1472 -10.1463 -10.1456 -10.1436 -10.1431 -10.1418
-10.1414 -10.1375 -10.1363 -10.1346  -0.9570  -0.9273  -0.8410  -0.8224
 -0.7868  -0.7499  -0.7401  -0.7210  -0.6891  -0.6725  -0.6665  -0.6325
 -0.6044  -0.5793  -0.5633  -0.5484  -0.5324  -0.4908  -0.4742  -0.4578
 -0.4400  -0.4354  -0.4295  -0.4118  -0.4064  -0.4027  -0.3967  -0.3948
 -0.3874  -0.3756  -0.3705  -0.3687  -0.3660  -0.3645  -0.3462  -0.3364
 -0.3350  -0.3324  -0.3217  -0.3200  -0.3169  -0.3019  -0.2964  -0.2843
 -0.2567  -0.2285  -0.2204  -0.2076  -0.1903  -0.1804  -0.1051

          Ground-State Mulliken Net Atomic Charges

     Atom                 Charge (a.u.)
  ----------------------------------------
      1 C                    -0.713103
      2 C                     0.125039
      3 C                    -0.681385
      4 C                     0.599424
      5 C                    -0.855998
      6 C                    -0.270942
      7 C                     0.383247
      8 C                     0.734556
      9 C                    -0.427691
     10 C                    -0.635744
     11 O                    -0.686065
     12 C                    -0.772384
     13 O                    -0.640901
     14 C                     0.458299
     15 C                     0.480870
     16 C                    -0.361679
     17 C                    -0.483258
     18 C                    -0.661998
     19 C                    -0.405289
     20 C                     0.483075
     21 H                     0.141859
     22 H                     0.160111
     23 H                     0.154958
     24 H                     0.188242
     25 H                     0.139648
     26 H                     0.155744
     27 H                     0.155979
     28 H                     0.183210
     29 H                     0.104493
     30 H                     0.133654
     31 H                     0.146200
     32 H                     0.133010
     33 H                     0.145592
     34 H                     0.111882
     35 H                     0.189381
     36 H                     0.087964
  ----------------------------------------
  Sum of atomic charges =    -2.000000

                    Cartesian Multipole Moments
 -----------------------------------------------------------------
    Charge (ESU x 10^10)
                -9.6064
    Dipole Moment (Debye)
         X      14.7263      Y      17.3352      Z      -6.0358
       Tot      23.5330
    Quadrupole Moments (Debye-Ang)
        XX    -174.7383     XY     -25.2355     YY    -186.0294
        XZ      10.4101     YZ      17.5715     ZZ    -139.0110

 Total job time:  100.79s(wall), 569.58s(cpu)
        *  Thank you very much for using Q-Chem.  Have a nice day.  *
