 Gaussian 16, Revision A.03,
 Gaussian 16:  ES64L-G16RevA.03 25-Dec-2016

 ----------------------------------------------------------------------
 #P UB3LYP/6-311++G(d,p) nosym opt freq SCRF=(PCM,Solvent=n,n-DiMethylF
 ormamide)
 ----------------------------------------------------------------------

 --------
 Oxidized
 --------
 Symbolic Z-matrix:
 Charge = -2 Multiplicity = 1

 SCF Done:  E(UB3LYP) =  -1935.89476762     A.U. after   15 cycles
 SCF Done:  E(UB3LYP) =  -1935.89575827     A.U. after   13 cycles
 SCF Done:  E(UB3LYP) =  -1935.89623186     A.U. after   12 cycles
 SCF Done:  E(UB3LYP) =  -1935.89625704     A.U. after   11 cycles
 SCF Done:  E(UB3LYP) =  -1935.89621437     A.U. after   12 cycles
 SCF Done:  E(UB3LYP) =  -1935.89626950     A.U. after   12 cycles
 SCF Done:  E(UB3LYP) =  -1935.89627505     A.U. after   10 cycles
 SCF Done:  E(UB3LYP) =  -1935.89627688     A.U. after   11 cycles
 SCF Done:  E(UB3LYP) =  -1935.89627787     A.U. after   10 cycles
 SCF Done:  E(UB3LYP) =  -1935.89627851     A.U. after   11 cycles
 SCF Done:  E(UB3LYP) =  -1935.89627869     A.U. after   10 cycles
 SCF Done:  E(UB3LYP) =  -1935.89627873     A.U. after   10 cycles
 Optimization completed.
    -- Stationary point found.
 Normal termination of Gaussian 16 at Sun Feb 11 00:28:02 2024.

 ----------------------------------------------------------------------
 #P Geom=AllCheck Guess=TCheck SCRF=Check GenChk UB3LYP/6-311++G(d,p) F
 req
 ----------------------------------------------------------------------

 Structure from the checkpoint file:  "226.chk"
 --------
 Oxidized
 --------
 Charge = -2 Multiplicity = 1

                          Input orientation:
 ---------------------------------------------------------------------
 Center     Atomic      Atomic             Coordinates (Angstroms)
 Number     Number       Type             X           Y           Z
 ---------------------------------------------------------------------
      1          8           0       -5.613894    1.097756   -1.405714
      2         16           0       -5.359342    0.654277   -0.005897
      3          8           0       -5.267750    1.782996    0.958035
      4          8           0       -6.267320   -0.437931    0.435740
      5          6           0       -3.698575   -0.086352   -0.044319
      6          6           0       -3.553707   -1.453412   -0.290671
      7          6           0       -2.281729   -2.006988   -0.372007
      8          6           0       -1.147929   -1.205146   -0.211436
      9          6           0        0.202882   -1.825870   -0.307463
     10          8           0        0.336532   -3.023144   -0.523639
     11          6           0        1.385312   -0.936907   -0.131987
     12          6           0        2.669021   -1.483698   -0.214997
     13          6           0        3.790031   -0.678011   -0.055323
     14          6           0        3.630663    0.687021    0.191934
     15          6           0        2.361202    1.246009    0.279262
     16          6           0        1.232145    0.439818    0.117257
     17          6           0       -0.119107    1.060836    0.219778
     18          8           0       -0.252884    2.255520    0.444867
     19          6           0       -1.301396    0.171503    0.037272
     20          6           0       -2.581712    0.723913    0.120524
     21         16           0        5.093947    1.757111    0.338996
     22          8           0        5.319234    2.291184   -1.033886
     23          8           0        4.717628    2.808242    1.321442
     24          8           0        6.188463    0.865411    0.807140
     25          1           0       -4.432239   -2.075332   -0.405920
     26          1           0       -2.153423   -3.065547   -0.558718
     27          1           0        2.775918   -2.544387   -0.402893
     28          1           0        4.784688   -1.101679   -0.109777
     29          1           0        2.233729    2.301365    0.480955
     30          1           0       -2.690386    1.781441    0.321443
 ---------------------------------------------------------------------

 SCF Done:  E(UB3LYP) =  -1935.89627873     A.U. after    2 cycles

 Alpha  occ. eigenvalues --  -89.04851 -89.04848 -19.13294 -19.13278 -19.09222
 Alpha  occ. eigenvalues --  -19.09220 -19.09219 -19.09211 -19.09174 -19.09172
 Alpha  occ. eigenvalues --  -10.28551 -10.28521 -10.21813 -10.21811 -10.21282
 Alpha  occ. eigenvalues --  -10.21281 -10.21202 -10.21198 -10.20356 -10.20345
 Alpha  occ. eigenvalues --  -10.20343 -10.20334 -10.20109 -10.20106  -8.10741
 Alpha  occ. eigenvalues --   -8.10738  -6.07005  -6.07002  -6.06997  -6.06994
 Alpha  occ. eigenvalues --   -6.06933  -6.06930  -1.11129  -1.11128  -1.06676
 Alpha  occ. eigenvalues --   -1.06484  -0.97485  -0.97480  -0.97250  -0.97248
 Alpha  occ. eigenvalues --   -0.89974  -0.88884  -0.82127  -0.78542  -0.78538
 Alpha  occ. eigenvalues --   -0.77910  -0.70116  -0.68270  -0.66468  -0.62848
 Alpha  occ. eigenvalues --   -0.61227  -0.59680  -0.58930  -0.55034  -0.54244
 Alpha  occ. eigenvalues --   -0.51202  -0.50238  -0.50047  -0.49073  -0.46358
 Alpha  occ. eigenvalues --   -0.46233  -0.45985  -0.45779  -0.45773  -0.45408
 Alpha  occ. eigenvalues --   -0.45375  -0.45101  -0.44577  -0.44409  -0.42280
 Alpha  occ. eigenvalues --   -0.42045  -0.40794  -0.39909  -0.38068  -0.37691
 Alpha  occ. eigenvalues --   -0.37382  -0.33604  -0.33600  -0.33558  -0.33542
 Alpha  occ. eigenvalues --   -0.31381  -0.31369  -0.30021  -0.29844  -0.29741
 Alpha  occ. eigenvalues --   -0.29722  -0.28875  -0.28490  -0.28253  -0.27629
 Alpha  occ. eigenvalues --   -0.27269  -0.26735  -0.25640  -0.25637
 Alpha virt. eigenvalues --   -0.12178  -0.07915  -0.04522  -0.03108  -0.00284
 Alpha virt. eigenvalues --    0.00687   0.01428   0.02072   0.02261   0.02679
 Alpha virt. eigenvalues --    0.03264   0.03961   0.04385   0.04481   0.04743

  Beta  occ. eigenvalues --  -89.04851 -89.04848 -19.13294 -19.13278 -19.09222
  Beta  occ. eigenvalues --  -19.09220 -19.09219 -19.09211 -19.09174 -19.09172
  Beta  occ. eigenvalues --  -10.28551 -10.28521 -10.21813 -10.21811 -10.21282
  Beta  occ. eigenvalues --  -10.21281 -10.21202 -10.21198 -10.20356 -10.20345
  Beta  occ. eigenvalues --  -10.20343 -10.20334 -10.20109 -10.20106  -8.10741
  Beta  occ. eigenvalues --   -8.10738  -6.07005  -6.07002  -6.06997  -6.06994
  Beta  occ. eigenvalues --   -6.06933  -6.06930  -1.11129  -1.11128  -1.06676
  Beta  occ. eigenvalues --   -1.06484  -0.97485  -0.97480  -0.97250  -0.97248
  Beta  occ. eigenvalues --   -0.89974  -0.88884  -0.82127  -0.78542  -0.78538
  Beta  occ. eigenvalues --   -0.77910  -0.70116  -0.68270  -0.66468  -0.62848
  Beta  occ. eigenvalues --   -0.61227  -0.59680  -0.58930  -0.55034  -0.54244
  Beta  occ. eigenvalues --   -0.51202  -0.50238  -0.50047  -0.49073  -0.46358
  Beta  occ. eigenvalues --   -0.46233  -0.45985  -0.45779  -0.45773  -0.45408
  Beta  occ. eigenvalues --   -0.45375  -0.45101  -0.44577  -0.44409  -0.42280
  Beta  occ. eigenvalues --   -0.42045  -0.40794  -0.39909  -0.38068  -0.37691
  Beta  occ. eigenvalues --   -0.37382  -0.33604  -0.33600  -0.33558  -0.33542
  Beta  occ. eigenvalues --   -0.31381  -0.31369  -0.30021  -0.29844  -0.29741
  Beta  occ. eigenvalues --   -0.29722  -0.28875  -0.28490  -0.28253  -0.27629
  Beta  occ. eigenvalues --   -0.27269  -0.26735  -0.25640  -0.25637
  Beta virt. eigenvalues --   -0.12178  -0.07915  -0.04522  -0.03108  -0.00284
  Beta virt. eigenvalues --    0.00687   0.01428   0.02072   0.02261   0.02679
  Beta virt. eigenvalues --    0.03264   0.03961   0.04385   0.04481   0.04743

 Mulliken charges and spin densities:
               1          2
     1  O   -0.358439  -0.000000
     2  S    0.795638  -0.000000
     3  O   -0.401711  -0.000000
     4  O   -0.401340  -0.000000
     5  C   -0.790757  -0.000000
     6  C   -0.360425  -0.000000
     7  C    0.039883  -0.000000
     8  C    0.441380  -0.000000
     9  C   -0.298992   0.000000
    10  O   -0.262351  -0.000000
    11  C    0.434353  -0.000000
    12  C    0.058543  -0.000000
    13  C   -0.350096   0.000000
    14  C   -0.789789   0.000000
    15  C   -0.126690   0.000000
    16  C    0.298476  -0.000000
    17  C   -0.793916  -0.000000
    18  O   -0.254625   0.000000
    19  C    0.333328   0.000000
    20  C   -0.110110  -0.000000
    21  S    0.798487  -0.000000
    22  O   -0.357669  -0.000000
    23  O   -0.401487  -0.000000
    24  O   -0.401710  -0.000000
    25  H    0.233818   0.000000
    26  H    0.189182  -0.000000
    27  H    0.189130   0.000000
    28  H    0.234534  -0.000000
    29  H    0.206489  -0.000000
    30  H    0.206866  -0.000000
 Sum of Mulliken charges =  -2.00000  -0.00000

 Dipole moment (field-independent basis, Debye):
    X=              1.7736    Y=            -16.1105    Z=             -1.9691  Tot=             16.3270
 Quadrupole moment (field-independent basis, Debye-Ang):
   XX=           -465.5705   YY=           -203.9056   ZZ=           -173.4416
   XY=            -27.8075   XZ=             -9.2841   YZ=             -5.2466

  Exact polarizability: 478.718  11.447 363.131   6.113  30.305 194.537
 Approx polarizability: 478.872   0.767 460.481   3.648  40.784 234.758

                      1                      2                      3
                      A                      A                      A
 Frequencies --     19.3728                26.8516                30.2488
 Red. masses --     10.6425                15.1082                15.9379
 Frc consts  --      0.0024                 0.0064                 0.0086
 IR Inten    --      0.8071                 2.2447                 0.1823

                      4                      5                      6
                      A                      A                      A
 Frequencies --     54.5510                71.0980                73.3702
 Red. masses --      7.2239                10.9006                14.7464
 Frc consts  --      0.0127                 0.0325                 0.0468
 IR Inten    --      0.0752                21.5254                12.2861

                      7                      8                      9
                      A                      A                      A
 Frequencies --    124.6343               124.8190               129.9974
 Red. masses --      5.7744                 5.8531                10.4492
 Frc consts  --      0.0528                 0.0537                 0.1040
 IR Inten    --      1.3765                 1.3810                 4.7053

                     10                     11                     12
                      A                      A                      A
 Frequencies --    168.8187               184.2640               216.7380
 Red. masses --     11.6055                14.4081                 8.9663
 Frc consts  --      0.1949                 0.2882                 0.2482
 IR Inten    --      1.7688                 3.0709                 1.1101

                     13                     14                     15
                      A                      A                      A
 Frequencies --    225.8274               250.6691               270.9299
 Red. masses --     10.3305                13.1391                13.2271
 Frc consts  --      0.3104                 0.4864                 0.5720
 IR Inten    --      1.9176                 5.6903                 0.2727

                     16                     17                     18
                      A                      A                      A
 Frequencies --    309.1300               340.1183               374.3155
 Red. masses --      7.6654                 6.9325                 7.3763
 Frc consts  --      0.4316                 0.4725                 0.6089
 IR Inten    --      1.6190                 1.5499                19.3613

                     19                     20                     21
                      A                      A                      A
 Frequencies --    380.0780               402.5364               409.0638
 Red. masses --      7.4107                10.9908                 3.4644
 Frc consts  --      0.6307                 1.0493                 0.3415
 IR Inten    --      2.6891                77.9247                 0.3548

                     22                     23                     24
                      A                      A                      A
 Frequencies --    425.6632               437.9823               462.8003
 Red. masses --      8.7808                 3.2372                 9.4841
 Frc consts  --      0.9374                 0.3659                 1.1968
 IR Inten    --      1.9235                 0.3514               102.0638

                     25                     26                     27
                      A                      A                      A
 Frequencies --    464.6702               483.8378               492.7014
 Red. masses --     10.1559                10.9695                10.3326
 Frc consts  --      1.2920                 1.5130                 1.4778
 IR Inten    --     19.8661                 0.5613                 2.1604

                     28                     29                     30
                      A                      A                      A
 Frequencies --    513.7768               520.1743               538.8886
 Red. masses --     14.7674                13.0642                 8.8252
 Frc consts  --      2.2967                 2.0827                 1.5100
 IR Inten    --     37.9448                 1.3812               104.4078

                     31                     32                     33
                      A                      A                      A
 Frequencies --    582.4417               598.5358               600.8304
 Red. masses --      6.1739                13.4115                15.3523
 Frc consts  --      1.2340                 2.8308                 3.2653
 IR Inten    --     14.8788               153.6020               421.7369

                     34                     35                     36
                      A                      A                      A
 Frequencies --    657.1341               669.8179               684.4733
 Red. masses --      7.6999                 3.8574                 7.6586
 Frc consts  --      1.9590                 1.0197                 2.1140
 IR Inten    --     84.0171                61.1681                 6.1475

                     37                     38                     39
                      A                      A                      A
 Frequencies --    704.5280               713.3478               732.6108
 Red. masses --      7.0117                 4.7744                 8.3889
 Frc consts  --      2.0506                 1.4314                 2.6528
 IR Inten    --      1.8452                 4.4199                41.2336

                     40                     41                     42
                      A                      A                      A
 Frequencies --    752.2069               799.8114               848.0844
 Red. masses --      5.0465                 4.8530                 7.6018
 Frc consts  --      1.6823                 1.8291                 3.2214
 IR Inten    --     46.1541                 0.0016                 0.1706

                     43                     44                     45
                      A                      A                      A
 Frequencies --    858.6509               878.6740               932.1525
 Red. masses --      1.3571                 1.6630                 1.3616
 Frc consts  --      0.5895                 0.7565                 0.6971
 IR Inten    --      1.3740                38.7966                 0.5595

                     46                     47                     48
                      A                      A                      A
 Frequencies --    934.0652               941.3968               966.4145
 Red. masses --      7.6622                 1.4541                 9.9323
 Frc consts  --      3.9388                 0.7592                 5.4654
 IR Inten    --    365.7389                13.5504                63.2566

                     49                     50                     51
                      A                      A                      A
 Frequencies --    978.5552              1003.8766              1004.7658
 Red. masses --     14.0516                 1.5766                 3.3403
 Frc consts  --      7.9277                 0.9361                 1.9868
 IR Inten    --    149.2643                93.0616               382.3660

                     52                     53                     54
                      A                      A                      A
 Frequencies --   1007.2259              1086.7608              1095.1672
 Red. masses --      1.3914                 2.2999                 2.0911
 Frc consts  --      0.8317                 1.6004                 1.4777
 IR Inten    --     12.6744                10.9706               179.5328

                     55                     56                     57
                      A                      A                      A
 Frequencies --   1121.7564              1121.9086              1125.7944
 Red. masses --     19.6419                16.6586                 2.6404
 Frc consts  --     14.5623                12.3539                 1.9717
 IR Inten    --   1105.0759                62.2515               193.4184

                     58                     59                     60
                      A                      A                      A
 Frequencies --   1129.0930              1140.8638              1141.5137
 Red. masses --      3.1967                 4.6409                 4.1572
 Frc consts  --      2.4011                 3.5590                 3.1917
 IR Inten    --    276.5121               556.9357               119.9696

                     61                     62                     63
                      A                      A                      A
 Frequencies --   1183.8952              1187.4238              1228.3411
 Red. masses --      1.9573                 3.9833                 1.8234
 Frc consts  --      1.6163                 3.3090                 1.6210
 IR Inten    --     16.3073                 1.2390                 0.3227

                     64                     65                     66
                      A                      A                      A
 Frequencies --   1271.5918              1283.6192              1300.7199
 Red. masses --      1.4131                 2.2478                 3.8134
 Frc consts  --      1.3462                 2.1822                 3.8013
 IR Inten    --     27.5587               420.4088               831.7745

                     67                     68                     69
                      A                      A                      A
 Frequencies --   1348.1202              1356.9140              1415.5545
 Red. masses --      8.2077                11.3188                 3.8165
 Frc consts  --      8.7888                12.2788                 4.5058
 IR Inten    --     91.1451                 0.6888                 2.7931

                     70                     71                     72
                      A                      A                      A
 Frequencies --   1435.5364              1495.1553              1502.3908
 Red. masses --      4.9739                 2.7098                 2.6346
 Frc consts  --      6.0392                 3.5690                 3.5037
 IR Inten    --     11.4509                33.0823                 2.6033

                     73                     74                     75
                      A                      A                      A
 Frequencies --   1593.1407              1603.7902              1611.3149
 Red. masses --      7.6515                 8.4854                 6.6042
 Frc consts  --     11.4421                12.8593                10.1026
 IR Inten    --      6.9406               160.9311               327.6544

                     76                     77                     78
                      A                      A                      A
 Frequencies --   1620.1362              1696.2039              1705.0650
 Red. masses --      6.2004                12.5641                11.9041
 Frc consts  --      9.5890                21.2979                20.3906
 IR Inten    --      8.9105                45.3141               716.7200

                     79                     80                     81
                      A                      A                      A
 Frequencies --   3197.0977              3197.6719              3208.6283
 Red. masses --      1.0883                 1.0883                 1.0944
 Frc consts  --      6.5540                 6.5566                 6.6382
 IR Inten    --      1.7778                 1.0259                 1.4801

                     82                     83                     84
                      A                      A                      A
 Frequencies --   3209.1712              3211.4811              3211.8993
 Red. masses --      1.0942                 1.0907                 1.0909
 Frc consts  --      6.6397                 6.6279                 6.6306
 IR Inten    --      1.4920                 1.4263                 6.9418

 - Thermochemistry -
 -------------------
 Temperature   298.150 Kelvin.  Pressure   1.00000 Atm.
 Atom     1 has atomic number  8 and mass  15.99491

 Molecular mass:   365.95041 amu.
 Principal axes and moments of inertia in atomic units:
                           1         2         3
     Eigenvalues --  3218.39709********************
           X            0.99395  -0.10883  -0.01508
           Y            0.10490   0.98081  -0.16432
           Z            0.03267   0.16174   0.98629
 This molecule is an asymmetric top.
 Rotational symmetry number  1.
 Warning -- assumption of classical behavior for rotation
           may cause significant error
 Rotational temperatures (Kelvin)      0.02691     0.00405     0.00362
 Rotational constants (GHZ):           0.56076     0.08430     0.07545
 Zero-point vibrational energy     480990.0 (Joules/Mol)
                                  114.95937 (Kcal/Mol)
 Warning -- explicit consideration of  33 degrees of freedom as
           vibrations may cause significant error
 Vibrational temperatures:     27.87    38.63    43.52    78.49   102.29
          (Kelvin)            105.56   179.32   179.59   187.04   242.89
                              265.11   311.84   324.92   360.66   389.81
                              444.77   489.35   538.56   546.85   579.16
                              588.55   612.43   630.16   665.87   668.56
                              696.13   708.89   739.21   748.41   775.34
                              838.00   861.16   864.46   945.47   963.72
                              984.80  1013.66  1026.35  1054.06  1082.26
                             1150.75  1220.20  1235.41  1264.22  1341.16
                             1343.91  1354.46  1390.45  1407.92  1444.35
                             1445.63  1449.17  1563.61  1575.70  1613.96
                             1614.18  1619.77  1624.51  1641.45  1642.38
                             1703.36  1708.44  1767.31  1829.54  1846.84
                             1871.45  1939.64  1952.30  2036.67  2065.42
                             2151.20  2161.61  2292.17  2307.50  2318.32
                             2331.01  2440.46  2453.21  4599.91  4600.74
                             4616.50  4617.28  4620.61  4621.21

 Zero-point correction=                           0.183199 (Hartree/Particle)
 Thermal correction to Energy=                    0.202757
 Thermal correction to Enthalpy=                  0.203702
 Thermal correction to Gibbs Free Energy=         0.132191
 Sum of electronic and zero-point Energies=          -1935.713079
 Sum of electronic and thermal Energies=             -1935.693521
 Sum of electronic and thermal Enthalpies=           -1935.692577
 Sum of electronic and thermal Free Energies=        -1935.764088

                     E (Thermal)             CV                S
                      KCal/Mol        Cal/Mol-Kelvin    Cal/Mol-Kelvin
 Total                  127.232             73.847            150.506
 Electronic               0.000              0.000              0.000
 Translational            0.889              2.981             43.585
 Rotational               0.889              2.981             35.754
 Vibrational            125.455             67.886             71.168
 Vibration     1          0.593              1.986              6.697
 Vibration     2          0.593              1.984              6.049
 Vibration     3          0.594              1.984              5.813
 Vibration     4          0.596              1.976              4.645
 Vibration     5          0.598              1.968              4.123
 Vibration     6          0.599              1.967              4.061
 Vibration     7          0.610              1.928              3.027
 Vibration     8          0.610              1.928              3.024
 Vibration     9          0.612              1.923              2.946
 Vibration    10          0.625              1.881              2.449
 Vibration    11          0.631              1.861              2.285
 Vibration    12          0.646              1.816              1.986
 Vibration    13          0.650              1.802              1.912
 Vibration    14          0.663              1.762              1.726
 Vibration    15          0.675              1.727              1.590
 Vibration    16          0.698              1.656              1.367
 Vibration    17          0.720              1.595              1.212
 Vibration    18          0.745              1.525              1.062
 Vibration    19          0.750              1.513              1.039
 Vibration    20          0.768              1.465              0.953
 Vibration    21          0.773              1.451              0.930
 Vibration    22          0.787              1.414              0.873
 Vibration    23          0.798              1.387              0.833
 Vibration    24          0.820              1.333              0.758
 Vibration    25          0.822              1.328              0.753
 Vibration    26          0.840              1.286              0.700
 Vibration    27          0.848              1.266              0.677
 Vibration    28          0.869              1.219              0.625
 Vibration    29          0.875              1.205              0.610
 Vibration    30          0.894              1.164              0.568
 Vibration    31          0.939              1.069              0.481
 Vibration    32          0.957              1.035              0.452
 Vibration    33          0.959              1.030              0.448

 Optimization completed.
    -- Stationary point found.
 Normal termination of Gaussian 16 at Sun Feb 11 01:39:45 2024.
