 Gaussian 16, Revision A.03,
 Gaussian 16:  ES64L-G16RevA.03 25-Dec-2016

 ----------------------------------------------------------------
 #P UB3LYP/6-311++G(d,p) SCRF=(PCM,Solvent=n,n-DiMethylFormamide)
 ----------------------------------------------------------------

 -------
 Reduced
 -------
 Symbolic Z-matrix:
 Charge = -2 Multiplicity = 1

                         Standard orientation:
 ---------------------------------------------------------------------
 Center     Atomic      Atomic             Coordinates (Angstroms)
 Number     Number       Type             X           Y           Z
 ---------------------------------------------------------------------
      1          7           0       -2.315117   -2.705821   -0.135424
      2          6           0       -2.507474   -1.319332   -0.035123
      3          6           0       -3.799080   -0.802720   -0.004885
      4          6           0       -4.021212    0.596521    0.009161
      5          6           0       -2.953700    1.461554   -0.013713
      6          6           0       -1.613439    0.982745   -0.023197
      7          6           0       -0.549795    1.959329   -0.014029
      8          8           0       -0.779618    3.227354   -0.012696
      9          6           0        0.787068    1.418806   -0.000588
     10          6           0        1.858280    2.346219    0.010371
     11          6           0        3.174282    1.953442    0.024973
     12          6           0        3.478367    0.564217    0.012463
     13          6           0        2.455986   -0.357873    0.008332
     14         17           0        3.046477   -2.060369   -0.072062
     15          6           0        1.064453   -0.025760    0.020684
     16          6           0       -0.011759   -0.987098    0.065441
     17          8           0        0.205999   -2.261710    0.194240
     18          6           0       -1.357022   -0.442218   -0.015321
     19          1           0       -3.003760   -3.242406    0.375140
     20          1           0       -1.317328   -2.917644    0.073026
     21          1           0       -4.639509   -1.495177   -0.038907
     22          1           0       -5.041709    0.977884    0.025854
     23          1           0       -3.080895    2.538234   -0.014948
     24          1           0        1.570713    3.392507    0.007534
     25          1           0        3.981651    2.682710    0.034776
     26          1           0        4.505780    0.218780   -0.009217
 ---------------------------------------------------------------------

 SCF Done:  E(UB3LYP) =  -1204.18422433     A.U. after   19 cycles

 The electronic state is 1-A.
 Alpha  occ. eigenvalues -- -101.52852 -19.02512 -19.01907 -14.27725 -10.21540
 Alpha  occ. eigenvalues --  -10.18970 -10.18725 -10.17376 -10.15619 -10.15427
 Alpha  occ. eigenvalues --  -10.15328 -10.14862 -10.14712 -10.14465 -10.14159
 Alpha  occ. eigenvalues --  -10.13762 -10.13704 -10.13360  -9.44322  -7.20749
 Alpha  occ. eigenvalues --   -7.19856  -7.19756  -0.94942  -0.93694  -0.88163
 Alpha  occ. eigenvalues --   -0.85683  -0.81136  -0.80251  -0.75471  -0.71267
 Alpha  occ. eigenvalues --   -0.71049  -0.69965  -0.63948  -0.60807  -0.59863
 Alpha  occ. eigenvalues --   -0.55023  -0.53113  -0.51465  -0.49618  -0.47096
 Alpha  occ. eigenvalues --   -0.44789  -0.44276  -0.44139  -0.41783  -0.41205
 Alpha  occ. eigenvalues --   -0.40372  -0.39056  -0.38386  -0.36936  -0.36273
 Alpha  occ. eigenvalues --   -0.36118  -0.35636  -0.33865  -0.33269  -0.31994
 Alpha  occ. eigenvalues --   -0.31935  -0.31058  -0.30343  -0.29480  -0.27919
 Alpha  occ. eigenvalues --   -0.23142  -0.22466  -0.21918  -0.20365  -0.19680
 Alpha  occ. eigenvalues --   -0.18631  -0.10817
 Alpha virt. eigenvalues --   -0.02582  -0.00236   0.00148   0.00756   0.01179
 Alpha virt. eigenvalues --    0.01903   0.02357   0.02455   0.03410   0.04409
 Alpha virt. eigenvalues --    0.04623   0.04859   0.05631   0.06345   0.06653

  Beta  occ. eigenvalues -- -101.52852 -19.02512 -19.01907 -14.27725 -10.21540
  Beta  occ. eigenvalues --  -10.18970 -10.18725 -10.17376 -10.15619 -10.15427
  Beta  occ. eigenvalues --  -10.15328 -10.14862 -10.14712 -10.14465 -10.14159
  Beta  occ. eigenvalues --  -10.13762 -10.13704 -10.13360  -9.44322  -7.20749
  Beta  occ. eigenvalues --   -7.19856  -7.19756  -0.94942  -0.93694  -0.88163
  Beta  occ. eigenvalues --   -0.85683  -0.81136  -0.80251  -0.75471  -0.71267
  Beta  occ. eigenvalues --   -0.71049  -0.69965  -0.63948  -0.60807  -0.59863
  Beta  occ. eigenvalues --   -0.55023  -0.53113  -0.51465  -0.49618  -0.47096
  Beta  occ. eigenvalues --   -0.44789  -0.44276  -0.44139  -0.41783  -0.41205
  Beta  occ. eigenvalues --   -0.40372  -0.39056  -0.38386  -0.36936  -0.36273
  Beta  occ. eigenvalues --   -0.36118  -0.35636  -0.33865  -0.33269  -0.31994
  Beta  occ. eigenvalues --   -0.31935  -0.31058  -0.30343  -0.29480  -0.27919
  Beta  occ. eigenvalues --   -0.23142  -0.22466  -0.21918  -0.20365  -0.19680
  Beta  occ. eigenvalues --   -0.18631  -0.10817
  Beta virt. eigenvalues --   -0.02582  -0.00236   0.00148   0.00756   0.01179
  Beta virt. eigenvalues --    0.01903   0.02357   0.02455   0.03410   0.04409
  Beta virt. eigenvalues --    0.04623   0.04859   0.05631   0.06345   0.06653

 Mulliken charges and spin densities:
               1          2
     1  N   -0.462674   0.000000
     2  C    0.132097   0.000000
     3  C   -0.344510   0.000000
     4  C   -0.375079  -0.000000
     5  C   -0.157071   0.000000
     6  C    0.313258   0.000000
     7  C   -0.663528   0.000000
     8  O   -0.643874   0.000000
     9  C    0.254327   0.000000
    10  C    0.158252  -0.000000
    11  C   -0.741599  -0.000000
    12  C   -0.258768  -0.000000
    13  C    0.952577  -0.000000
    14  Cl   0.259230   0.000000
    15  C   -0.076266  -0.000000
    16  C   -1.549250   0.000000
    17  O   -0.507895  -0.000000
    18  C    0.217206  -0.000000
    19  H    0.245384   0.000000
    20  H    0.322955   0.000000
    21  H    0.140616   0.000000
    22  H    0.159255  -0.000000
    23  H    0.138024   0.000000
    24  H    0.151763  -0.000000
    25  H    0.159896  -0.000000
    26  H    0.175674  -0.000000
 Sum of Mulliken charges =  -2.00000  -0.00000

 Dipole moment (field-independent basis, Debye):
    X=              1.7004    Y=             -3.7704    Z=              0.8371  Tot=              4.2200
 Quadrupole moment (field-independent basis, Debye-Ang):
   XX=           -145.4517   YY=           -174.2294   ZZ=           -125.0223
   XY=             16.0740   XZ=             -3.4417   YZ=             -2.7893

 Normal termination of Gaussian 16 at Sun Jan 14 01:28:34 2024.
