 Q-Chem 5.4, Q-Chem, Inc., Pleasanton, CA (2021)
 Q-Chem 5.4.0 for Intel X86 EM64T Linux

User input:
--------------------------------------------------------------
$molecule
-1 1
O                 -1.7480190000     -2.7394450000     -1.4652100000
S                 -2.8292550000     -2.3154200000     -0.5491090000
O                 -2.9702900000     -3.0914890000      0.6995820000
O                 -4.1225510000     -2.0453950000     -1.2322070000
C                 -2.3230350000     -0.6001670000     -0.0153920000
C                 -3.3547410000      0.3403310000      0.0079710000
C                 -3.1097570000      1.6848360000      0.2795720000
C                 -1.8090320000      2.1257890000      0.4728660000
C                 -0.7531650000      1.2103000000      0.4346370000
C                  0.6298140000      1.7564210000      0.5318790000
O                  0.8445390000      2.9385700000      0.7726530000
C                  1.7571600000      0.8194400000      0.2617160000
C                  3.0580470000      1.3127720000      0.1081660000
C                  4.1049310000      0.4385070000     -0.1545690000
C                  3.8622360000     -0.9368390000     -0.2455580000
C                  2.5769640000     -1.4343390000     -0.0656800000
C                  1.5165640000     -0.5570150000      0.1767090000
C                  0.1425010000     -1.1150450000      0.4161670000
O                  0.0215770000     -2.2574110000      0.8000920000
C                 -1.0075610000     -0.1721850000      0.2472020000
H                 -4.3519910000     -0.0116140000     -0.2259420000
H                 -3.9342540000      2.3900960000      0.3030730000
H                 -1.5786560000      3.1714230000      0.6346830000
H                  3.2196650000      2.3803330000      0.1966880000
H                  5.1112490000      0.8213590000     -0.2872840000
H                  4.6807240000     -1.6179190000     -0.4533670000
H                  2.3663380000     -2.4958940000     -0.1114760000
$end
$rem
MAX_SCF_CYCLES=200
BASIS  =  6-311++G(d,p)
GUI  =  2
JOB_TYPE  =  SP
METHOD  =  B3LYP
SOLVENT_METHOD = COSMO
$end
$solvent
dielectric 37.219
opticaldielectric 1.43
$end

--------------------------------------------------------------

             Standard Nuclear Orientation (Angstroms)
    I     Atom           X                Y                Z
 ----------------------------------------------------------------
    1      O      -2.1364061096    -1.8860905072    -1.0370901824
    2      S      -2.9094062028    -0.9600749355    -0.1808918717
    3      O      -3.2157217448    -1.4333490360     1.1842402069
    4      O      -4.0700710367    -0.3345902568    -0.8692064669
    5      C      -1.7736558368     0.5039806645     0.0423068847
    6      C      -2.3891716382     1.7522109568    -0.0697690885
    7      C      -1.6522519529     2.9342749329    -0.0358266052
    8      C      -0.2687730852     2.8848861745     0.0492299507
    9      C       0.3769682050     1.6484088419     0.1418511118
   10      C       1.8667565137     1.6506276456     0.1125093385
   11      O       2.5142281923     2.6904951053     0.1443101948
   12      C       2.5514930093     0.3334229531    -0.0214241322
   13      C       3.9247839406     0.2803699179    -0.2869772243
   14      C       4.5581425539    -0.9483988354    -0.4223260253
   15      C       3.8274411136    -2.1327035106    -0.2731471990
   16      C       2.4693623114    -2.0853437578     0.0186840531
   17      C       1.8228441636    -0.8517864660     0.1337869657
   18      C       0.3654600285    -0.8181188000     0.4966708505
   19      O      -0.1277717344    -1.7633319619     1.0714017474
   20      C      -0.3753251753     0.4475455196     0.1974921972
   21      H      -3.4621270714     1.7646037268    -0.2170823420
   22      H      -2.1605107585     3.8900419691    -0.1127787113
   23      H       0.3371594668     3.7820565961     0.0260075106
   24      H       4.4686266034     1.2122312612    -0.3845098153
   25      H       5.6197373269    -0.9903862254    -0.6416851808
   26      H       4.3233054663    -3.0915064240    -0.3817412606
   27      H       1.8858027706    -2.9871661058     0.1584492800
 ----------------------------------------------------------------

   10   -1312.3180554048      7.82e-06  Convergence criterion met
 Total energy in the final basis set =    -1312.3180554048
    5   -1312.4228220846      8.23e-06  Convergence criterion met
 Total energy in the final basis set =    -1312.4228220846

                    Orbital Energies (a.u.)
 --------------------------------------------------------------

 Alpha MOs
 -- Occupied --
-89.0555 -19.1309 -19.1305 -19.0996 -19.0985 -19.0981 -10.2837 -10.2827
-10.2187 -10.2181 -10.2106 -10.2048 -10.2039 -10.1966 -10.1964 -10.1952
-10.1941 -10.1939 -10.1930 -10.1927  -8.1140  -6.0766  -6.0765  -6.0760
 -1.1203  -1.0691  -1.0635  -0.9864  -0.9824  -0.8940  -0.8804  -0.8109
 -0.7841  -0.7740  -0.7675  -0.6903  -0.6696  -0.6428  -0.6335  -0.5990
 -0.5679  -0.5595  -0.5502  -0.5100  -0.4924  -0.4890  -0.4847  -0.4762
 -0.4621  -0.4611  -0.4576  -0.4550  -0.4470  -0.4419  -0.4372  -0.4171
 -0.3962  -0.3911  -0.3897  -0.3744  -0.3700  -0.3660  -0.3455  -0.3425
 -0.3200  -0.3065  -0.3020  -0.2884  -0.2831  -0.2778  -0.2720  -0.2708
 -0.2684  -0.2648

          Ground-State Mulliken Net Atomic Charges

     Atom                 Charge (a.u.)
  ----------------------------------------
      1 O                    -0.417347
      2 S                     0.502093
      3 O                    -0.372454
      4 O                    -0.400437
      5 C                    -1.034044
      6 C                     0.412131
      7 C                    -0.474924
      8 C                    -0.344047
      9 C                     0.964991
     10 C                    -0.253366
     11 O                    -0.299850
     12 C                     0.431699
     13 C                     0.301634
     14 C                    -0.485462
     15 C                    -0.425475
     16 C                     0.057386
     17 C                     0.155812
     18 C                    -0.913644
     19 O                    -0.243711
     20 C                     0.260948
     21 H                     0.258490
     22 H                     0.238047
     23 H                     0.202178
     24 H                     0.208414
     25 H                     0.223605
     26 H                     0.233243
     27 H                     0.214088
  ----------------------------------------
  Sum of atomic charges =    -1.000000

                    Cartesian Multipole Moments
 -----------------------------------------------------------------
    Charge (ESU x 10^10)
                -4.8032
    Dipole Moment (Debye)
         X      15.8481      Y       6.9544      Z      -0.7854
       Tot      17.3247
    Quadrupole Moments (Debye-Ang)
        XX    -163.5523     XY     -39.5224     YY    -132.7473
        XZ      -5.6089     YZ       1.7407     ZZ    -136.1000

 Total job time:  75.40s(wall), 578.81s(cpu)
        *  Thank you very much for using Q-Chem.  Have a nice day.  *
