 Gaussian 16, Revision A.03,
 Gaussian 16:  ES64L-G16RevA.03 25-Dec-2016

 --------------------------------------
 #P UB3LYP/6-311++G(d,p) nosym opt freq
 --------------------------------------

 --------
 Oxidized
 --------
 Symbolic Z-matrix:
 Charge = -1 Multiplicity = 1

 SCF Done:  E(UB3LYP) =  -1312.31800737     A.U. after   19 cycles
 SCF Done:  E(UB3LYP) =  -1312.31800729     A.U. after   11 cycles
 SCF Done:  E(UB3LYP) =  -1312.31800736     A.U. after   10 cycles
 Optimization completed.
    -- Stationary point found.
 Normal termination of Gaussian 16 at Sun Jan  7 07:04:54 2024.

 ----------------------------------------------------------------------
 #P Geom=AllCheck Guess=TCheck SCRF=Check GenChk UB3LYP/6-311++G(d,p) F
 req
 ----------------------------------------------------------------------

 Structure from the checkpoint file:  "222.chk"
 --------
 Oxidized
 --------
 Charge = -1 Multiplicity = 1

                          Input orientation:
 ---------------------------------------------------------------------
 Center     Atomic      Atomic             Coordinates (Angstroms)
 Number     Number       Type             X           Y           Z
 ---------------------------------------------------------------------
      1          8           0       -1.748019   -2.739445   -1.465210
      2         16           0       -2.829255   -2.315420   -0.549109
      3          8           0       -2.970290   -3.091489    0.699582
      4          8           0       -4.122551   -2.045395   -1.232207
      5          6           0       -2.323035   -0.600167   -0.015392
      6          6           0       -3.354741    0.340331    0.007971
      7          6           0       -3.109757    1.684836    0.279572
      8          6           0       -1.809032    2.125789    0.472866
      9          6           0       -0.753165    1.210300    0.434637
     10          6           0        0.629814    1.756421    0.531879
     11          8           0        0.844539    2.938570    0.772653
     12          6           0        1.757160    0.819440    0.261716
     13          6           0        3.058047    1.312772    0.108166
     14          6           0        4.104931    0.438507   -0.154569
     15          6           0        3.862236   -0.936839   -0.245558
     16          6           0        2.576964   -1.434339   -0.065680
     17          6           0        1.516564   -0.557015    0.176709
     18          6           0        0.142501   -1.115045    0.416167
     19          8           0        0.021577   -2.257411    0.800092
     20          6           0       -1.007561   -0.172185    0.247202
     21          1           0       -4.351991   -0.011614   -0.225942
     22          1           0       -3.934254    2.390096    0.303073
     23          1           0       -1.578656    3.171423    0.634683
     24          1           0        3.219665    2.380333    0.196688
     25          1           0        5.111249    0.821359   -0.287284
     26          1           0        4.680724   -1.617919   -0.453367
     27          1           0        2.366338   -2.495894   -0.111476
 ---------------------------------------------------------------------

 SCF Done:  E(UB3LYP) =  -1312.31800736     A.U. after    2 cycles

 Alpha  occ. eigenvalues --  -88.89885 -19.03175 -19.01769 -18.93935 -18.93915
 Alpha  occ. eigenvalues --  -18.93814 -10.18440 -10.17037 -10.11628 -10.11576
 Alpha  occ. eigenvalues --  -10.11571 -10.11438 -10.11231 -10.10798 -10.10709
 Alpha  occ. eigenvalues --  -10.10537 -10.09717 -10.09512 -10.09452 -10.08605
 Alpha  occ. eigenvalues --   -7.95695  -5.91972  -5.91932  -5.91915  -0.96455
 Alpha  occ. eigenvalues --   -0.96085  -0.95281  -0.82424  -0.82138  -0.80087
 Alpha  occ. eigenvalues --   -0.77999  -0.71632  -0.68925  -0.67278  -0.67196
 Alpha  occ. eigenvalues --   -0.59039  -0.57323  -0.54551  -0.52564  -0.49638
 Alpha  occ. eigenvalues --   -0.46476  -0.46343  -0.42852  -0.40653  -0.39494
 Alpha  occ. eigenvalues --   -0.39065  -0.38437  -0.36390  -0.35590  -0.35154
 Alpha  occ. eigenvalues --   -0.34765  -0.34531  -0.33581  -0.31131  -0.30452
 Alpha  occ. eigenvalues --   -0.30189  -0.29574  -0.29398  -0.28866  -0.27957
 Alpha  occ. eigenvalues --   -0.27226  -0.26524  -0.19529  -0.19153  -0.18855
 Alpha  occ. eigenvalues --   -0.18297  -0.18130  -0.17810  -0.17229  -0.16192
 Alpha  occ. eigenvalues --   -0.14844  -0.14005  -0.13260  -0.10021
 Alpha virt. eigenvalues --   -0.01243   0.02453   0.05680   0.06038   0.06873
 Alpha virt. eigenvalues --    0.07617   0.08013   0.09409   0.10870   0.11865
 Alpha virt. eigenvalues --    0.12120   0.12458   0.12772   0.13151   0.13410

  Beta  occ. eigenvalues --  -88.89885 -19.03175 -19.01769 -18.93935 -18.93915
  Beta  occ. eigenvalues --  -18.93814 -10.18440 -10.17037 -10.11628 -10.11576
  Beta  occ. eigenvalues --  -10.11571 -10.11438 -10.11231 -10.10798 -10.10709
  Beta  occ. eigenvalues --  -10.10537 -10.09717 -10.09512 -10.09452 -10.08605
  Beta  occ. eigenvalues --   -7.95695  -5.91972  -5.91932  -5.91915  -0.96455
  Beta  occ. eigenvalues --   -0.96085  -0.95281  -0.82424  -0.82138  -0.80087
  Beta  occ. eigenvalues --   -0.77999  -0.71632  -0.68925  -0.67278  -0.67196
  Beta  occ. eigenvalues --   -0.59039  -0.57323  -0.54551  -0.52564  -0.49638
  Beta  occ. eigenvalues --   -0.46476  -0.46343  -0.42852  -0.40653  -0.39494
  Beta  occ. eigenvalues --   -0.39065  -0.38437  -0.36390  -0.35590  -0.35154
  Beta  occ. eigenvalues --   -0.34765  -0.34531  -0.33581  -0.31131  -0.30452
  Beta  occ. eigenvalues --   -0.30189  -0.29574  -0.29398  -0.28866  -0.27957
  Beta  occ. eigenvalues --   -0.27226  -0.26524  -0.19529  -0.19153  -0.18855
  Beta  occ. eigenvalues --   -0.18297  -0.18130  -0.17810  -0.17229  -0.16192
  Beta  occ. eigenvalues --   -0.14844  -0.14005  -0.13260  -0.10021
  Beta virt. eigenvalues --   -0.01243   0.02453   0.05680   0.06038   0.06873
  Beta virt. eigenvalues --    0.07617   0.08013   0.09409   0.10870   0.11865
  Beta virt. eigenvalues --    0.12120   0.12458   0.12772   0.13151   0.13410

 Mulliken charges and spin densities:
               1          2
     1  O   -0.319080   0.000000
     2  S    0.365913  -0.000000
     3  O   -0.252241   0.000000
     4  O   -0.297568   0.000000
     5  C   -1.017242  -0.000000
     6  C    0.397868   0.000000
     7  C   -0.391660  -0.000000
     8  C   -0.349994   0.000000
     9  C    0.911948   0.000000
    10  C   -0.404053  -0.000000
    11  O   -0.248042   0.000000
    12  C    0.425736   0.000000
    13  C    0.260252  -0.000000
    14  C   -0.404110  -0.000000
    15  C   -0.365486   0.000000
    16  C    0.048478  -0.000000
    17  C    0.240935   0.000000
    18  C   -1.037898  -0.000000
    19  O   -0.124428   0.000000
    20  C    0.320640   0.000000
    21  H    0.241584  -0.000000
    22  H    0.155662  -0.000000
    23  H    0.160905   0.000000
    24  H    0.175344   0.000000
    25  H    0.148488   0.000000
    26  H    0.160832   0.000000
    27  H    0.197216  -0.000000
 Sum of Mulliken charges =  -1.00000   0.00000

 Dipole moment (field-independent basis, Debye):
    X=             11.4693    Y=             10.2908    Z=              1.2983  Tot=             15.4639
 Quadrupole moment (field-independent basis, Debye-Ang):
   XX=           -155.2796   YY=           -169.6279   ZZ=           -136.7495
   XY=            -40.2364   XZ=            -10.5298   YZ=             -6.4963

  Exact polarizability: 281.318   6.732 230.525  -0.815  14.521 116.604
 Approx polarizability: 414.122   6.071 417.339  -3.968  18.616 195.287

                      1                      2                      3
                      A                      A                      A
 Frequencies --     27.0743                46.4324                68.2913
 Red. masses --     10.3938                 7.8662                11.3742
 Frc consts  --      0.0045                 0.0100                 0.0313
 IR Inten    --      1.2314                 6.9684                 0.6444

                      4                      5                      6
                      A                      A                      A
 Frequencies --    107.1263               132.2403               149.4423
 Red. masses --      4.8967                 8.4706                 7.1735
 Frc consts  --      0.0331                 0.0873                 0.0944
 IR Inten    --      1.3337                 1.7381                 0.7201

                      7                      8                      9
                      A                      A                      A
 Frequencies --    150.1426               198.6867               219.7592
 Red. masses --      8.9706                 7.4274                 6.4279
 Frc consts  --      0.1191                 0.1728                 0.1829
 IR Inten    --      1.1233                 0.1532                 0.2984

                     10                     11                     12
                      A                      A                      A
 Frequencies --    256.8415               271.3222               302.8240
 Red. masses --     10.0097                 7.4652                 7.3187
 Frc consts  --      0.3890                 0.3238                 0.3954
 IR Inten    --      1.5927                 0.2988                 1.1597

                     13                     14                     15
                      A                      A                      A
 Frequencies --    335.7334               380.6190               386.2016
 Red. masses --      6.4682                 8.1108                 7.8961
 Frc consts  --      0.4296                 0.6923                 0.6939
 IR Inten    --      0.5553                 4.3394                17.8744

                     16                     17                     18
                      A                      A                      A
 Frequencies --    416.8199               430.8433               436.9417
 Red. masses --      5.6528                 4.4060                 7.2454
 Frc consts  --      0.5786                 0.4819                 0.8150
 IR Inten    --      1.4190                 0.9758                 4.9591

                     19                     20                     21
                      A                      A                      A
 Frequencies --    481.0167               492.7757               501.1271
 Red. masses --      8.9516                 7.2196                 5.3386
 Frc consts  --      1.2203                 1.0329                 0.7899
 IR Inten    --      4.8684                 2.6368                 3.7275

                     22                     23                     24
                      A                      A                      A
 Frequencies --    519.1919               562.6121               597.9241
 Red. masses --     12.5853                 6.8080                16.2847
 Frc consts  --      1.9988                 1.2697                 3.4302
 IR Inten    --      7.7803                18.5402               191.2527

                     25                     26                     27
                      A                      A                      A
 Frequencies --    622.6433               660.6477               682.9718
 Red. masses --      5.4680                 6.9463                 5.4253
 Frc consts  --      1.2490                 1.7863                 1.4910
 IR Inten    --      5.5320                15.4551                 8.2080

                     28                     29                     30
                      A                      A                      A
 Frequencies --    689.6290               722.8737               745.6401
 Red. masses --      6.3499                 2.3520                 3.5020
 Frc consts  --      1.7793                 0.7241                 1.1472
 IR Inten    --      0.1184                65.4246                 8.3612

                     31                     32                     33
                      A                      A                      A
 Frequencies --    747.7969               792.0799               812.2920
 Red. masses --      6.6342                 1.5916                 3.5307
 Frc consts  --      2.1858                 0.5883                 1.3726
 IR Inten    --      9.0240                 0.8962                15.7120

                     34                     35                     36
                      A                      A                      A
 Frequencies --    819.8660               842.2013               906.8604
 Red. masses --      3.1762                 3.1311                 1.5374
 Frc consts  --      1.2579                 1.3085                 0.7450
 IR Inten    --     15.1476                 5.3901                 0.9508

                     37                     38                     39
                      A                      A                      A
 Frequencies --    926.8871               960.8614               961.8953
 Red. masses --      6.4628                 1.4880                 5.3581
 Frc consts  --      3.2713                 0.8094                 2.9209
 IR Inten    --     20.3406                 4.2276                74.5436

                     40                     41                     42
                      A                      A                      A
 Frequencies --    980.0022               989.0121              1002.4830
 Red. masses --     12.0335                 1.4046                 1.3121
 Frc consts  --      6.8092                 0.8095                 0.7769
 IR Inten    --    198.1329                 5.1076                 0.3216

                     43                     44                     45
                      A                      A                      A
 Frequencies --   1004.6054              1052.2583              1088.5564
 Red. masses --      1.3405                 2.1005                 2.1410
 Frc consts  --      0.7971                 1.3703                 1.4947
 IR Inten    --      2.8496                 1.4195                11.7056

                     46                     47                     48
                      A                      A                      A
 Frequencies --   1109.3078              1142.8728              1162.2804
 Red. masses --      2.2741                 3.2610                 6.4349
 Frc consts  --      1.6488                 2.5095                 5.1217
 IR Inten    --      0.1974                 4.7752               181.7850

                     49                     50                     51
                      A                      A                      A
 Frequencies --   1172.4078              1178.2979              1193.5045
 Red. masses --      1.6934                 1.4129                 1.7958
 Frc consts  --      1.3714                 1.1558                 1.5071
 IR Inten    --     36.4018                20.1121                 3.8650

                     52                     53                     54
                      A                      A                      A
 Frequencies --   1195.6076              1205.5222              1256.6275
 Red. masses --     19.4664                 1.7208                 2.1646
 Frc consts  --     16.3951                 1.4735                 2.0139
 IR Inten    --    278.4245                22.2409                59.5387

                     55                     56                     57
                      A                      A                      A
 Frequencies --   1286.5643              1317.3516              1340.3735
 Red. masses --      3.1436                 2.6728                 8.1220
 Frc consts  --      3.0658                 2.7328                 8.5974
 IR Inten    --    374.0735               136.4230                42.3329

                     58                     59                     60
                      A                      A                      A
 Frequencies --   1355.1955              1436.5044              1465.9050
 Red. masses --      7.9048                 3.6060                 2.3020
 Frc consts  --      8.5536                 4.3842                 2.9145
 IR Inten    --      1.4230                 5.3016                 1.8648

                     61                     62                     63
                      A                      A                      A
 Frequencies --   1479.7833              1503.3540              1587.4352
 Red. masses --      2.4631                 2.5660                 6.1213
 Frc consts  --      3.1778                 3.4169                 9.0884
 IR Inten    --      2.7887                 1.2635                 1.0654

                     64                     65                     66
                      A                      A                      A
 Frequencies --   1604.6649              1617.0879              1632.7154
 Red. masses --      5.8194                 7.2290                 5.9373
 Frc consts  --      8.8287                11.1377                 9.3253
 IR Inten    --     86.7868                 1.1262                33.2418

                     67                     68                     69
                      A                      A                      A
 Frequencies --   1702.9383              1753.3060              3155.9200
 Red. masses --     12.0144                12.8911                 1.0861
 Frc consts  --     20.5282                23.3484                 6.3734
 IR Inten    --    199.8971               146.3568                 6.5558

                     70                     71                     72
                      A                      A                      A
 Frequencies --   3157.5480              3172.6520              3193.3193
 Red. masses --      1.0883                 1.0920                 1.0926
 Frc consts  --      6.3928                 6.4760                 6.5646
 IR Inten    --     25.5261                28.5098                 9.8100

                     73                     74                     75
                      A                      A                      A
 Frequencies --   3194.9220              3197.1948              3197.9608
 Red. masses --      1.0903                 1.0938                 1.0936
 Frc consts  --      6.5569                 6.5878                 6.5897
 IR Inten    --      2.3193                15.7068                 8.7906

 - Thermochemistry -
 -------------------
 Temperature   298.150 Kelvin.  Pressure   1.00000 Atm.
 Atom     1 has atomic number  8 and mass  15.99491

 Molecular mass:   287.00142 amu.
 Principal axes and moments of inertia in atomic units:
                           1         2         3
     Eigenvalues --  3097.231927268.422729791.24580
           X            0.91786  -0.39601  -0.02649
           Y            0.38622   0.90655  -0.17029
           Z            0.09145   0.14607   0.98504
 This molecule is an asymmetric top.
 Rotational symmetry number  1.
 Warning -- assumption of classical behavior for rotation
           may cause significant error
 Rotational temperatures (Kelvin)      0.02796     0.01192     0.00885
 Rotational constants (GHZ):           0.58269     0.24830     0.18432
 Zero-point vibrational energy     475235.5 (Joules/Mol)
                                  113.58402 (Kcal/Mol)
 Warning -- explicit consideration of  24 degrees of freedom as
           vibrations may cause significant error
 Vibrational temperatures:     38.95    66.81    98.26   154.13   190.26
          (Kelvin)            215.01   216.02   285.87   316.18   369.54
                              390.37   435.70   483.05   547.63   555.66
                              599.71   619.89   628.66   692.08   708.99
                              721.01   747.00   809.47   860.28   895.84
                              950.52   982.64   992.22  1040.05  1072.81
                             1075.91  1139.63  1168.71  1179.60  1211.74
                             1304.77  1333.58  1382.47  1383.95  1410.00
                             1422.97  1442.35  1445.40  1513.96  1566.19
                             1596.05  1644.34  1672.26  1686.83  1695.31
                             1717.19  1720.21  1734.48  1808.01  1851.08
                             1895.38  1928.50  1949.82  2066.81  2109.11
                             2129.08  2162.99  2283.97  2308.75  2326.63
                             2349.11  2450.15  2522.62  4540.67  4543.01
                             4564.74  4594.47  4596.78  4600.05  4601.15

 Zero-point correction=                           0.181008 (Hartree/Particle)
 Thermal correction to Energy=                    0.196356
 Thermal correction to Enthalpy=                  0.197300
 Thermal correction to Gibbs Free Energy=         0.137307
 Sum of electronic and zero-point Energies=          -1312.137000
 Sum of electronic and thermal Energies=             -1312.121652
 Sum of electronic and thermal Enthalpies=           -1312.120707
 Sum of electronic and thermal Free Energies=        -1312.180701

                     E (Thermal)             CV                S
                      KCal/Mol        Cal/Mol-Kelvin    Cal/Mol-Kelvin
 Total                  123.215             59.813            126.266
 Electronic               0.000              0.000              0.000
 Translational            0.889              2.981             42.861
 Rotational               0.889              2.981             33.755
 Vibrational            121.438             53.851             49.651
 Vibration     1          0.593              1.984              6.033
 Vibration     2          0.595              1.979              4.964
 Vibration     3          0.598              1.969              4.202
 Vibration     4          0.606              1.944              3.320
 Vibration     5          0.612              1.921              2.913
 Vibration     6          0.618              1.903              2.679
 Vibration     7          0.618              1.903              2.670
 Vibration     8          0.637              1.842              2.145
 Vibration     9          0.647              1.811              1.961
 Vibration    10          0.666              1.751              1.683
 Vibration    11          0.675              1.726              1.588
 Vibration    12          0.694              1.668              1.401
 Vibration    13          0.717              1.604              1.232
 Vibration    14          0.750              1.511              1.037
 Vibration    15          0.755              1.500              1.015
 Vibration    16          0.780              1.434              0.903
 Vibration    17          0.792              1.403              0.856
 Vibration    18          0.797              1.390              0.836
 Vibration    19          0.837              1.292              0.707
 Vibration    20          0.848              1.266              0.676
 Vibration    21          0.857              1.248              0.655
 Vibration    22          0.874              1.207              0.612
 Vibration    23          0.918              1.112              0.519
 Vibration    24          0.956              1.036              0.453

 Optimization completed.
    -- Stationary point found.
 Normal termination of Gaussian 16 at Sun Jan  7 08:29:18 2024.
