 Gaussian 16, Revision A.03,
 Gaussian 16:  ES64L-G16RevA.03 25-Dec-2016

 ----------------------------------------------------------------------
 #P UB3LYP/6-311++G(d,p) nosym opt freq SCRF=(PCM,Solvent=n,n-DiMethylF
 ormamide)
 ----------------------------------------------------------------------

 -------
 Radical
 -------
 Symbolic Z-matrix:
 Charge = -1 Multiplicity = 2

 SCF Done:  E(UB3LYP) =  -846.389300907     A.U. after   18 cycles
 SCF Done:  E(UB3LYP) =  -846.389534862     A.U. after   14 cycles
 SCF Done:  E(UB3LYP) =  -846.389600758     A.U. after   12 cycles
 SCF Done:  E(UB3LYP) =  -846.389606737     A.U. after   10 cycles
 SCF Done:  E(UB3LYP) =  -846.389606825     A.U. after   10 cycles
 Optimization completed.
    -- Stationary point found.
 Normal termination of Gaussian 16 at Sat Feb 10 16:43:36 2024.

 ----------------------------------------------------------------------
 #P Geom=AllCheck Guess=TCheck SCRF=Check GenChk UB3LYP/6-311++G(d,p) F
 req
 ----------------------------------------------------------------------

 Structure from the checkpoint file:  "131-rad.chk"
 -------
 Radical
 -------
 Charge = -1 Multiplicity = 2

                          Input orientation:
 ---------------------------------------------------------------------
 Center     Atomic      Atomic             Coordinates (Angstroms)
 Number     Number       Type             X           Y           Z
 ---------------------------------------------------------------------
      1          6           0       -4.842687    1.127391   -1.572614
      2          6           0       -3.609074    0.615553   -0.870057
      3          6           0       -3.732167   -0.229780    0.255578
      4          6           0       -2.640028   -0.734573    0.943492
      5          6           0       -2.922293   -1.626133    2.132507
      6          6           0       -1.317507   -0.391388    0.502534
      7          6           0       -0.117448   -0.884483    1.170826
      8          8           0       -0.163729   -1.646302    2.180089
      9          6           0        1.183641   -0.464747    0.633294
     10          6           0        2.338130   -0.946054    1.291166
     11          6           0        3.609068   -0.615369    0.870196
     12          6           0        4.842674   -1.126765    1.573087
     13          6           0        3.732164    0.229905   -0.255482
     14          6           0        2.640030    0.734391   -0.943630
     15          6           0        2.922302    1.625955   -2.132641
     16          6           0        1.317511    0.390932   -0.502880
     17          6           0        0.117454    0.883733   -1.171393
     18          8           0        0.163738    1.645489   -2.180703
     19          6           0       -1.183638    0.464315   -0.633622
     20          6           0       -2.338133    0.945941   -1.291252
     21          1           0       -5.456207    0.301909   -1.949109
     22          1           0       -5.474751    1.708396   -0.892572
     23          1           0       -4.580973    1.766173   -2.418524
     24          1           0       -4.728102   -0.496940    0.598669
     25          1           0       -2.478592   -2.615749    2.011352
     26          1           0       -2.498712   -1.219156    3.052543
     27          1           0       -4.002452   -1.736264    2.260554
     28          1           0        2.191603   -1.591092    2.149018
     29          1           0        5.475413   -1.707070    0.893080
     30          1           0        4.580967   -1.766072    2.418602
     31          1           0        5.455508   -0.301068    1.950237
     32          1           0        4.728098    0.497283   -0.598408
     33          1           0        4.002458    1.736451   -2.260406
     34          1           0        2.478226    2.615427   -2.011688
     35          1           0        2.499114    1.218753   -3.052758
     36          1           0       -2.191610    1.591007   -2.149085
 ---------------------------------------------------------------------

 SCF Done:  E(UB3LYP) =  -846.389606825     A.U. after    1 cycles

 Alpha  occ. eigenvalues --  -19.06507 -19.06506 -10.21741 -10.21740 -10.18000
 Alpha  occ. eigenvalues --  -10.18000 -10.17481 -10.17481 -10.16809 -10.16808
 Alpha  occ. eigenvalues --  -10.16614 -10.16613 -10.16153 -10.16153 -10.15981
 Alpha  occ. eigenvalues --  -10.15981 -10.15664 -10.15664 -10.15204 -10.15204
 Alpha  occ. eigenvalues --   -0.99221  -0.98952  -0.85758  -0.85089  -0.79110
 Alpha  occ. eigenvalues --   -0.77486  -0.77256  -0.74857  -0.69830  -0.69008
 Alpha  occ. eigenvalues --   -0.68221  -0.67669  -0.63775  -0.61774  -0.58644
 Alpha  occ. eigenvalues --   -0.55846  -0.53441  -0.52675  -0.49663  -0.47396
 Alpha  occ. eigenvalues --   -0.45684  -0.45368  -0.43370  -0.42891  -0.41907
 Alpha  occ. eigenvalues --   -0.41052  -0.41021  -0.40759  -0.40673  -0.40623
 Alpha  occ. eigenvalues --   -0.39735  -0.39729  -0.38867  -0.38789  -0.38423
 Alpha  occ. eigenvalues --   -0.36757  -0.36486  -0.35821  -0.35670  -0.33656
 Alpha  occ. eigenvalues --   -0.33624  -0.33396  -0.32383  -0.32105  -0.25487
 Alpha  occ. eigenvalues --   -0.24347  -0.24083  -0.23436  -0.23374  -0.22576
 Alpha  occ. eigenvalues --   -0.13372
 Alpha virt. eigenvalues --   -0.04237  -0.01783  -0.00541   0.00120   0.00321
 Alpha virt. eigenvalues --    0.00813   0.01428   0.02071   0.02879   0.02924
 Alpha virt. eigenvalues --    0.03434   0.03497   0.03676   0.04819   0.04850

  Beta  occ. eigenvalues --  -19.05947 -19.05946 -10.21566 -10.21565 -10.17993
  Beta  occ. eigenvalues --  -10.17993 -10.17421 -10.17421 -10.16762 -10.16762
  Beta  occ. eigenvalues --  -10.16516 -10.16515 -10.16159 -10.16159 -10.15940
  Beta  occ. eigenvalues --  -10.15940 -10.15658 -10.15658 -10.15204 -10.15204
  Beta  occ. eigenvalues --   -0.98247  -0.97951  -0.85520  -0.84976  -0.78757
  Beta  occ. eigenvalues --   -0.77359  -0.77134  -0.74685  -0.69720  -0.68576
  Beta  occ. eigenvalues --   -0.68166  -0.67617  -0.63287  -0.61565  -0.58450
  Beta  occ. eigenvalues --   -0.55777  -0.53190  -0.52476  -0.49526  -0.47205
  Beta  occ. eigenvalues --   -0.45516  -0.45296  -0.43184  -0.42375  -0.41785
  Beta  occ. eigenvalues --   -0.40851  -0.40778  -0.40594  -0.40507  -0.40504
  Beta  occ. eigenvalues --   -0.39613  -0.39420  -0.38845  -0.38342  -0.37985
  Beta  occ. eigenvalues --   -0.36433  -0.35734  -0.35545  -0.34685  -0.33520
  Beta  occ. eigenvalues --   -0.33357  -0.33156  -0.32251  -0.30941  -0.23754
  Beta  occ. eigenvalues --   -0.23506  -0.23439  -0.22869  -0.22824  -0.22072
  Beta virt. eigenvalues --   -0.07544  -0.03251  -0.00831  -0.00530   0.00119
  Beta virt. eigenvalues --    0.00546   0.00819   0.01430   0.02078   0.02947
  Beta virt. eigenvalues --    0.03083   0.03439   0.03513   0.03671   0.04850

 Mulliken charges and spin densities:
               1          2
     1  C   -0.364153  -0.004277
     2  C    0.478874   0.040263
     3  C   -0.411238   0.043003
     4  C    0.400771   0.016647
     5  C   -0.545538   0.002962
     6  C    0.236916   0.022362
     7  C   -0.886746   0.091357
     8  O   -0.435237   0.206535
     9  C    0.150901   0.059096
    10  C   -0.324295   0.021487
    11  C    0.478868   0.040263
    12  C   -0.364167  -0.004277
    13  C   -0.411250   0.043004
    14  C    0.400804   0.016648
    15  C   -0.545548   0.002963
    16  C    0.236942   0.022362
    17  C   -0.886660   0.091359
    18  O   -0.435239   0.206534
    19  C    0.150834   0.059094
    20  C   -0.324356   0.021485
    21  H    0.162699   0.002840
    22  H    0.162418   0.002831
    23  H    0.157430   0.000124
    24  H    0.114592  -0.003069
    25  H    0.161545   0.000098
    26  H    0.161333   0.000139
    27  H    0.145627  -0.000475
    28  H    0.134111  -0.001923
    29  H    0.162380   0.002829
    30  H    0.157431   0.000124
    31  H    0.162737   0.002842
    32  H    0.114593  -0.003069
    33  H    0.145626  -0.000475
    34  H    0.161538   0.000098
    35  H    0.161341   0.000139
    36  H    0.134113  -0.001923
 Sum of Mulliken charges =  -1.00000   1.00000

 Dipole moment (field-independent basis, Debye):
    X=             -0.0000    Y=              0.0022    Z=              0.0017  Tot=              0.0028
 Quadrupole moment (field-independent basis, Debye-Ang):
   XX=           -114.6814   YY=           -135.8106   ZZ=           -143.5666
   XY=             -1.3654   XZ=              1.9694   YZ=             13.8112

  Exact polarizability: 550.947 -10.192 263.868  18.800-115.424 331.013
 Approx polarizability: 547.611  -9.187 306.666  17.019-134.963 384.961

                      1                      2                      3
                      A                      A                      A
 Frequencies --     17.1416                43.4254                63.5625
 Red. masses --      5.4709                 3.5410                 4.6226
 Frc consts  --      0.0009                 0.0039                 0.0110
 IR Inten    --     14.0566                 3.4959                 0.0000

                      4                      5                      6
                      A                      A                      A
 Frequencies --     86.2805                86.9937               132.2445
 Red. masses --      1.0587                 1.0766                 4.6094
 Frc consts  --      0.0046                 0.0048                 0.0475
 IR Inten    --      0.0371                 0.0001                 0.8997

                      7                      8                      9
                      A                      A                      A
 Frequencies --    158.6971               161.9962               186.7512
 Red. masses --      3.3890                 3.7418                 2.3285
 Frc consts  --      0.0503                 0.0579                 0.0478
 IR Inten    --      0.0000                 9.0421                10.0965

                     10                     11                     12
                      A                      A                      A
 Frequencies --    189.1271               218.3815               224.9084
 Red. masses --      1.8519                 1.1877                 1.3929
 Frc consts  --      0.0390                 0.0334                 0.0415
 IR Inten    --      0.0001                 0.4602                 0.0000

                     13                     14                     15
                      A                      A                      A
 Frequencies --    239.0993               273.9858               290.4348
 Red. masses --      3.3008                 4.0729                 3.8022
 Frc consts  --      0.1112                 0.1801                 0.1890
 IR Inten    --      0.0000                 1.2820                 0.0000

                     16                     17                     18
                      A                      A                      A
 Frequencies --    302.7269               327.6015               336.6032
 Red. masses --      2.6614                 4.9446                 5.5532
 Frc consts  --      0.1437                 0.3127                 0.3707
 IR Inten    --      9.2076                 0.0000                 0.0000

                     19                     20                     21
                      A                      A                      A
 Frequencies --    376.4474               377.6818               426.0336
 Red. masses --      7.2456                 5.7416                 4.8842
 Frc consts  --      0.6050                 0.4825                 0.5223
 IR Inten    --     14.7521                 0.0000                19.8291

                     22                     23                     24
                      A                      A                      A
 Frequencies --    457.4554               474.3903               494.6579
 Red. masses --      6.1672                 6.3079                 3.8521
 Frc consts  --      0.7604                 0.8364                 0.5553
 IR Inten    --      0.0000                 0.0000                 4.7580

                     25                     26                     27
                      A                      A                      A
 Frequencies --    506.6965               528.6493               552.1447
 Red. masses --      4.9493                 4.3651                 4.8608
 Frc consts  --      0.7487                 0.7188                 0.8731
 IR Inten    --      0.0000                 4.6462                 0.0000

                     28                     29                     30
                      A                      A                      A
 Frequencies --    554.0191               557.1566               570.7126
 Red. masses --      3.3212                 3.3933                 4.4394
 Frc consts  --      0.6006                 0.6206                 0.8519
 IR Inten    --      0.0000                10.4279                20.8774

                     31                     32                     33
                      A                      A                      A
 Frequencies --    649.9361               651.9175               673.9197
 Red. masses --      3.5809                 5.4005                 5.3679
 Frc consts  --      0.8912                 1.3523                 1.4364
 IR Inten    --      0.0000                 0.0000                28.2914

                     34                     35                     36
                      A                      A                      A
 Frequencies --    722.8719               747.5407               798.7619
 Red. masses --      3.9482                 6.7648                 5.9365
 Frc consts  --      1.2155                 2.2273                 2.2316
 IR Inten    --     34.8700                 1.9030                 0.0000

                     37                     38                     39
                      A                      A                      A
 Frequencies --    800.7050               844.5238               872.4356
 Red. masses --      5.9546                 6.9811                 1.3130
 Frc consts  --      2.2493                 2.9336                 0.5888
 IR Inten    --      0.0000                43.0124                 0.0000

                     40                     41                     42
                      A                      A                      A
 Frequencies --    874.1297               914.0927               916.2402
 Red. masses --      1.3350                 1.3918                 1.4002
 Frc consts  --      0.6010                 0.6852                 0.6925
 IR Inten    --     52.5540                 0.0010                11.4244

                     43                     44                     45
                      A                      A                      A
 Frequencies --    943.3228               977.1731               986.7040
 Red. masses --      3.4239                 4.6872                 1.6210
 Frc consts  --      1.7951                 2.6370                 0.9298
 IR Inten    --      0.0000                52.7419                28.3906

                     46                     47                     48
                      A                      A                      A
 Frequencies --    995.7087              1029.7204              1035.4389
 Red. masses --      3.5091                 1.5285                 1.9380
 Frc consts  --      2.0498                 0.9549                 1.2242
 IR Inten    --      0.0000                 2.4773                 0.0000

                     49                     50                     51
                      A                      A                      A
 Frequencies --   1041.5256              1054.2830              1054.2950
 Red. masses --      1.5018                 1.5403                 1.5480
 Frc consts  --      0.9599                 1.0087                 1.0138
 IR Inten    --      0.0000                 0.0007                12.0725

                     52                     53                     54
                      A                      A                      A
 Frequencies --   1057.8269              1058.1946              1075.0037
 Red. masses --      1.5233                 1.5251                 4.3470
 Frc consts  --      1.0043                 1.0062                 2.9598
 IR Inten    --      0.0003                 9.3193                 8.9071

                     55                     56                     57
                      A                      A                      A
 Frequencies --   1149.2927              1177.4324              1193.1136
 Red. masses --      1.8065                 1.4848                 4.9434
 Frc consts  --      1.4059                 1.2128                 4.1461
 IR Inten    --     22.0405                 0.0000               149.7918

                     58                     59                     60
                      A                      A                      A
 Frequencies --   1194.9077              1257.0004              1266.4265
 Red. masses --      3.2445                 1.8039                 4.1401
 Frc consts  --      2.7294                 1.6793                 3.9122
 IR Inten    --      0.0000                87.0011                31.1483

                     61                     62                     63
                      A                      A                      A
 Frequencies --   1277.0800              1325.5850              1347.0782
 Red. masses --      2.9629                 3.0774                 6.8040
 Frc consts  --      2.8471                 3.1861                 7.2745
 IR Inten    --      0.0000                 0.0000                32.6270

                     64                     65                     66
                      A                      A                      A
 Frequencies --   1366.1750              1389.6417              1402.9445
 Red. masses --      5.6532                 3.3063                 1.3395
 Frc consts  --      6.2166                 3.7618                 1.5534
 IR Inten    --      0.0000              1079.8438                15.2735

                     67                     68                     69
                      A                      A                      A
 Frequencies --   1404.9579              1409.9912              1410.1121
 Red. masses --      1.2634                 1.2711                 1.2374
 Frc consts  --      1.4693                 1.4889                 1.4497
 IR Inten    --      0.0000                 0.0076                25.6471

                     70                     71                     72
                      A                      A                      A
 Frequencies --   1417.8981              1421.9945              1455.0565
 Red. masses --      2.4128                 2.2714                 2.4676
 Frc consts  --      2.8580                 2.7060                 3.0782
 IR Inten    --    110.9988                 0.0000                 0.0000

                     73                     74                     75
                      A                      A                      A
 Frequencies --   1460.4356              1460.4682              1469.9157
 Red. masses --      1.0476                 1.0482                 1.4506
 Frc consts  --      1.3165                 1.3173                 1.8467
 IR Inten    --     17.2201                 0.1995               289.9158

                     76                     77                     78
                      A                      A                      A
 Frequencies --   1473.2498              1473.2600              1483.3010
 Red. masses --      1.0434                 1.0435                 1.2199
 Frc consts  --      1.3343                 1.3344                 1.5814
 IR Inten    --      0.0330                19.9659               147.4159

                     79                     80                     81
                      A                      A                      A
 Frequencies --   1487.1357              1488.6078              1506.0767
 Red. masses --      1.4659                 1.3926                 2.8422
 Frc consts  --      1.9101                 1.8182                 3.7984
 IR Inten    --      0.0000                 0.0001               967.2964

                     82                     83                     84
                      A                      A                      A
 Frequencies --   1516.9754              1558.6359              1600.3901
 Red. masses --      5.4958                 5.7423                 7.9172
 Frc consts  --      7.4514                 8.2192                11.9474
 IR Inten    --      0.0000               277.0812                 0.0000

                     85                     86                     87
                      A                      A                      A
 Frequencies --   1630.1876              1634.7655              3013.5773
 Red. masses --      5.4770                 5.6963                 1.0378
 Frc consts  --      8.5757                 8.9692                 5.5529
 IR Inten    --      0.0000                82.6345               216.7396

                     88                     89                     90
                      A                      A                      A
 Frequencies --   3013.9032              3030.6451              3030.7715
 Red. masses --      1.0378                 1.0375                 1.0375
 Frc consts  --      5.5541                 5.6146                 5.6149
 IR Inten    --      0.0006               148.5537                 0.0321

                     91                     92                     93
                      A                      A                      A
 Frequencies --   3057.7113              3057.7150              3094.9079
 Red. masses --      1.1001                 1.1001                 1.0998
 Frc consts  --      6.0600                 6.0601                 6.2067
 IR Inten    --      1.3630                64.6352                65.1100

                     94                     95                     96
                      A                      A                      A
 Frequencies --   3094.9404              3097.0438              3097.0895
 Red. masses --      1.0998                 1.0997                 1.0998
 Frc consts  --      6.2068                 6.2149                 6.2152
 IR Inten    --      1.5670                65.7439                 0.0047

                     97                     98                     99
                      A                      A                      A
 Frequencies --   3097.6865              3097.6914              3140.5733
 Red. masses --      1.0998                 1.0998                 1.0892
 Frc consts  --      6.2176                 6.2177                 6.3295
 IR Inten    --     74.7111                 0.4421               123.3464

                    100                    101                    102
                      A                      A                      A
 Frequencies --   3140.8101              3180.4899              3180.7857
 Red. masses --      1.0892                 1.0895                 1.0895
 Frc consts  --      6.3304                 6.4933                 6.4947
 IR Inten    --      0.0000                38.0339                 0.0879

 - Thermochemistry -
 -------------------
 Temperature   298.150 Kelvin.  Pressure   1.00000 Atm.
 Atom     1 has atomic number  6 and mass  12.00000

 Molecular mass:   264.11503 amu.
 Principal axes and moments of inertia in atomic units:
                           1         2         3
     Eigenvalues --  2865.761427429.70160**********
           X            0.99611  -0.08773  -0.00825
           Y           -0.04611  -0.59872   0.79963
           Z            0.07510   0.79614   0.60043
 This molecule is an asymmetric top.
 Rotational symmetry number  1.
 Warning -- assumption of classical behavior for rotation
           may cause significant error
 Rotational temperatures (Kelvin)      0.03022     0.01166     0.00845
 Rotational constants (GHZ):           0.62976     0.24291     0.17605
 Zero-point vibrational energy     750828.4 (Joules/Mol)
                                  179.45230 (Kcal/Mol)
 Warning -- explicit consideration of  30 degrees of freedom as
           vibrations may cause significant error
 Vibrational temperatures:     24.66    62.48    91.45   124.14   125.16
          (Kelvin)            190.27   228.33   233.08   268.69   272.11
                              314.20   323.59   344.01   394.20   417.87
                              435.56   471.35   484.30   541.62   543.40
                              612.97   658.18   682.54   711.70   729.02
                              760.61   794.41   797.11   801.62   821.13
                              935.11   937.96   969.62  1040.05  1075.54
                             1149.24  1152.04  1215.08  1255.24  1257.68
                             1315.18  1318.27  1357.23  1405.93  1419.65
                             1432.60  1481.54  1489.77  1498.52  1516.88
                             1516.90  1521.98  1522.51  1546.69  1653.58
                             1694.06  1716.62  1719.21  1808.54  1822.11
                             1837.43  1907.22  1938.15  1965.62  1999.38
                             2018.52  2021.42  2028.66  2028.84  2040.04
                             2045.93  2093.50  2101.24  2101.29  2114.88
                             2119.68  2119.69  2134.14  2139.66  2141.77
                             2166.91  2182.59  2242.53  2302.60  2345.48
                             2352.06  4335.87  4336.33  4360.42  4360.60
                             4399.36  4399.37  4452.88  4452.93  4455.96
                             4456.02  4456.88  4456.89  4518.58  4518.93
                             4576.02  4576.44

 Zero-point correction=                           0.285975 (Hartree/Particle)
 Thermal correction to Energy=                    0.304139
 Thermal correction to Enthalpy=                  0.305084
 Thermal correction to Gibbs Free Energy=         0.238731
 Sum of electronic and zero-point Energies=           -846.103631
 Sum of electronic and thermal Energies=              -846.085467
 Sum of electronic and thermal Enthalpies=            -846.084523
 Sum of electronic and thermal Free Energies=         -846.150876

                     E (Thermal)             CV                S
                      KCal/Mol        Cal/Mol-Kelvin    Cal/Mol-Kelvin
 Total                  190.850             70.173            139.651
 Electronic               0.000              0.000              1.377
 Translational            0.889              2.981             42.613
 Rotational               0.889              2.981             33.745
 Vibrational            189.073             64.211             61.916
 Vibration     1          0.593              1.986              6.940
 Vibration     2          0.595              1.980              5.096
 Vibration     3          0.597              1.972              4.343
 Vibration     4          0.601              1.959              3.743
 Vibration     5          0.601              1.958              3.727
 Vibration     6          0.612              1.921              2.913
 Vibration     7          0.621              1.893              2.565
 Vibration     8          0.622              1.889              2.526
 Vibration     9          0.632              1.858              2.260
 Vibration    10          0.633              1.855              2.236
 Vibration    11          0.646              1.813              1.972
 Vibration    12          0.650              1.803              1.919
 Vibration    13          0.657              1.781              1.810
 Vibration    14          0.676              1.721              1.571
 Vibration    15          0.686              1.692              1.471
 Vibration    16          0.694              1.669              1.402
 Vibration    17          0.711              1.620              1.272
 Vibration    18          0.717              1.602              1.228
 Vibration    19          0.747              1.520              1.053
 Vibration    20          0.748              1.518              1.048
 Vibration    21          0.788              1.414              0.872
 Vibration    22          0.816              1.344              0.774
 Vibration    23          0.831              1.307              0.725
 Vibration    24          0.850              1.262              0.672
 Vibration    25          0.862              1.235              0.642
 Vibration    26          0.884              1.187              0.590
 Vibration    27          0.907              1.135              0.540
 Vibration    28          0.909              1.131              0.536
 Vibration    29          0.913              1.124              0.530
 Vibration    30          0.927              1.095              0.503

                           ! Non-Optimized Parameters !
 Normal termination of Gaussian 16 at Sat Feb 10 19:39:43 2024.
