 Gaussian 16, Revision A.03,
 Gaussian 16:  ES64L-G16RevA.03 25-Dec-2016

 ----------------------------------------------------------------
 #P UB3LYP/6-311++G(d,p) SCRF=(PCM,Solvent=n,n-DiMethylFormamide)
 ----------------------------------------------------------------

 -------
 Reduced
 -------
 Symbolic Z-matrix:
 Charge = -2 Multiplicity = 1

                         Standard orientation:
 ---------------------------------------------------------------------
 Center     Atomic      Atomic             Coordinates (Angstroms)
 Number     Number       Type             X           Y           Z
 ---------------------------------------------------------------------
      1          8           0       -4.865458   -1.239693   -0.028621
      2          6           0       -3.659327   -0.533063   -0.013005
      3          6           0       -3.672128    0.885848   -0.019584
      4          6           0       -2.469075    1.566275    0.004112
      5          6           0       -1.226538    0.899435   -0.002231
      6          6           0        0.000014    1.684159   -0.000049
      7          8           0        0.000009    2.957136   -0.000003
      8          6           0        1.226560    0.899465    0.002103
      9          6           0        2.469110    1.566286   -0.004156
     10          6           0        3.672142    0.885840    0.019614
     11          6           0        3.659310   -0.533087    0.013130
     12          8           0        4.865402   -1.239745    0.029130
     13          6           0        2.473190   -1.222425   -0.008612
     14          6           0        1.222797   -0.543800    0.004380
     15          6           0       -0.000002   -1.322782   -0.000183
     16          8           0        0.000015   -2.602638   -0.000240
     17          6           0       -1.222824   -0.543836   -0.004612
     18          6           0       -2.473217   -1.222437    0.008534
     19          1           0       -5.550892   -0.663719    0.339080
     20          1           0       -4.619391    1.420570   -0.058748
     21          1           0       -2.442199    2.651209    0.005972
     22          1           0        2.442289    2.651227   -0.006041
     23          1           0        4.619411    1.420544    0.058910
     24          1           0        5.551062   -0.663690   -0.338004
     25          1           0        2.458237   -2.305944   -0.032914
     26          1           0       -2.458324   -2.305955    0.032972
 ---------------------------------------------------------------------

 SCF Done:  E(UB3LYP) =  -839.686879802     A.U. after   19 cycles

 The electronic state is 1-A.
 Alpha  occ. eigenvalues --  -19.13852 -19.13852 -19.02383 -19.01184 -10.20893
 Alpha  occ. eigenvalues --  -10.20892 -10.17746 -10.16424 -10.15174 -10.15174
 Alpha  occ. eigenvalues --  -10.15041 -10.15041 -10.13895 -10.13894 -10.13516
 Alpha  occ. eigenvalues --  -10.13515 -10.13240 -10.13240  -1.03978  -1.03977
 Alpha  occ. eigenvalues --   -0.94671  -0.93308  -0.82669  -0.82017  -0.74738
 Alpha  occ. eigenvalues --   -0.72579  -0.72559  -0.70223  -0.63738  -0.60985
 Alpha  occ. eigenvalues --   -0.60234  -0.56479  -0.55237  -0.52251  -0.51897
 Alpha  occ. eigenvalues --   -0.48335  -0.46588  -0.45302  -0.43832  -0.41777
 Alpha  occ. eigenvalues --   -0.40789  -0.40237  -0.40029  -0.38958  -0.38787
 Alpha  occ. eigenvalues --   -0.37771  -0.37210  -0.35921  -0.35210  -0.35054
 Alpha  occ. eigenvalues --   -0.33033  -0.32470  -0.31827  -0.31304  -0.30075
 Alpha  occ. eigenvalues --   -0.28345  -0.23249  -0.22365  -0.21393  -0.20260
 Alpha  occ. eigenvalues --   -0.20240  -0.19189  -0.09920
 Alpha virt. eigenvalues --   -0.02464  -0.00225   0.00201   0.00607   0.01479
 Alpha virt. eigenvalues --    0.01845   0.02368   0.02491   0.03959   0.04508
 Alpha virt. eigenvalues --    0.04688   0.05239   0.06455   0.06717   0.06766

  Beta  occ. eigenvalues --  -19.13852 -19.13852 -19.02383 -19.01184 -10.20893
  Beta  occ. eigenvalues --  -10.20892 -10.17746 -10.16424 -10.15174 -10.15174
  Beta  occ. eigenvalues --  -10.15041 -10.15041 -10.13895 -10.13894 -10.13516
  Beta  occ. eigenvalues --  -10.13515 -10.13240 -10.13240  -1.03978  -1.03977
  Beta  occ. eigenvalues --   -0.94671  -0.93308  -0.82669  -0.82017  -0.74738
  Beta  occ. eigenvalues --   -0.72579  -0.72559  -0.70223  -0.63738  -0.60985
  Beta  occ. eigenvalues --   -0.60234  -0.56479  -0.55237  -0.52251  -0.51897
  Beta  occ. eigenvalues --   -0.48335  -0.46588  -0.45302  -0.43832  -0.41777
  Beta  occ. eigenvalues --   -0.40789  -0.40237  -0.40029  -0.38958  -0.38787
  Beta  occ. eigenvalues --   -0.37771  -0.37210  -0.35921  -0.35210  -0.35054
  Beta  occ. eigenvalues --   -0.33033  -0.32470  -0.31827  -0.31304  -0.30075
  Beta  occ. eigenvalues --   -0.28345  -0.23249  -0.22365  -0.21393  -0.20260
  Beta  occ. eigenvalues --   -0.20240  -0.19189  -0.09920
  Beta virt. eigenvalues --   -0.02464  -0.00225   0.00201   0.00607   0.01479
  Beta virt. eigenvalues --    0.01845   0.02368   0.02491   0.03959   0.04508
  Beta virt. eigenvalues --    0.04688   0.05239   0.06455   0.06717   0.06766

 Mulliken charges and spin densities:
               1          2
     1  O   -0.329610  -0.000000
     2  C   -0.607451   0.000000
     3  C   -0.016506  -0.000000
     4  C   -0.045283   0.000000
     5  C    0.076215  -0.000000
     6  C   -0.423467  -0.000000
     7  O   -0.630379  -0.000000
     8  C    0.076083  -0.000000
     9  C   -0.045272   0.000000
    10  C   -0.016475  -0.000000
    11  C   -0.607546   0.000000
    12  O   -0.329579  -0.000000
    13  C   -0.295785  -0.000000
    14  C    0.582466   0.000000
    15  C   -0.519551   0.000000
    16  O   -0.677691  -0.000000
    17  C    0.582283   0.000000
    18  C   -0.295696  -0.000000
    19  H    0.285486  -0.000000
    20  H    0.170557  -0.000000
    21  H    0.149044   0.000000
    22  H    0.149046  -0.000000
    23  H    0.170543   0.000000
    24  H    0.285496   0.000000
    25  H    0.156533   0.000000
    26  H    0.156540  -0.000000
 Sum of Mulliken charges =  -2.00000  -0.00000

 Dipole moment (field-independent basis, Debye):
    X=              0.0009    Y=              3.0756    Z=              0.0021  Tot=              3.0756
 Quadrupole moment (field-independent basis, Debye-Ang):
   XX=           -121.4698   YY=           -171.7936   ZZ=           -115.6744
   XY=              0.0007   XZ=             -8.0918   YZ=             -0.0022

 Normal termination of Gaussian 16 at Tue Jan 16 06:17:55 2024.
