 Q-Chem 5.4, Q-Chem, Inc., Pleasanton, CA (2021)
 Q-Chem 5.4.0 for Intel X86 EM64T Linux

User input:
--------------------------------------------------------------
$molecule
-2 1
O                 -4.9048290000      1.1586620000      0.2507000000
C                 -3.6765580000      0.4980440000      0.1544930000
C                 -3.6413680000     -0.9176560000      0.0646620000
C                 -2.4172900000     -1.5517130000     -0.0377330000
C                 -1.1982630000     -0.8430180000     -0.0193800000
C                  0.0534320000     -1.5816800000     -0.1080620000
O                  0.0962970000     -2.8509690000     -0.1948960000
C                  1.2522670000     -0.7554700000     -0.0897160000
C                  2.5162200000     -1.3765690000     -0.1623720000
C                  3.6944430000     -0.6536890000     -0.1720610000
C                  3.6340270000      0.7602370000     -0.0685110000
O                  4.8146510000      1.5088400000     -0.0687460000
C                  2.4265080000      1.4039140000      0.0320880000
C                  1.1998350000      0.6836350000      0.0065110000
C                 -0.0478480000      1.4165450000      0.0970760000
O                 -0.0909320000      2.6926920000      0.1843890000
C                 -1.2430890000      0.5960460000      0.0812920000
C                 -2.5154760000      1.2290740000      0.1480940000
H                 -5.5809410000      0.5846770000     -0.1368360000
H                 -4.5685330000     -1.4871670000      0.0927560000
H                 -2.3539570000     -2.6324250000     -0.1142790000
H                  2.5260200000     -2.4594490000     -0.2337390000
H                  4.6576270000     -1.1504980000     -0.2731960000
H                  5.5297700000      0.9341780000      0.2396770000
H                  2.3757910000      2.4821300000      0.1305970000
H                 -2.5378030000      2.3116270000      0.1971920000
$end
$rem
MAX_SCF_CYCLES=200
BASIS  =  6-311++G(d,p)
GUI  =  2
JOB_TYPE  =  SP
METHOD  =  B3LYP
SOLVENT_METHOD = PCM
$end
$pcm
theory = CPCM
$end
$solvent
dielectric 37.219
opticaldielectric 1.43
$end

--------------------------------------------------------------

             Standard Nuclear Orientation (Angstroms)
    I     Atom           X                Y                Z
 ----------------------------------------------------------------
    1      O      -4.9048290000     1.1586620000     0.2507000000
    2      C      -3.6765580000     0.4980440000     0.1544930000
    3      C      -3.6413680000    -0.9176560000     0.0646620000
    4      C      -2.4172900000    -1.5517130000    -0.0377330000
    5      C      -1.1982630000    -0.8430180000    -0.0193800000
    6      C       0.0534320000    -1.5816800000    -0.1080620000
    7      O       0.0962970000    -2.8509690000    -0.1948960000
    8      C       1.2522670000    -0.7554700000    -0.0897160000
    9      C       2.5162200000    -1.3765690000    -0.1623720000
   10      C       3.6944430000    -0.6536890000    -0.1720610000
   11      C       3.6340270000     0.7602370000    -0.0685110000
   12      O       4.8146510000     1.5088400000    -0.0687460000
   13      C       2.4265080000     1.4039140000     0.0320880000
   14      C       1.1998350000     0.6836350000     0.0065110000
   15      C      -0.0478480000     1.4165450000     0.0970760000
   16      O      -0.0909320000     2.6926920000     0.1843890000
   17      C      -1.2430890000     0.5960460000     0.0812920000
   18      C      -2.5154760000     1.2290740000     0.1480940000
   19      H      -5.5809410000     0.5846770000    -0.1368360000
   20      H      -4.5685330000    -1.4871670000     0.0927560000
   21      H      -2.3539570000    -2.6324250000    -0.1142790000
   22      H       2.5260200000    -2.4594490000    -0.2337390000
   23      H       4.6576270000    -1.1504980000    -0.2731960000
   24      H       5.5297700000     0.9341780000     0.2396770000
   25      H       2.3757910000     2.4821300000     0.1305970000
   26      H      -2.5378030000     2.3116270000     0.1971920000
 ----------------------------------------------------------------

    9    -839.6980028481      7.36e-06  Convergence criterion met
 Total energy in the final basis set =     -839.6980028481

                    Orbital Energies (a.u.)
 --------------------------------------------------------------

 Alpha MOs
 -- Occupied --
-19.1375 -19.1375 -19.0285 -19.0175 -10.2104 -10.2104 -10.1810 -10.1682
-10.1530 -10.1530 -10.1509 -10.1509 -10.1407 -10.1407 -10.1382 -10.1382
-10.1351 -10.1351  -1.0387  -1.0387  -0.9516  -0.9388  -0.8290  -0.8219
 -0.7495  -0.7278  -0.7274  -0.7039  -0.6398  -0.6113  -0.6033  -0.5663
 -0.5528  -0.5244  -0.5193  -0.4848  -0.4675  -0.4542  -0.4392  -0.4200
 -0.4093  -0.4037  -0.4021  -0.3911  -0.3900  -0.3792  -0.3748  -0.3642
 -0.3536  -0.3522  -0.3325  -0.3295  -0.3199  -0.3147  -0.3035  -0.2859
 -0.2345  -0.2272  -0.2168  -0.2080  -0.2041  -0.1977  -0.1032

          Ground-State Mulliken Net Atomic Charges

     Atom                 Charge (a.u.)
  ----------------------------------------
      1 O                    -0.346627
      2 C                    -0.619794
      3 C                    -0.013862
      4 C                    -0.049276
      5 C                     0.049538
      6 C                    -0.349330
      7 O                    -0.656047
      8 C                     0.050022
      9 C                    -0.048906
     10 C                    -0.012506
     11 C                    -0.620460
     12 O                    -0.346238
     13 C                    -0.310785
     14 C                     0.562141
     15 C                    -0.450481
     16 O                    -0.705026
     17 C                     0.563346
     18 C                    -0.311152
     19 H                     0.304421
     20 H                     0.193586
     21 H                     0.151929
     22 H                     0.152161
     23 H                     0.193583
     24 H                     0.304310
     25 H                     0.157691
     26 H                     0.157762
  ----------------------------------------
  Sum of atomic charges =    -2.000000

                    Cartesian Multipole Moments
 -----------------------------------------------------------------
    Charge (ESU x 10^10)
                -9.6064
    Dipole Moment (Debye)
         X       0.1408      Y      -4.1822      Z      -0.2883
       Tot       4.1945
    Quadrupole Moments (Debye-Ang)
        XX    -116.1697     XY       1.3396     YY    -173.0078
        XZ       8.6018     YZ      -3.5872     ZZ    -116.2873

 Total job time:  50.28s(wall), 342.88s(cpu)
        *  Thank you very much for using Q-Chem.  Have a nice day.  *
