 Gaussian 16, Revision A.03,
 Gaussian 16:  ES64L-G16RevA.03 25-Dec-2016

 --------------------------------------
 #P UB3LYP/6-311++G(d,p) nosym opt freq
 --------------------------------------

 -------
 Reduced
 -------
 Symbolic Z-matrix:
 Charge = -2 Multiplicity = 1

 SCF Done:  E(UB3LYP) =  -693.474892362     A.U. after   41 cycles
 SCF Done:  E(UB3LYP) =  -693.474892365     A.U. after   27 cycles
 Optimization completed.
    -- Stationary point found.
 Normal termination of Gaussian 16 at Tue Jan  9 20:55:39 2024.

 ----------------------------------------------------------------------
 #P Geom=AllCheck Guess=TCheck SCRF=Check GenChk UB3LYP/6-311++G(d,p) F
 req
 ----------------------------------------------------------------------

 Structure from the checkpoint file:  "341-an.chk"
 -------
 Reduced
 -------
 Charge = -2 Multiplicity = 1

                          Input orientation:
 ---------------------------------------------------------------------
 Center     Atomic      Atomic             Coordinates (Angstroms)
 Number     Number       Type             X           Y           Z
 ---------------------------------------------------------------------
      1          6           0       -0.320316   -2.001784    0.964985
      2          6           0       -0.232823   -0.951707   -0.177327
      3          6           0       -0.558748   -1.651128   -1.529104
      4          6           0       -1.279256    0.142000    0.099299
      5          6           0       -2.635692   -0.188085    0.089860
      6          6           0       -3.639230    0.747389    0.378721
      7          6           0       -3.268763    2.069578    0.653841
      8          6           0       -1.931780    2.428061    0.662941
      9          6           0       -0.903162    1.475145    0.421479
     10          6           0        0.484121    1.916895    0.476625
     11          8           0        0.785803    3.117236    0.763736
     12          6           0        1.505726    0.942781    0.115909
     13          6           0        2.861951    1.368693    0.054885
     14          6           0        3.885063    0.488525   -0.252737
     15          6           0        3.596154   -0.851861   -0.537351
     16          6           0        2.257897   -1.269817   -0.529379
     17          6           0        1.205979   -0.407338   -0.215486
     18          1           0        0.393967   -2.814768    0.806380
     19          1           0       -1.323311   -2.433850    1.024885
     20          1           0       -0.093396   -1.529555    1.925242
     21          1           0       -1.563815   -2.084706   -1.523539
     22          1           0       -0.503885   -0.933836   -2.352067
     23          1           0        0.144363   -2.463228   -1.739566
     24          1           0       -2.937834   -1.206320   -0.136603
     25          1           0       -4.683827    0.447528    0.373883
     26          1           0       -4.035083    2.814927    0.860710
     27          1           0       -1.617104    3.445626    0.863965
     28          1           0        3.055799    2.413051    0.270767
     29          1           0        4.916569    0.836564   -0.273932
     30          1           0        4.387822   -1.557701   -0.774373
     31          1           0        2.046810   -2.308315   -0.766653
 ---------------------------------------------------------------------

 SCF Done:  E(UB3LYP) =  -693.474892365     A.U. after    3 cycles

 Alpha  occ. eigenvalues --  -18.83076  -9.98958  -9.98293  -9.96366  -9.96366
 Alpha  occ. eigenvalues --   -9.96165  -9.95743  -9.95742  -9.95669  -9.95414
 Alpha  occ. eigenvalues --   -9.95414  -9.95153  -9.95152  -9.94795  -9.94794
 Alpha  occ. eigenvalues --   -9.94492  -9.94491  -0.75028  -0.65295  -0.62965
 Alpha  occ. eigenvalues --   -0.59667  -0.54432  -0.52859  -0.51807  -0.51029
 Alpha  occ. eigenvalues --   -0.48570  -0.42637  -0.41651  -0.39275  -0.37022
 Alpha  occ. eigenvalues --   -0.34185  -0.31856  -0.30826  -0.26535  -0.24515
 Alpha  occ. eigenvalues --   -0.24465  -0.23647  -0.22692  -0.22174  -0.21885
 Alpha  occ. eigenvalues --   -0.20246  -0.19602  -0.18614  -0.17241  -0.17144
 Alpha  occ. eigenvalues --   -0.16678  -0.16054  -0.14604  -0.14146  -0.14117
 Alpha  occ. eigenvalues --   -0.13093  -0.11139  -0.10552  -0.09725  -0.03547
 Alpha  occ. eigenvalues --   -0.03122  -0.02738  -0.02267  -0.00107   0.12545
 Alpha virt. eigenvalues --    0.14097   0.14350   0.15018   0.16053   0.16589
 Alpha virt. eigenvalues --    0.17121   0.18114   0.18763   0.19348   0.19530
 Alpha virt. eigenvalues --    0.20024   0.20553   0.20841   0.21044   0.21333

  Beta  occ. eigenvalues --  -18.83076  -9.98958  -9.98293  -9.96366  -9.96366
  Beta  occ. eigenvalues --   -9.96165  -9.95743  -9.95742  -9.95669  -9.95414
  Beta  occ. eigenvalues --   -9.95414  -9.95153  -9.95152  -9.94795  -9.94794
  Beta  occ. eigenvalues --   -9.94492  -9.94491  -0.75028  -0.65295  -0.62965
  Beta  occ. eigenvalues --   -0.59667  -0.54432  -0.52859  -0.51807  -0.51029
  Beta  occ. eigenvalues --   -0.48570  -0.42637  -0.41651  -0.39275  -0.37022
  Beta  occ. eigenvalues --   -0.34185  -0.31856  -0.30826  -0.26535  -0.24515
  Beta  occ. eigenvalues --   -0.24465  -0.23647  -0.22692  -0.22174  -0.21885
  Beta  occ. eigenvalues --   -0.20246  -0.19602  -0.18614  -0.17241  -0.17144
  Beta  occ. eigenvalues --   -0.16678  -0.16054  -0.14604  -0.14146  -0.14117
  Beta  occ. eigenvalues --   -0.13093  -0.11139  -0.10552  -0.09725  -0.03547
  Beta  occ. eigenvalues --   -0.03122  -0.02738  -0.02267  -0.00107   0.12545
  Beta virt. eigenvalues --    0.14097   0.14350   0.15018   0.16053   0.16589
  Beta virt. eigenvalues --    0.17121   0.18114   0.18763   0.19348   0.19530
  Beta virt. eigenvalues --    0.20024   0.20553   0.20841   0.21044   0.21333

 Mulliken charges and spin densities:
               1          2
     1  C    0.056013   0.000000
     2  C   -0.965381   0.000000
     3  C    1.266811  -0.000000
     4  C   -0.332569   0.000000
     5  C   -0.929011   0.000000
     6  C    1.642431  -0.000000
     7  C    0.242263   0.000000
     8  C   -0.277127  -0.000000
     9  C    0.888325  -0.000000
    10  C   -0.448676  -0.000000
    11  O   -0.428365  -0.000000
    12  C    0.884508  -0.000000
    13  C   -0.276668  -0.000000
    14  C    0.243743   0.000000
    15  C    1.642064  -0.000000
    16  C   -0.927902  -0.000000
    17  C   -0.338358   0.000000
    18  H   -0.190302   0.000000
    19  H   -0.189012   0.000000
    20  H    0.165102  -0.000000
    21  H   -0.787044   0.000000
    22  H    0.198570   0.000000
    23  H   -0.787460   0.000000
    24  H    0.287337  -0.000000
    25  H   -1.320635   0.000000
    26  H   -0.316193   0.000000
    27  H    0.173891   0.000000
    28  H    0.173892  -0.000000
    29  H   -0.316707   0.000000
    30  H   -1.320979  -0.000000
    31  H    0.287439  -0.000000
 Sum of Mulliken charges =  -2.00000  -0.00000

 Dipole moment (field-independent basis, Debye):
    X=             -0.2033    Y=             -1.3749    Z=              0.8226  Tot=              1.6150
 Quadrupole moment (field-independent basis, Debye-Ang):
   XX=           -255.9270   YY=           -185.1888   ZZ=           -142.7422
   XY=             14.4277   XZ=             11.0364   YZ=            -17.5139

  Exact polarizability:5519.518-622.7492666.690-514.017 418.268 930.629
 Approx polarizability:****************4351.439********1265.2621189.092

                      1                      2                      3
                      A                      A                      A
 Frequencies --     31.0805               101.3607               103.3895
 Red. masses --      4.3310                 3.6810                 4.0321
 Frc consts  --      0.0025                 0.0223                 0.0254
 IR Inten    --      2.6516                 1.7110                 2.6955

                      4                      5                      6
                      A                      A                      A
 Frequencies --    162.5716               182.4476               224.1036
 Red. masses --      5.7545                 1.7932                 3.9721
 Frc consts  --      0.0896                 0.0352                 0.1175
 IR Inten    --     28.4777                 0.3058                 0.3196

                      7                      8                      9
                      A                      A                      A
 Frequencies --    246.2766               275.0371               299.9057
 Red. masses --      1.4913                 1.0913                 3.3135
 Frc consts  --      0.0533                 0.0486                 0.1756
 IR Inten    --     24.8711                13.8814                 0.3099

                     10                     11                     12
                      A                      A                      A
 Frequencies --    304.2209               336.9969               346.8356
 Red. masses --      3.3192                 3.5845                 3.5196
 Frc consts  --      0.1810                 0.2398                 0.2495
 IR Inten    --      0.8895                15.5863                11.9650

                     13                     14                     15
                      A                      A                      A
 Frequencies --    351.9773               367.7711               386.5241
 Red. masses --      4.7807                 5.1503                 3.5604
 Frc consts  --      0.3490                 0.4104                 0.3134
 IR Inten    --      1.9724                 3.4896                67.4239

                     16                     17                     18
                      A                      A                      A
 Frequencies --    426.4103               463.4356               498.8135
 Red. masses --      7.3874                 3.3031                 4.3731
 Frc consts  --      0.7914                 0.4180                 0.6411
 IR Inten    --     11.1314                91.7492                22.9440

                     19                     20                     21
                      A                      A                      A
 Frequencies --    549.8138               576.5294               596.2841
 Red. masses --      3.7078                 3.4677                 5.4963
 Frc consts  --      0.6604                 0.6791                 1.1514
 IR Inten    --     13.4900                28.6528                25.4623

                     22                     23                     24
                      A                      A                      A
 Frequencies --    621.4641               642.1746               651.8866
 Red. masses --      4.8226                 5.3658                 3.4718
 Frc consts  --      1.0974                 1.3037                 0.8693
 IR Inten    --      4.4907                 4.6993                14.3840

                     25                     26                     27
                      A                      A                      A
 Frequencies --    676.8161               740.5056               760.6980
 Red. masses --      5.9684                 3.9051                 1.5546
 Frc consts  --      1.6108                 1.2617                 0.5300
 IR Inten    --      4.9218                12.4643               102.6558

                     28                     29                     30
                      A                      A                      A
 Frequencies --    771.3275               771.9870               780.5368
 Red. masses --      1.2793                 5.5177                 2.6885
 Frc consts  --      0.4484                 1.9374                 0.9651
 IR Inten    --      2.3862                16.7841               170.3957

                     31                     32                     33
                      A                      A                      A
 Frequencies --    813.7301               851.1174               853.7787
 Red. masses --      2.7313                 1.4315                 1.6586
 Frc consts  --      1.0656                 0.6110                 0.7123
 IR Inten    --     43.5000                19.9380               104.4764

                     34                     35                     36
                      A                      A                      A
 Frequencies --    911.7275               921.9858               928.8932
 Red. masses --      2.8315                 1.5346                 1.4029
 Frc consts  --      1.3868                 0.7686                 0.7132
 IR Inten    --     11.2644                96.1811                10.3501

                     37                     38                     39
                      A                      A                      A
 Frequencies --    931.9681               933.7486               965.3797
 Red. masses --      4.9327                 1.4259                 1.2779
 Frc consts  --      2.5243                 0.7325                 0.7017
 IR Inten    --     20.0962                 6.5466                 5.6494

                     40                     41                     42
                      A                      A                      A
 Frequencies --    965.7443              1027.2803              1037.1136
 Red. masses --      1.2710                 1.3890                 2.6067
 Frc consts  --      0.6984                 0.8636                 1.6520
 IR Inten    --      0.9816                43.2480                 4.8888

                     43                     44                     45
                      A                      A                      A
 Frequencies --   1038.1990              1090.9217              1093.1808
 Red. masses --      2.1825                 2.5510                 2.4072
 Frc consts  --      1.3860                 1.7888                 1.6949
 IR Inten    --    206.6927                 5.9193                 9.5746

                     46                     47                     48
                      A                      A                      A
 Frequencies --   1101.1118              1129.9926              1132.5000
 Red. masses --      1.5842                 1.9275                 2.5468
 Frc consts  --      1.1317                 1.4501                 1.9245
 IR Inten    --     30.1889                32.6478                73.7509

                     49                     50                     51
                      A                      A                      A
 Frequencies --   1151.2172              1161.2955              1188.4243
 Red. masses --      1.1991                 1.1249                 3.0356
 Frc consts  --      0.9363                 0.8938                 2.5260
 IR Inten    --    255.1174               207.8720               100.9675

                     52                     53                     54
                      A                      A                      A
 Frequencies --   1205.5834              1211.1082              1271.4842
 Red. masses --      1.8672                 2.9517                 1.7414
 Frc consts  --      1.5990                 2.5508                 1.6587
 IR Inten    --     84.6815               111.9413               194.6492

                     55                     56                     57
                      A                      A                      A
 Frequencies --   1281.3954              1323.7594              1338.4812
 Red. masses --      2.4040                 2.9994                 8.7588
 Frc consts  --      2.3257                 3.0967                 9.2452
 IR Inten    --     22.6624                 0.4126                39.4697

                     58                     59                     60
                      A                      A                      A
 Frequencies --   1349.8297              1381.2196              1406.6776
 Red. masses --      6.9674                 1.1936                 1.2210
 Frc consts  --      7.4796                 1.3417                 1.4235
 IR Inten    --     25.0304               204.4444               237.1921

                     61                     62                     63
                      A                      A                      A
 Frequencies --   1422.6128              1441.7000              1474.4241
 Red. masses --      3.2192                 2.2585                 3.0990
 Frc consts  --      3.8386                 2.7658                 3.9694
 IR Inten    --    906.8313               229.2292               107.0210

                     64                     65                     66
                      A                      A                      A
 Frequencies --   1476.0741              1480.3170              1482.0579
 Red. masses --      1.6112                 1.2792                 1.0687
 Frc consts  --      2.0683                 1.6515                 1.3831
 IR Inten    --     40.0438                25.6980                36.0287

                     67                     68                     69
                      A                      A                      A
 Frequencies --   1492.0221              1499.6484              1503.2385
 Red. masses --      1.0684                 2.6843                 1.1953
 Frc consts  --      1.4013                 3.5569                 1.5914
 IR Inten    --    388.8564               141.3346                10.2725

                     70                     71                     72
                      A                      A                      A
 Frequencies --   1541.8531              1561.3345              1582.5957
 Red. masses --      4.4030                 6.0472                 4.5484
 Frc consts  --      6.1671                 8.6856                 6.7119
 IR Inten    --     75.2058               243.1820               316.2975

                     73                     74                     75
                      A                      A                      A
 Frequencies --   1601.6782              3005.3090              3014.2676
 Red. masses --      5.4922                 1.0347                 1.0332
 Frc consts  --      8.3013                 5.5062                 5.5312
 IR Inten    --     84.1529                 0.9717                23.7895

                     76                     77                     78
                      A                      A                      A
 Frequencies --   3065.2174              3079.7305              3080.6266
 Red. masses --      1.1007                 1.1018                 1.1024
 Frc consts  --      6.0933                 6.1572                 6.1638
 IR Inten    --      0.9492                72.5922                78.8731

                     79                     80                     81
                      A                      A                      A
 Frequencies --   3087.1604              3105.0428              3105.1170
 Red. masses --      1.1016                 1.0864                 1.0863
 Frc consts  --      6.1856                 6.1714                 6.1712
 IR Inten    --     20.6806                70.5501               409.1027

                     82                     83                     84
                      A                      A                      A
 Frequencies --   3131.3849              3132.0383              3144.1747
 Red. masses --      1.0867                 1.0867                 1.0935
 Frc consts  --      6.2784                 6.2810                 6.3690
 IR Inten    --    483.2025                72.2251               225.7691

                     85                     86                     87
                      A                      A                      A
 Frequencies --   3144.3708              3177.4660              3177.8471
 Red. masses --      1.0937                 1.0899                 1.0901
 Frc consts  --      6.3710                 6.4831                 6.4861
 IR Inten    --     50.8638                 8.9252                14.5732

 - Thermochemistry -
 -------------------
 Temperature   298.150 Kelvin.  Pressure   1.00000 Atm.
 Atom     1 has atomic number  6 and mass  12.00000

 Molecular mass:   222.10447 amu.
 Principal axes and moments of inertia in atomic units:
                           1         2         3
     Eigenvalues --  2104.339094315.230246025.52375
           X            0.96905   0.23607   0.07214
           Y           -0.21416   0.94937  -0.22986
           Z           -0.12275   0.20730   0.97055
 This molecule is an asymmetric top.
 Rotational symmetry number  1.
 Warning -- assumption of classical behavior for rotation
           may cause significant error
 Rotational temperatures (Kelvin)      0.04116     0.02007     0.01437
 Rotational constants (GHZ):           0.85763     0.41823     0.29952
 Zero-point vibrational energy     653504.0 (Joules/Mol)
                                  156.19121 (Kcal/Mol)
 Warning -- explicit consideration of  21 degrees of freedom as
           vibrations may cause significant error
 Vibrational temperatures:     44.72   145.84   148.75   233.90   262.50
          (Kelvin)            322.44   354.34   395.72   431.50   437.71
                              484.86   499.02   506.42   529.14   556.12
                              613.51   666.78   717.68   791.06   829.50
                              857.92   894.15   923.95   937.92   973.79
                             1065.42  1094.47  1109.77  1110.72  1123.02
                             1170.78  1224.57  1228.40  1311.77  1326.53
                             1336.47  1340.89  1343.46  1388.97  1389.49
                             1478.03  1492.18  1493.74  1569.59  1572.84
                             1584.25  1625.81  1629.41  1656.34  1670.85
                             1709.88  1734.57  1742.51  1829.38  1843.64
                             1904.59  1925.78  1942.10  1987.27  2023.90
                             2046.82  2074.28  2121.37  2123.74  2129.85
                             2132.35  2146.69  2157.66  2162.82  2218.38
                             2246.41  2277.00  2304.46  4323.97  4336.86
                             4410.16  4431.05  4432.33  4441.74  4467.46
                             4467.57  4505.36  4506.30  4523.77  4524.05
                             4571.66  4572.21

 Zero-point correction=                           0.248907 (Hartree/Particle)
 Thermal correction to Energy=                    0.262601
 Thermal correction to Enthalpy=                  0.263545
 Thermal correction to Gibbs Free Energy=         0.209129
 Sum of electronic and zero-point Energies=           -693.225986
 Sum of electronic and thermal Energies=              -693.212291
 Sum of electronic and thermal Enthalpies=            -693.211347
 Sum of electronic and thermal Free Energies=         -693.265763

                     E (Thermal)             CV                S
                      KCal/Mol        Cal/Mol-Kelvin    Cal/Mol-Kelvin
 Total                  164.785             56.853            114.529
 Electronic               0.000              0.000              0.000
 Translational            0.889              2.981             42.097
 Rotational               0.889              2.981             32.370
 Vibrational            163.007             50.891             40.062
 Vibration     1          0.594              1.983              5.759
 Vibration     2          0.604              1.948              3.428
 Vibration     3          0.605              1.946              3.389
 Vibration     4          0.623              1.888              2.520
 Vibration     5          0.630              1.864              2.303
 Vibration     6          0.649              1.804              1.926
 Vibration     7          0.661              1.769              1.757
 Vibration     8          0.677              1.719              1.564
 Vibration     9          0.692              1.674              1.417
 Vibration    10          0.695              1.666              1.394
 Vibration    11          0.718              1.602              1.226
 Vibration    12          0.725              1.582              1.181
 Vibration    13          0.729              1.571              1.157
 Vibration    14          0.740              1.539              1.089
 Vibration    15          0.755              1.499              1.014
 Vibration    16          0.788              1.413              0.870
 Vibration    17          0.821              1.331              0.756
 Vibration    18          0.854              1.253              0.661
 Vibration    19          0.905              1.140              0.545
 Vibration    20          0.933              1.082              0.492
 Vibration    21          0.954              1.040              0.456

 Optimization completed.
    -- Stationary point found.
 Normal termination of Gaussian 16 at Tue Jan  9 22:24:17 2024.
