 Gaussian 16, Revision A.03,
 Gaussian 16:  ES64L-G16RevA.03 25-Dec-2016

 ----------------------------------------------------------------------
 #P UB3LYP/6-311++G(d,p) nosym opt freq SCRF=(PCM,Solvent=n,n-DiMethylF
 ormamide)
 ----------------------------------------------------------------------

 -------
 Radical
 -------
 Symbolic Z-matrix:
 Charge = -1 Multiplicity = 2

 SCF Done:  E(UB3LYP) =  -1012.27440397     A.U. after   22 cycles
 SCF Done:  E(UB3LYP) =  -1012.27334459     A.U. after   21 cycles
 SCF Done:  E(UB3LYP) =  -1012.27477630     A.U. after   16 cycles
 SCF Done:  E(UB3LYP) =  -1012.27483140     A.U. after   16 cycles
 SCF Done:  E(UB3LYP) =  -1012.27482337     A.U. after   16 cycles
 SCF Done:  E(UB3LYP) =  -1012.27484054     A.U. after   16 cycles
 SCF Done:  E(UB3LYP) =  -1012.27484768     A.U. after   13 cycles
 SCF Done:  E(UB3LYP) =  -1012.27484841     A.U. after   13 cycles
 SCF Done:  E(UB3LYP) =  -1012.27484919     A.U. after   13 cycles
 SCF Done:  E(UB3LYP) =  -1012.27485107     A.U. after   14 cycles
 SCF Done:  E(UB3LYP) =  -1012.27485374     A.U. after   15 cycles
 SCF Done:  E(UB3LYP) =  -1012.27485466     A.U. after   13 cycles
 SCF Done:  E(UB3LYP) =  -1012.27485514     A.U. after   13 cycles
 SCF Done:  E(UB3LYP) =  -1012.27485520     A.U. after   11 cycles
 SCF Done:  E(UB3LYP) =  -1012.27485520     A.U. after    9 cycles
 Optimization completed.
    -- Stationary point found.
 Normal termination of Gaussian 16 at Sun Feb 11 02:51:26 2024.

 ----------------------------------------------------------------------
 #P Geom=AllCheck Guess=TCheck SCRF=Check GenChk UB3LYP/6-311++G(d,p) F
 req
 ----------------------------------------------------------------------

 Structure from the checkpoint file:  "277-rad.chk"
 -------
 Radical
 -------
 Charge = -1 Multiplicity = 2

                          Input orientation:
 ---------------------------------------------------------------------
 Center     Atomic      Atomic             Coordinates (Angstroms)
 Number     Number       Type             X           Y           Z
 ---------------------------------------------------------------------
      1          6           0       -0.247906    3.929308    0.247845
      2          6           0       -1.448471    3.439088    0.731712
      3          6           0       -1.670295    2.050425    0.778884
      4          6           0        0.765862    3.057339   -0.197837
      5          6           0        0.543120    1.659979   -0.150287
      6          6           0       -0.687645    1.179355    0.341971
      7          6           0        2.025829    3.608411   -0.723766
      8          6           0        3.041089    2.645877   -1.101939
      9          6           0        2.836886    1.264903   -1.051072
     10          6           0        1.573030    0.716387   -0.603960
     11          8           0        2.186056    4.855358   -0.830087
     12          8           0        1.356275   -0.532558   -0.584554
     13          1           0       -0.062273    4.995456    0.202122
     14          1           0       -2.217423    4.123217    1.074099
     15          1           0       -2.610836    1.664311    1.156975
     16          1           0       -0.843204    0.107747    0.370667
     17         16           0        4.577857    3.287189   -1.775730
     18          6           0        5.218548    4.339176   -0.416476
     19          6           0        3.893367    0.272826   -1.464665
     20          1           0        6.157499    4.761615   -0.777263
     21          1           0        5.412128    3.735103    0.470191
     22          1           0        4.509467    5.132761   -0.194496
     23          1           0        3.905342    0.128963   -2.552299
     24          1           0        3.685935   -0.697062   -1.013489
     25          1           0        4.889925    0.612030   -1.179313
 ---------------------------------------------------------------------

 SCF Done:  E(UB3LYP) =  -1012.27485520     A.U. after    2 cycles

 Alpha  occ. eigenvalues --  -88.83649 -19.07506 -19.07504 -10.22553 -10.22036
 Alpha  occ. eigenvalues --  -10.18945 -10.18236 -10.17731 -10.17404 -10.17348
 Alpha  occ. eigenvalues --  -10.17342 -10.17294 -10.17067 -10.17025 -10.15221
 Alpha  occ. eigenvalues --   -7.92242  -5.88639  -5.88265  -5.87629  -1.00041
 Alpha  occ. eigenvalues --   -0.99635  -0.85888  -0.82353  -0.77185  -0.75071
 Alpha  occ. eigenvalues --   -0.74956  -0.70013  -0.66177  -0.64093  -0.59885
 Alpha  occ. eigenvalues --   -0.58332  -0.55236  -0.51267  -0.48987  -0.46553
 Alpha  occ. eigenvalues --   -0.44900  -0.43183  -0.42691  -0.42424  -0.41935
 Alpha  occ. eigenvalues --   -0.41236  -0.40880  -0.39603  -0.38580  -0.38244
 Alpha  occ. eigenvalues --   -0.37037  -0.36722  -0.35378  -0.34746  -0.33784
 Alpha  occ. eigenvalues --   -0.31828  -0.27134  -0.25661  -0.25268  -0.24583
 Alpha  occ. eigenvalues --   -0.23672  -0.21996  -0.15314
 Alpha virt. eigenvalues --   -0.03567  -0.02045  -0.00408   0.00485   0.00808
 Alpha virt. eigenvalues --    0.01869   0.02596   0.02793   0.03772   0.04067
 Alpha virt. eigenvalues --    0.04624   0.04781   0.05211   0.05587   0.06046

  Beta  occ. eigenvalues --  -88.83647 -19.06939 -19.06857 -10.22401 -10.21868
  Beta  occ. eigenvalues --  -10.18817 -10.18226 -10.17538 -10.17356 -10.17322
  Beta  occ. eigenvalues --  -10.17301 -10.17262 -10.17066 -10.17014 -10.15235
  Beta  occ. eigenvalues --   -7.92241  -5.88642  -5.88266  -5.87618  -0.99041
  Beta  occ. eigenvalues --   -0.98493  -0.85682  -0.81952  -0.76990  -0.74834
  Beta  occ. eigenvalues --   -0.74822  -0.69690  -0.65656  -0.63837  -0.59769
  Beta  occ. eigenvalues --   -0.58023  -0.54966  -0.51038  -0.48755  -0.46307
  Beta  occ. eigenvalues --   -0.44781  -0.42743  -0.42526  -0.41940  -0.41743
  Beta  occ. eigenvalues --   -0.40999  -0.40351  -0.38989  -0.38260  -0.38034
  Beta  occ. eigenvalues --   -0.36650  -0.35402  -0.34720  -0.33764  -0.33560
  Beta  occ. eigenvalues --   -0.31503  -0.25125  -0.24826  -0.24673  -0.23995
  Beta  occ. eigenvalues --   -0.23136  -0.21495
  Beta virt. eigenvalues --   -0.08772  -0.02822  -0.01079  -0.00350   0.00530
  Beta virt. eigenvalues --    0.00899   0.01897   0.02612   0.02808   0.03862
  Beta virt. eigenvalues --    0.04276   0.04732   0.05032   0.05340   0.05808

 Mulliken charges and spin densities:
               1          2
     1  C    0.020348   0.028646
     2  C   -0.416000   0.029195
     3  C   -0.449090   0.016798
     4  C    0.801790   0.042353
     5  C    0.662709   0.016799
     6  C    0.054596   0.035357
     7  C   -1.650922   0.094213
     8  C    1.110205   0.051906
     9  C    0.690670   0.125989
    10  C   -1.303102   0.097119
    11  O   -0.438294   0.208536
    12  O   -0.460775   0.240400
    13  H    0.173560  -0.001918
    14  H    0.183316  -0.002151
    15  H    0.182493  -0.001624
    16  H    0.166674  -0.002632
    17  S   -0.528699   0.010377
    18  C   -0.626235   0.004799
    19  C   -0.204970  -0.007234
    20  H    0.172051   0.002016
    21  H    0.170670  -0.000451
    22  H    0.191966  -0.001104
    23  H    0.181252   0.009590
    24  H    0.172025  -0.000243
    25  H    0.143763   0.003264
 Sum of Mulliken charges =  -1.00000   1.00000

 Dipole moment (field-independent basis, Debye):
    X=             -9.1557    Y=            -10.2790    Z=              5.2512  Tot=             14.7329
 Quadrupole moment (field-independent basis, Debye-Ang):
   XX=           -115.2760   YY=           -153.4966   ZZ=           -107.7637
   XY=            -24.0481   XZ=             13.2710   YZ=             16.5473

  Exact polarizability: 336.363  20.935 335.438 -69.452   3.416 175.733
 Approx polarizability: 339.270  21.799 392.744 -65.550   3.359 194.914

                      1                      2                      3
                      A                      A                      A
 Frequencies --     47.6663                60.2727                64.7467
 Red. masses --      2.9573                 4.2237                 1.2062
 Frc consts  --      0.0040                 0.0090                 0.0030
 IR Inten    --      5.2444                 7.4321                 1.0932

                      4                      5                      6
                      A                      A                      A
 Frequencies --     90.7840               131.5560               149.4194
 Red. masses --      3.6612                 4.5852                 1.0810
 Frc consts  --      0.0178                 0.0468                 0.0142
 IR Inten    --      9.6731                 1.1786                 0.3846

                      7                      8                      9
                      A                      A                      A
 Frequencies --    171.2040               188.7319               237.5502
 Red. masses --      4.5020                 5.4840                 5.4807
 Frc consts  --      0.0777                 0.1151                 0.1822
 IR Inten    --      4.0786                 1.6030                 3.6817

                     10                     11                     12
                      A                      A                      A
 Frequencies --    279.7960               298.2919               332.9178
 Red. masses --      4.9001                 5.7446                 4.7017
 Frc consts  --      0.2260                 0.3012                 0.3070
 IR Inten    --      5.4430                 1.2703                 1.5623

                     13                     14                     15
                      A                      A                      A
 Frequencies --    363.3559               386.9376               418.8543
 Red. masses --      5.0108                 8.7731                 6.3261
 Frc consts  --      0.3898                 0.7739                 0.6539
 IR Inten    --      1.4204                31.1865                 4.8754

                     16                     17                     18
                      A                      A                      A
 Frequencies --    426.8977               447.1921               502.7761
 Red. masses --      6.3539                 3.3734                10.7295
 Frc consts  --      0.6822                 0.3975                 1.5980
 IR Inten    --      1.4808                 1.8374                 1.0495

                     19                     20                     21
                      A                      A                      A
 Frequencies --    532.1431               572.3231               660.4377
 Red. masses --      4.5419                 6.5649                 6.2526
 Frc consts  --      0.7578                 1.2670                 1.6069
 IR Inten    --      0.7336                22.2387                15.9420

                     22                     23                     24
                      A                      A                      A
 Frequencies --    682.1673               685.7111               693.1938
 Red. masses --      5.8743                 4.7379                 5.7311
 Frc consts  --      1.6106                 1.3125                 1.6225
 IR Inten    --      0.5700                 8.3982                 3.4361

                     25                     26                     27
                      A                      A                      A
 Frequencies --    703.3820               788.0551               793.0353
 Red. masses --      2.9953                 1.9345                 3.5555
 Frc consts  --      0.8731                 0.7078                 1.3175
 IR Inten    --     88.3615                40.5295                 7.7491

                     28                     29                     30
                      A                      A                      A
 Frequencies --    810.5183               846.6523               890.5860
 Red. masses --      5.6166                 4.7942                 1.4512
 Frc consts  --      2.1740                 2.0248                 0.6782
 IR Inten    --     57.8529                 7.8594                 0.1676

                     31                     32                     33
                      A                      A                      A
 Frequencies --    964.8694               972.5781               987.3382
 Red. masses --      1.1875                 5.4018                 1.3544
 Frc consts  --      0.6514                 3.0105                 0.7779
 IR Inten    --     23.0858                23.5472                 8.9295

                     34                     35                     36
                      A                      A                      A
 Frequencies --    988.8281              1002.8454              1029.2531
 Red. masses --      1.3342                 1.2862                 1.9120
 Frc consts  --      0.7686                 0.7621                 1.1934
 IR Inten    --     13.6373                 0.0744                62.8640

                     37                     38                     39
                      A                      A                      A
 Frequencies --   1040.7306              1042.4004              1110.9075
 Red. masses --      2.0169                 1.5625                 2.1505
 Frc consts  --      1.2871                 1.0003                 1.5636
 IR Inten    --     12.5368                30.7437                32.9530

                     40                     41                     42
                      A                      A                      A
 Frequencies --   1134.9702              1157.8588              1202.7292
 Red. masses --      2.8901                 1.4856                 2.1218
 Frc consts  --      2.1935                 1.1735                 1.8084
 IR Inten    --      7.0835                 6.1051                 0.9311

                     43                     44                     45
                      A                      A                      A
 Frequencies --   1230.1767              1262.5994              1328.6221
 Red. masses --      3.4464                 2.2221                 1.1702
 Frc consts  --      3.0729                 2.0871                 1.2171
 IR Inten    --     16.7853               147.3085                 5.7615

                     46                     47                     48
                      A                      A                      A
 Frequencies --   1354.9429              1369.2233              1388.9289
 Red. masses --      8.8788                 2.5802                 1.4736
 Frc consts  --      9.6039                 2.8500                 1.6749
 IR Inten    --      1.7742                32.1476               159.7773

                     49                     50                     51
                      A                      A                      A
 Frequencies --   1442.3867              1448.1802              1453.4672
 Red. masses --      3.5457                 1.1648                 1.2483
 Frc consts  --      4.3463                 1.4393                 1.5537
 IR Inten    --    217.9454               210.3078               149.1230

                     52                     53                     54
                      A                      A                      A
 Frequencies --   1468.1967              1479.6111              1481.2853
 Red. masses --      2.1751                 2.2068                 1.0813
 Frc consts  --      2.7625                 2.8465                 1.3979
 IR Inten    --    182.9091                26.2372                12.7243

                     55                     56                     57
                      A                      A                      A
 Frequencies --   1490.5484              1505.0653              1535.5981
 Red. masses --      1.6058                 3.4779                 5.1690
 Frc consts  --      2.1020                 4.6418                 7.1815
 IR Inten    --    106.7706               769.7760                12.6027

                     58                     59                     60
                      A                      A                      A
 Frequencies --   1604.0948              1628.9427              3007.7754
 Red. masses --      7.6512                 5.9222                 1.0536
 Frc consts  --     11.5995                 9.2586                 5.6156
 IR Inten    --     27.5362                 3.5665                68.5008

                     61                     62                     63
                      A                      A                      A
 Frequencies --   3043.7332              3078.4238              3125.1109
 Red. masses --      1.0293                 1.0793                 1.1030
 Frc consts  --      5.6182                 6.0262                 6.3466
 IR Inten    --     69.5962                33.4289                 5.7619

                     64                     65                     66
                      A                      A                      A
 Frequencies --   3125.3218              3152.5579              3159.1126
 Red. masses --      1.1046                 1.1064                 1.0861
 Frc consts  --      6.3572                 6.4789                 6.3865
 IR Inten    --     25.1991                 5.4658                 9.8490

                     67                     68                     69
                      A                      A                      A
 Frequencies --   3173.3624              3190.2533              3193.5275
 Red. masses --      1.0908                 1.0917                 1.0941
 Frc consts  --      6.4717                 6.5465                 6.5743
 IR Inten    --     24.9950                15.9558                36.2582

 - Thermochemistry -
 -------------------
 Temperature   298.150 Kelvin.  Pressure   1.00000 Atm.
 Atom     1 has atomic number  6 and mass  12.00000

 Molecular mass:   218.04015 amu.
 Principal axes and moments of inertia in atomic units:
                           1         2         3
     Eigenvalues --  1994.458554154.262205946.67522
           X            0.93508  -0.14400   0.32385
           Y            0.18114   0.97956  -0.08747
           Z           -0.30464   0.14046   0.94205
 This molecule is an asymmetric top.
 Rotational symmetry number  1.
 Warning -- assumption of classical behavior for rotation
           may cause significant error
 Rotational temperatures (Kelvin)      0.04343     0.02085     0.01457
 Rotational constants (GHZ):           0.90488     0.43443     0.30349
 Zero-point vibrational energy     488157.2 (Joules/Mol)
                                  116.67237 (Kcal/Mol)
 Warning -- explicit consideration of  20 degrees of freedom as
           vibrations may cause significant error
 Vibrational temperatures:     68.58    86.72    93.16   130.62   189.28
          (Kelvin)            214.98   246.32   271.54   341.78   402.56
                              429.18   478.99   522.79   556.72   602.64
                              614.21   643.41   723.38   765.64   823.45
                              950.22   981.49   986.59   997.35  1012.01
                             1133.84  1141.00  1166.16  1218.14  1281.35
                             1388.23  1399.32  1420.56  1422.70  1442.87
                             1480.87  1497.38  1499.78  1598.35  1632.97
                             1665.90  1730.46  1769.95  1816.60  1911.59
                             1949.46  1970.01  1998.36  2075.27  2083.61
                             2091.22  2112.41  2128.83  2131.24  2144.57
                             2165.45  2209.38  2307.93  2343.69  4327.52
                             4379.25  4429.17  4496.34  4496.64  4535.83
                             4545.26  4565.76  4590.06  4594.77

 Zero-point correction=                           0.185929 (Hartree/Particle)
 Thermal correction to Energy=                    0.199788
 Thermal correction to Enthalpy=                  0.200732
 Thermal correction to Gibbs Free Energy=         0.143948
 Sum of electronic and zero-point Energies=          -1012.088926
 Sum of electronic and thermal Energies=             -1012.075067
 Sum of electronic and thermal Enthalpies=           -1012.074123
 Sum of electronic and thermal Free Energies=        -1012.130908

                     E (Thermal)             CV                S
                      KCal/Mol        Cal/Mol-Kelvin    Cal/Mol-Kelvin
 Total                  125.369             51.919            119.513
 Electronic               0.000              0.000              1.377
 Translational            0.889              2.981             42.042
 Rotational               0.889              2.981             32.266
 Vibrational            123.591             45.958             43.828
 Vibration     1          0.595              1.978              4.912
 Vibration     2          0.597              1.973              4.448
 Vibration     3          0.597              1.971              4.307
 Vibration     4          0.602              1.956              3.643
 Vibration     5          0.612              1.922              2.923
 Vibration     6          0.618              1.903              2.680
 Vibration     7          0.626              1.878              2.422
 Vibration     8          0.633              1.855              2.240
 Vibration     9          0.656              1.783              1.821
 Vibration    10          0.680              1.711              1.535
 Vibration    11          0.691              1.677              1.426
 Vibration    12          0.715              1.610              1.246
 Vibration    13          0.737              1.548              1.108
 Vibration    14          0.755              1.498              1.012
 Vibration    15          0.782              1.429              0.896
 Vibration    16          0.789              1.412              0.869
 Vibration    17          0.806              1.367              0.804
 Vibration    18          0.858              1.244              0.651
 Vibration    19          0.887              1.179              0.582
 Vibration    20          0.929              1.091              0.500

 Optimization completed.
    -- Stationary point found.
 Normal termination of Gaussian 16 at Sun Feb 11 03:38:44 2024.
