 Q-Chem 5.4, Q-Chem, Inc., Pleasanton, CA (2021)
 Q-Chem 5.4.0 for Intel X86 EM64T Linux

User input:
--------------------------------------------------------------
$molecule
-1 2
C                 -1.6308160000      2.7947060000      0.0396650000
C                 -2.8862450000      2.2256300000      0.0778340000
C                 -3.0112500000      0.8269210000      0.0929510000
C                 -0.4775470000      1.9873580000      0.0157810000
C                 -0.5955380000      0.5660840000      0.0308210000
C                 -1.9022150000     -0.0121910000      0.0704870000
C                  0.8304330000      2.6639910000     -0.0245200000
C                  2.0012300000      1.8192000000     -0.0483300000
C                  1.9007980000      0.4365970000     -0.0341360000
C                  0.6268860000     -0.2593270000      0.0052290000
O                  0.9050390000      3.9255900000     -0.0371460000
O                  0.5788890000     -1.5232310000      0.0168690000
C                  3.3446900000      2.5048080000     -0.0894280000
C                  3.1416860000     -0.4226350000     -0.0595720000
C                 -2.1537100000     -1.5044800000      0.0897760000
H                 -1.4856960000      3.8683020000      0.0267780000
H                 -3.7754760000      2.8495640000      0.0962440000
H                 -4.0017200000      0.3803770000      0.1231150000
H                  3.1973470000      3.5850120000     -0.0949540000
H                  3.9175020000      2.2230080000     -0.9821710000
H                  3.9634940000      2.2382700000      0.7769110000
H                  3.7910860000     -0.2211770000      0.8020520000
H                  3.7454060000     -0.2351160000     -0.9567930000
H                  2.8548890000     -1.4738570000     -0.0437080000
H                 -1.6799960000     -1.9826210000      0.9490720000
H                 -1.7267910000     -1.9972410000     -0.7856290000
H                 -3.2326560000     -1.6939430000      0.1204810000
$end
$rem
MAX_SCF_CYCLES=200
BASIS  =  6-311++G(d,p)
GUI  =  2
JOB_TYPE  =  SP
METHOD  =  B3LYP
SOLVENT_METHOD = PCM
$end
$pcm
theory = CPCM
$end
$solvent
dielectric 37.219
opticaldielectric 1.43
$end

--------------------------------------------------------------

             Standard Nuclear Orientation (Angstroms)
    I     Atom           X                Y                Z
 ----------------------------------------------------------------
    1      C      -1.6308160000     2.7947060000     0.0396650000
    2      C      -2.8862450000     2.2256300000     0.0778340000
    3      C      -3.0112500000     0.8269210000     0.0929510000
    4      C      -0.4775470000     1.9873580000     0.0157810000
    5      C      -0.5955380000     0.5660840000     0.0308210000
    6      C      -1.9022150000    -0.0121910000     0.0704870000
    7      C       0.8304330000     2.6639910000    -0.0245200000
    8      C       2.0012300000     1.8192000000    -0.0483300000
    9      C       1.9007980000     0.4365970000    -0.0341360000
   10      C       0.6268860000    -0.2593270000     0.0052290000
   11      O       0.9050390000     3.9255900000    -0.0371460000
   12      O       0.5788890000    -1.5232310000     0.0168690000
   13      C       3.3446900000     2.5048080000    -0.0894280000
   14      C       3.1416860000    -0.4226350000    -0.0595720000
   15      C      -2.1537100000    -1.5044800000     0.0897760000
   16      H      -1.4856960000     3.8683020000     0.0267780000
   17      H      -3.7754760000     2.8495640000     0.0962440000
   18      H      -4.0017200000     0.3803770000     0.1231150000
   19      H       3.1973470000     3.5850120000    -0.0949540000
   20      H       3.9175020000     2.2230080000    -0.9821710000
   21      H       3.9634940000     2.2382700000     0.7769110000
   22      H       3.7910860000    -0.2211770000     0.8020520000
   23      H       3.7454060000    -0.2351160000    -0.9567930000
   24      H       2.8548890000    -1.4738570000    -0.0437080000
   25      H      -1.6799960000    -1.9826210000     0.9490720000
   26      H      -1.7267910000    -1.9972410000    -0.7856290000
   27      H      -3.2326560000    -1.6939430000     0.1204810000
 ----------------------------------------------------------------

    8    -653.3854684606      6.86e-06  Convergence criterion met
 Total energy in the final basis set =     -653.3854684606

                    Orbital Energies (a.u.)
 --------------------------------------------------------------

 Alpha MOs
 -- Occupied --
-19.0698 -19.0674 -10.2166 -10.2145 -10.1796 -10.1701 -10.1669 -10.1666
-10.1630 -10.1628 -10.1619 -10.1614 -10.1507 -10.1488 -10.1480  -0.9954
 -0.9927  -0.8537  -0.8126  -0.7659  -0.7520  -0.7194  -0.6830  -0.6653
 -0.6439  -0.5851  -0.5816  -0.5345  -0.5059  -0.4832  -0.4636  -0.4427
 -0.4331  -0.4246  -0.4110  -0.4100  -0.3985  -0.3920  -0.3821  -0.3808
 -0.3793  -0.3733  -0.3662  -0.3608  -0.3498  -0.3388  -0.3338  -0.3300
 -0.2633  -0.2442  -0.2405  -0.2359  -0.2274  -0.1452

 Beta MOs
 -- Occupied --
-19.0642 -19.0614 -10.2148 -10.2125 -10.1795 -10.1697 -10.1664 -10.1663
-10.1623 -10.1615 -10.1612 -10.1608 -10.1507 -10.1489 -10.1481  -0.9851
 -0.9820  -0.8518  -0.8083  -0.7647  -0.7499  -0.7159  -0.6816  -0.6630
 -0.6383  -0.5829  -0.5788  -0.5316  -0.5042  -0.4808  -0.4615  -0.4417
 -0.4257  -0.4220  -0.4083  -0.4062  -0.3972  -0.3862  -0.3809  -0.3780
 -0.3724  -0.3721  -0.3654  -0.3486  -0.3393  -0.3321  -0.3285  -0.3285
 -0.2424  -0.2373  -0.2352  -0.2261  -0.2222

          Ground-State Mulliken Net Atomic Charges

     Atom                 Charge (a.u.)    Spin (a.u.)
  --------------------------------------------------------
      1 C                    -0.216774       0.031117
      2 C                    -0.383864       0.025270
      3 C                    -0.598699       0.033712
      4 C                     0.427404       0.011665
      5 C                     0.541843       0.027600
      6 C                     0.592688       0.015812
      7 C                    -0.992796       0.100771
      8 C                     0.738537       0.091653
      9 C                     0.793266       0.135948
     10 C                    -1.476749       0.077193
     11 O                    -0.511019       0.212143
     12 O                    -0.461147       0.223465
     13 C                    -0.548437       0.001576
     14 C                    -0.396615       0.000129
     15 C                    -0.486448       0.005053
     16 H                     0.164632      -0.002546
     17 H                     0.205344      -0.002128
     18 H                     0.140224      -0.003332
     19 H                     0.177512      -0.001223
     20 H                     0.157755       0.003862
     21 H                     0.157628       0.003857
     22 H                     0.156856       0.004940
     23 H                     0.156919       0.004929
     24 H                     0.185637      -0.001020
     25 H                     0.160513      -0.000062
     26 H                     0.160392      -0.000061
     27 H                     0.155398      -0.000321
  --------------------------------------------------------
  Sum of atomic charges =    -1.000000

                    Cartesian Multipole Moments
 -----------------------------------------------------------------
    Charge (ESU x 10^10)
                -4.8032
    Dipole Moment (Debye)
         X      -2.6413      Y      -6.7006      Z       0.0314
       Tot       7.2025
    Quadrupole Moments (Debye-Ang)
        XX     -90.0384     XY      -5.3367     YY    -138.7443
        XZ      -0.1263     YZ       0.3760     ZZ     -94.4819

 Total job time:  76.74s(wall), 312.43s(cpu)
        *  Thank you very much for using Q-Chem.  Have a nice day.  *
