 Gaussian 16, Revision A.03,
 Gaussian 16:  ES64L-G16RevA.03 25-Dec-2016

 --------------------------------------
 #P UB3LYP/6-311++G(d,p) nosym opt freq
 --------------------------------------

 -------
 Radical
 -------
 Symbolic Z-matrix:
 Charge = -1 Multiplicity = 2

 SCF Done:  E(UB3LYP) =  -653.031966260     A.U. after   26 cycles
 SCF Done:  E(UB3LYP) =  -653.031966627     A.U. after   14 cycles
 Optimization completed.
    -- Stationary point found.
 Normal termination of Gaussian 16 at Tue Jan  9 20:38:31 2024.

 ----------------------------------------------------------------------
 #P Geom=AllCheck Guess=TCheck SCRF=Check GenChk UB3LYP/6-311++G(d,p) F
 req
 ----------------------------------------------------------------------

 Structure from the checkpoint file:  "344-rad.chk"
 -------
 Radical
 -------
 Charge = -1 Multiplicity = 2

                          Input orientation:
 ---------------------------------------------------------------------
 Center     Atomic      Atomic             Coordinates (Angstroms)
 Number     Number       Type             X           Y           Z
 ---------------------------------------------------------------------
      1          8           0        0.002244   -2.533649   -0.429458
      2          6           0        0.032469   -1.293211   -0.218653
      3          6           0        1.320856   -0.637410   -0.064995
      4          6           0        2.448412   -1.518776   -0.168714
      5          6           0        3.750533   -1.103978   -0.054170
      6          6           0        4.041622    0.267452    0.179454
      7          6           0        2.987924    1.148354    0.284737
      8          6           0        1.623941    0.762763    0.173400
      9          6           0        0.677618    1.818271    0.308627
     10          6           0       -0.687713    1.823466    0.263336
     11          6           0       -1.641580    0.752055    0.065322
     12          6           0       -3.004976    1.136241    0.088656
     13          6           0       -4.049574    0.231182   -0.084536
     14          6           0       -3.753259   -1.108998   -0.290054
     15          6           0       -2.412406   -1.512282   -0.318148
     16          6           0       -1.340306   -0.625696   -0.146958
     17          1           0        2.219957   -2.561244   -0.346878
     18          1           0        4.557648   -1.825969   -0.142454
     19          1           0        5.065843    0.614220    0.272605
     20          1           0        3.192400    2.201523    0.462827
     21          1           0        1.129776    2.794270    0.478754
     22          1           0       -1.152912    2.796978    0.402059
     23          1           0       -3.233246    2.185937    0.249693
     24          1           0       -5.078715    0.578455   -0.057687
     25          1           0       -4.543929   -1.839971   -0.428642
     26          1           0       -2.152630   -2.549985   -0.478123
 ---------------------------------------------------------------------

 SCF Done:  E(UB3LYP) =  -653.031966627     A.U. after    1 cycles

 Alpha  occ. eigenvalues --  -18.92626 -10.08930 -10.06241 -10.05363 -10.05120
 Alpha  occ. eigenvalues --  -10.04641 -10.04523 -10.04512 -10.04355 -10.04272
 Alpha  occ. eigenvalues --  -10.03815 -10.03727 -10.03675 -10.03387 -10.03347
 Alpha  occ. eigenvalues --  -10.02909  -0.85782  -0.73307  -0.71981  -0.66982
 Alpha  occ. eigenvalues --   -0.63049  -0.62474  -0.61497  -0.58537  -0.51737
 Alpha  occ. eigenvalues --   -0.50909  -0.46982  -0.45997  -0.43176  -0.42072
 Alpha  occ. eigenvalues --   -0.37357  -0.36250  -0.34918  -0.33451  -0.32035
 Alpha  occ. eigenvalues --   -0.30388  -0.29318  -0.28618  -0.27877  -0.27241
 Alpha  occ. eigenvalues --   -0.26754  -0.25286  -0.24104  -0.22758  -0.21965
 Alpha  occ. eigenvalues --   -0.21674  -0.20764  -0.19660  -0.18728  -0.14163
 Alpha  occ. eigenvalues --   -0.12754  -0.11795  -0.09640  -0.08457   0.02090
 Alpha virt. eigenvalues --    0.06742   0.08141   0.08590   0.09461   0.10278
 Alpha virt. eigenvalues --    0.10876   0.11065   0.12055   0.12418   0.12783
 Alpha virt. eigenvalues --    0.14629   0.15161   0.15575   0.15853   0.16395

  Beta  occ. eigenvalues --  -18.92272 -10.08735 -10.06315 -10.05379 -10.05121
  Beta  occ. eigenvalues --  -10.04543 -10.04469 -10.04355 -10.04337 -10.04268
  Beta  occ. eigenvalues --  -10.03713 -10.03570 -10.03391 -10.03314 -10.03177
  Beta  occ. eigenvalues --  -10.02857  -0.85127  -0.73105  -0.71698  -0.66684
  Beta  occ. eigenvalues --   -0.62799  -0.62179  -0.61127  -0.58256  -0.51145
  Beta  occ. eigenvalues --   -0.50721  -0.46743  -0.45883  -0.42974  -0.41804
  Beta  occ. eigenvalues --   -0.37179  -0.36108  -0.34795  -0.33322  -0.31863
  Beta  occ. eigenvalues --   -0.30265  -0.29203  -0.28556  -0.27728  -0.26484
  Beta  occ. eigenvalues --   -0.26315  -0.25181  -0.23403  -0.22630  -0.21562
  Beta  occ. eigenvalues --   -0.20619  -0.20569  -0.19539  -0.17904  -0.13371
  Beta  occ. eigenvalues --   -0.12062  -0.10613  -0.09295  -0.07260
  Beta virt. eigenvalues --    0.07053   0.07454   0.08131   0.08572   0.09452
  Beta virt. eigenvalues --    0.10256   0.10862   0.12042   0.12106   0.12734
  Beta virt. eigenvalues --    0.12768   0.14610   0.15142   0.15699   0.16027

 Mulliken charges and spin densities:
               1          2
     1  O   -0.331439   0.142551
     2  C   -0.472636   0.109148
     3  C    0.469554   0.109811
     4  C    0.069995   0.079257
     5  C   -0.350284   0.026328
     6  C   -0.382656   0.194107
     7  C   -0.236816  -0.093232
     8  C   -0.102605   0.143170
     9  C   -0.214336  -0.069248
    10  C   -0.296907   0.222731
    11  C    0.042063  -0.075111
    12  C   -0.263058   0.120373
    13  C   -0.335869  -0.007905
    14  C   -0.364070   0.081446
    15  C    0.149134   0.068241
    16  C    0.486491  -0.003545
    17  H    0.160772  -0.003674
    18  H    0.113934  -0.002649
    19  H    0.108396  -0.014791
    20  H    0.081272   0.006661
    21  H    0.087184   0.002632
    22  H    0.089204  -0.015538
    23  H    0.088077  -0.008738
    24  H    0.113852   0.000594
    25  H    0.119010  -0.005760
    26  H    0.171739  -0.006857
 Sum of Mulliken charges =  -1.00000   1.00000

 Dipole moment (field-independent basis, Debye):
    X=             -0.9733    Y=              3.9700    Z=              0.6472  Tot=              4.1385
 Quadrupole moment (field-independent basis, Debye-Ang):
   XX=           -121.2639   YY=           -111.3821   ZZ=           -104.9160
   XY=              0.3128   XZ=             -0.4801   YZ=             -1.1912

  Exact polarizability: 406.506   2.506 231.761  10.051  20.786 107.702
 Approx polarizability: 670.087  13.472 412.078  18.430  40.815 170.407

                      1                      2                      3
                      A                      A                      A
 Frequencies --      9.2650                72.0629               120.5045
 Red. masses --      6.4740                 3.9070                 4.8059
 Frc consts  --      0.0003                 0.0120                 0.0411
 IR Inten    --      2.2114                 0.0215                 0.6502

                      4                      5                      6
                      A                      A                      A
 Frequencies --    200.7339               218.4510               243.1096
 Red. masses --      4.6712                 4.1643                 4.9677
 Frc consts  --      0.1109                 0.1171                 0.1730
 IR Inten    --      0.3046                 1.2142                85.7512

                      7                      8                      9
                      A                      A                      A
 Frequencies --    312.5685               325.4598               360.9334
 Red. masses --      7.3105                 5.6188                 3.8895
 Frc consts  --      0.4208                 0.3507                 0.2985
 IR Inten    --    118.6150                 4.9941                 0.3637

                     10                     11                     12
                      A                      A                      A
 Frequencies --    416.3365               424.1197               450.9044
 Red. masses --      3.5439                10.1059                 7.8704
 Frc consts  --      0.3619                 1.0710                 0.9428
 IR Inten    --      1.4653               153.8686               849.0166

                     13                     14                     15
                      A                      A                      A
 Frequencies --    464.2708               503.7759               523.1397
 Red. masses --      3.3709                 3.3338                 8.0001
 Frc consts  --      0.4281                 0.4985                 1.2900
 IR Inten    --      0.0293                16.3027               323.2356

                     16                     17                     18
                      A                      A                      A
 Frequencies --    559.4226               569.5342               601.8711
 Red. masses --      5.8984                 3.5723                 7.0809
 Frc consts  --      1.0876                 0.6827                 1.5113
 IR Inten    --     12.6272                 0.0643               185.3723

                     19                     20                     21
                      A                      A                      A
 Frequencies --    633.7696               644.6944               697.4266
 Red. masses --      6.8762                 3.9392                 5.4606
 Frc consts  --      1.6273                 0.9646                 1.5649
 IR Inten    --     23.7874                29.1353               217.6029

                     22                     23                     24
                      A                      A                      A
 Frequencies --    698.8527               718.8324               736.1585
 Red. masses --      1.3116                 1.6875                 5.7294
 Frc consts  --      0.3774                 0.5138                 1.8294
 IR Inten    --     51.1431                 0.1598                 5.3823

                     25                     26                     27
                      A                      A                      A
 Frequencies --    738.0214               767.8193               771.2667
 Red. masses --      2.1835                 2.2581                 1.6815
 Frc consts  --      0.7007                 0.7844                 0.5893
 IR Inten    --      0.0781                34.7516                54.1113

                     28                     29                     30
                      A                      A                      A
 Frequencies --    813.8277               846.9992               867.6756
 Red. masses --      1.5130                 1.7056                 4.6135
 Frc consts  --      0.5904                 0.7209                 2.0464
 IR Inten    --      1.5981                 6.4315                43.6152

                     31                     32                     33
                      A                      A                      A
 Frequencies --    883.5424               906.0548               922.0666
 Red. masses --      5.8415                 1.2496                 1.2972
 Frc consts  --      2.6868                 0.6044                 0.6498
 IR Inten    --    378.5145                 0.8740                 3.3394

                     34                     35                     36
                      A                      A                      A
 Frequencies --    926.0254               936.6872               958.4488
 Red. masses --      1.2876                 6.5094                 1.3073
 Frc consts  --      0.6505                 3.3650                 0.7076
 IR Inten    --      0.1059                18.9814                 3.6639

                     37                     38                     39
                      A                      A                      A
 Frequencies --    984.3134              1032.5951              1065.4202
 Red. masses --      1.2926                 2.4524                 2.5859
 Frc consts  --      0.7378                 1.5406                 1.7294
 IR Inten    --      1.6585                47.1755                75.3278

                     40                     41                     42
                      A                      A                      A
 Frequencies --   1096.1388              1127.8368              1147.6028
 Red. masses --      2.7181                 1.9773                 1.9688
 Frc consts  --      1.9242                 1.4819                 1.5277
 IR Inten    --      6.8077                14.7715                43.1902

                     43                     44                     45
                      A                      A                      A
 Frequencies --   1165.8167              1170.8214              1180.3160
 Red. masses --      1.5459                 1.1520                 1.4899
 Frc consts  --      1.2379                 0.9304                 1.2229
 IR Inten    --     26.1938                 0.0373                20.7451

                     46                     47                     48
                      A                      A                      A
 Frequencies --   1221.1938              1248.5232              1285.0932
 Red. masses --      2.3886                 1.7148                 1.6773
 Frc consts  --      2.0987                 1.5749                 1.6320
 IR Inten    --      6.5143                 0.6171                46.4962

                     49                     50                     51
                      A                      A                      A
 Frequencies --   1292.2755              1312.6629              1338.9316
 Red. masses --      3.2330                 1.8358                 4.1278
 Frc consts  --      3.1811                 1.8638                 4.3600
 IR Inten    --    143.9620                32.2244                48.1822

                     52                     53                     54
                      A                      A                      A
 Frequencies --   1396.6484              1433.8484              1440.1780
 Red. masses --      2.5139                 2.1442                 1.9694
 Frc consts  --      2.8891                 2.5974                 2.4067
 IR Inten    --     31.3900                26.6747                 3.9220

                     55                     56                     57
                      A                      A                      A
 Frequencies --   1479.0835              1494.9853              1502.9430
 Red. masses --      1.9138                 2.1906                 2.7018
 Frc consts  --      2.4667                 2.8846                 3.5957
 IR Inten    --     15.3013                42.4673                29.7973

                     58                     59                     60
                      A                      A                      A
 Frequencies --   1541.9680              1558.9951              1580.7198
 Red. masses --      6.4721                 6.2392                 5.2994
 Frc consts  --      9.0667                 8.9344                 7.8016
 IR Inten    --     78.7241               123.1906                33.4868

                     61                     62                     63
                      A                      A                      A
 Frequencies --   1594.3149              1625.3800              3094.3261
 Red. masses --      4.9618                 5.8096                 1.0826
 Frc consts  --      7.4309                 9.0428                 6.1072
 IR Inten    --     78.9836                12.7251                 9.3965

                     64                     65                     66
                      A                      A                      A
 Frequencies --   3118.7063              3124.0291              3127.4502
 Red. masses --      1.0872                 1.0853                 1.0834
 Frc consts  --      6.2305                 6.2409                 6.2433
 IR Inten    --     13.3811                19.7565                 6.2612

                     67                     68                     69
                      A                      A                      A
 Frequencies --   3133.5974              3143.3999              3158.5350
 Red. masses --      1.0875                 1.0884                 1.0958
 Frc consts  --      6.2919                 6.3366                 6.4407
 IR Inten    --     79.4155                71.7655               121.2129

                     70                     71                     72
                      A                      A                      A
 Frequencies --   3159.5571              3199.4473              3202.6545
 Red. masses --      1.0945                 1.0905                 1.0894
 Frc consts  --      6.4375                 6.5769                 6.5838
 IR Inten    --     38.1903                14.9608                 1.7000

 - Thermochemistry -
 -------------------
 Temperature   298.150 Kelvin.  Pressure   1.00000 Atm.
 Atom     1 has atomic number  8 and mass  15.99491

 Molecular mass:   206.07317 amu.
 Principal axes and moments of inertia in atomic units:
                           1         2         3
     Eigenvalues --  1402.596524762.491756165.00105
           X            0.99948  -0.00766  -0.03133
           Y            0.00254   0.98704  -0.16044
           Z            0.03215   0.16028   0.98655
 This molecule is an asymmetric top.
 Rotational symmetry number  1.
 Warning -- assumption of classical behavior for rotation
           may cause significant error
 Rotational temperatures (Kelvin)      0.06175     0.01819     0.01405
 Rotational constants (GHZ):           1.28671     0.37895     0.29274
 Zero-point vibrational energy     518132.2 (Joules/Mol)
                                  123.83657 (Kcal/Mol)
 Warning -- explicit consideration of  18 degrees of freedom as
           vibrations may cause significant error
 Vibrational temperatures:     13.33   103.68   173.38   288.81   314.30
          (Kelvin)            349.78   449.72   468.26   519.30   599.02
                              610.21   648.75   667.98   724.82   752.68
                              804.88   819.43   865.96   911.85   927.57
                             1003.44  1005.49  1034.24  1059.17  1061.85
                             1104.72  1109.68  1170.92  1218.64  1248.39
                             1271.22  1303.61  1326.65  1332.34  1347.68
                             1378.99  1416.21  1485.67  1532.90  1577.10
                             1622.71  1651.14  1677.35  1684.55  1698.21
                             1757.03  1796.35  1848.96  1859.30  1888.63
                             1926.42  2009.47  2062.99  2072.09  2128.07
                             2150.95  2162.40  2218.55  2243.05  2274.30
                             2293.86  2338.56  4452.05  4487.12  4494.78
                             4499.70  4508.55  4522.65  4544.43  4545.90
                             4603.29  4607.91

 Zero-point correction=                           0.197346 (Hartree/Particle)
 Thermal correction to Energy=                    0.209199
 Thermal correction to Enthalpy=                  0.210143
 Thermal correction to Gibbs Free Energy=         0.157302
 Sum of electronic and zero-point Energies=           -652.834620
 Sum of electronic and thermal Energies=              -652.822768
 Sum of electronic and thermal Enthalpies=            -652.821824
 Sum of electronic and thermal Free Energies=         -652.874665

                     E (Thermal)             CV                S
                      KCal/Mol        Cal/Mol-Kelvin    Cal/Mol-Kelvin
 Total                  131.274             49.444            111.213
 Electronic               0.000              0.000              1.377
 Translational            0.889              2.981             41.873
 Rotational               0.889              2.981             32.088
 Vibrational            129.497             43.482             35.875
 Vibration     1          0.593              1.987              8.163
 Vibration     2          0.598              1.967              4.096
 Vibration     3          0.609              1.932              3.092
 Vibration     4          0.638              1.839              2.126
 Vibration     5          0.646              1.813              1.972
 Vibration     6          0.659              1.774              1.780
 Vibration     7          0.701              1.650              1.349
 Vibration     8          0.710              1.625              1.283
 Vibration     9          0.735              1.553              1.118
 Vibration    10          0.780              1.435              0.905
 Vibration    11          0.786              1.418              0.878
 Vibration    12          0.810              1.359              0.793
 Vibration    13          0.822              1.329              0.754
 Vibration    14          0.859              1.242              0.649
 Vibration    15          0.878              1.199              0.603
 Vibration    16          0.915              1.119              0.525
 Vibration    17          0.926              1.097              0.505
 Vibration    18          0.960              1.028              0.446

                           ! Non-Optimized Parameters !
 Normal termination of Gaussian 16 at Tue Jan  9 21:18:22 2024.
