 Gaussian 16, Revision A.03,
 Gaussian 16:  ES64L-G16RevA.03 25-Dec-2016

 ----------------------------------------------------------------
 #P UB3LYP/6-311++G(d,p) SCRF=(PCM,Solvent=n,n-DiMethylFormamide)
 ----------------------------------------------------------------

 ------------------
 Radical PCM in DMF
 ------------------
 Symbolic Z-matrix:
 Charge = -1 Multiplicity = 2

                         Standard orientation:
 ---------------------------------------------------------------------
 Center     Atomic      Atomic             Coordinates (Angstroms)
 Number     Number       Type             X           Y           Z
 ---------------------------------------------------------------------
      1          8           0        0.016450   -2.409615    0.016491
      2          6           0       -0.023621   -1.151694    0.008175
      3          6           0       -1.317909   -0.489570    0.002003
      4          6           0       -2.439352   -1.384723   -0.001533
      5          6           0       -3.745510   -0.966853   -0.007293
      6          6           0       -4.047369    0.422036   -0.008964
      7          6           0       -2.999794    1.316419   -0.004731
      8          6           0       -1.631982    0.928362    0.000606
      9          6           0       -0.693123    1.999072    0.006632
     10          6           0        0.672941    2.007333    0.009369
     11          6           0        1.635342    0.925326    0.003204
     12          6           0        2.996324    1.318649   -0.000990
     13          6           0        4.048197    0.405508   -0.007838
     14          6           0        3.761976   -0.952503   -0.010485
     15          6           0        2.423726   -1.365269   -0.005361
     16          6           0        1.344475   -0.470891    0.001364
     17          1           0       -2.202696   -2.440500    0.000083
     18          1           0       -4.547572   -1.699783   -0.010566
     19          1           0       -5.074914    0.771444   -0.013224
     20          1           0       -3.212508    2.382929   -0.005311
     21          1           0       -1.152942    2.986251    0.009306
     22          1           0        1.131017    2.994006    0.013885
     23          1           0        3.216688    2.382293    0.001139
     24          1           0        5.075076    0.760417   -0.010939
     25          1           0        4.558508   -1.690200   -0.015629
     26          1           0        2.171809   -2.417143   -0.005630
 ---------------------------------------------------------------------

 SCF Done:  E(UB3LYP) =  -653.106307420     A.U. after   21 cycles

 The electronic state is 2-A.
 Alpha  occ. eigenvalues --  -19.05099 -10.20945 -10.18256 -10.17373 -10.16947
 Alpha  occ. eigenvalues --  -10.16656 -10.16602 -10.16432 -10.16312 -10.16225
 Alpha  occ. eigenvalues --  -10.16169 -10.16137 -10.16014 -10.15504 -10.15446
 Alpha  occ. eigenvalues --  -10.15122  -0.98543  -0.85396  -0.84248  -0.79152
 Alpha  occ. eigenvalues --   -0.75174  -0.74550  -0.73667  -0.70642  -0.63854
 Alpha  occ. eigenvalues --   -0.62924  -0.58907  -0.58073  -0.55198  -0.54147
 Alpha  occ. eigenvalues --   -0.49273  -0.47968  -0.46817  -0.45319  -0.44080
 Alpha  occ. eigenvalues --   -0.42355  -0.41180  -0.40602  -0.40098  -0.39952
 Alpha  occ. eigenvalues --   -0.39055  -0.37080  -0.36391  -0.34731  -0.34596
 Alpha  occ. eigenvalues --   -0.33581  -0.32808  -0.31865  -0.30942  -0.26398
 Alpha  occ. eigenvalues --   -0.24920  -0.24372  -0.22473  -0.20808  -0.10523
 Alpha virt. eigenvalues --   -0.05492  -0.00854  -0.00341   0.00444   0.00462
 Alpha virt. eigenvalues --    0.00947   0.02121   0.02293   0.03959   0.04141
 Alpha virt. eigenvalues --    0.04650   0.04714   0.05437   0.05554   0.06344

  Beta  occ. eigenvalues --  -19.04682 -10.20612 -10.18290 -10.17413 -10.16763
  Beta  occ. eigenvalues --  -10.16689 -10.16560 -10.16387 -10.16346 -10.16202
  Beta  occ. eigenvalues --  -10.16078 -10.16074 -10.15942 -10.15345 -10.15222
  Beta  occ. eigenvalues --  -10.14985  -0.97741  -0.85196  -0.83993  -0.78912
  Beta  occ. eigenvalues --   -0.74945  -0.74210  -0.73347  -0.70425  -0.63314
  Beta  occ. eigenvalues --   -0.62637  -0.58699  -0.57942  -0.54996  -0.53827
  Beta  occ. eigenvalues --   -0.49068  -0.47865  -0.46697  -0.45177  -0.43924
  Beta  occ. eigenvalues --   -0.42232  -0.41050  -0.40527  -0.39887  -0.38843
  Beta  occ. eigenvalues --   -0.38789  -0.37012  -0.35765  -0.34477  -0.33450
  Beta  occ. eigenvalues --   -0.33113  -0.32674  -0.31756  -0.30250  -0.25704
  Beta  occ. eigenvalues --   -0.24250  -0.23058  -0.22091  -0.19873
  Beta virt. eigenvalues --   -0.05412  -0.04747  -0.00338   0.00210   0.00454
  Beta virt. eigenvalues --    0.00881   0.00944   0.02127   0.02277   0.03950
  Beta virt. eigenvalues --    0.04134   0.04740   0.04787   0.05674   0.06256

 Mulliken charges and spin densities:
               1          2
     1  O   -0.463594   0.168275
     2  C   -0.367888   0.201234
     3  C    0.388448   0.032893
     4  C    0.030098   0.156775
     5  C   -0.368270  -0.044994
     6  C   -0.439762   0.227995
     7  C   -0.231493  -0.112714
     8  C   -0.135315   0.153926
     9  C   -0.223620  -0.087882
    10  C   -0.296066   0.186121
    11  C    0.008803  -0.055184
    12  C   -0.248402   0.071736
    13  C   -0.392677   0.033455
    14  C   -0.381963   0.036960
    15  C    0.116623   0.102681
    16  C    0.413598  -0.028605
    17  H    0.163433  -0.008892
    18  H    0.167583   0.002349
    19  H    0.162989  -0.016292
    20  H    0.138465   0.006293
    21  H    0.147334   0.005218
    22  H    0.148761  -0.011783
    23  H    0.144473  -0.006004
    24  H    0.171699  -0.002382
    25  H    0.173158  -0.002518
    26  H    0.173587  -0.008663
 Sum of Mulliken charges =  -1.00000   1.00000

 Dipole moment (field-independent basis, Debye):
    X=              1.3037    Y=              5.9296    Z=             -0.0436  Tot=              6.0714
 Quadrupole moment (field-independent basis, Debye-Ang):
   XX=           -105.6030   YY=           -108.7070   ZZ=           -104.7319
   XY=             -0.1257   XZ=             -0.0067   YZ=              0.1424

 Normal termination of Gaussian 16 at Sat Jan 13 19:20:42 2024.
