 Gaussian 16, Revision A.03,
 Gaussian 16:  ES64L-G16RevA.03 25-Dec-2016

 --------------------------------------
 #P UB3LYP/6-311++G(d,p) nosym opt freq
 --------------------------------------

 --------
 Oxidized
 --------
 Symbolic Z-matrix:
 Charge =  0 Multiplicity = 1

 SCF Done:  E(UB3LYP) =  -967.821902050     A.U. after   15 cycles
 SCF Done:  E(UB3LYP) =  -967.826842270     A.U. after   14 cycles
 SCF Done:  E(UB3LYP) =  -967.827582532     A.U. after   14 cycles
 SCF Done:  E(UB3LYP) =  -967.828431650     A.U. after   16 cycles
 SCF Done:  E(UB3LYP) =  -967.829893187     A.U. after   16 cycles
 SCF Done:  E(UB3LYP) =  -967.798213910     A.U. after   16 cycles
 SCF Done:  E(UB3LYP) =  -967.832872005     A.U. after   15 cycles
 SCF Done:  E(UB3LYP) =  -967.833791756     A.U. after   17 cycles
 SCF Done:  E(UB3LYP) =  -967.832739067     A.U. after   17 cycles
 SCF Done:  E(UB3LYP) =  -967.835735384     A.U. after   14 cycles
 SCF Done:  E(UB3LYP) =  -967.836767201     A.U. after   14 cycles
 SCF Done:  E(UB3LYP) =  -967.836774463     A.U. after   11 cycles
 SCF Done:  E(UB3LYP) =  -967.836785193     A.U. after   12 cycles
 SCF Done:  E(UB3LYP) =  -967.836787936     A.U. after   12 cycles
 SCF Done:  E(UB3LYP) =  -967.836792370     A.U. after   11 cycles
 SCF Done:  E(UB3LYP) =  -967.836792467     A.U. after   11 cycles
 SCF Done:  E(UB3LYP) =  -967.836792957     A.U. after   10 cycles
 SCF Done:  E(UB3LYP) =  -967.836792988     A.U. after    8 cycles
 SCF Done:  E(UB3LYP) =  -967.836792996     A.U. after    8 cycles
 Optimization completed.
    -- Stationary point found.
 Normal termination of Gaussian 16 at Wed Dec 27 09:43:51 2023.

 ----------------------------------------------------------------------
 #P Geom=AllCheck Guess=TCheck SCRF=Check GenChk UB3LYP/6-311++G(d,p) F
 req
 ----------------------------------------------------------------------

 Structure from the checkpoint file:  "249.chk"
 --------
 Oxidized
 --------
 Charge =  0 Multiplicity = 1

                          Input orientation:
 ---------------------------------------------------------------------
 Center     Atomic      Atomic             Coordinates (Angstroms)
 Number     Number       Type             X           Y           Z
 ---------------------------------------------------------------------
      1          6           0        5.768443   -5.716919    0.445984
      2          6           0        5.906058   -5.861127   -0.930701
      3          6           0        5.229510   -4.999218   -1.797961
      4          6           0        4.951671   -4.707845    0.961918
      5          6           0        4.273809   -3.843226    0.092833
      6          6           0        4.415619   -3.992421   -1.289042
      7          6           0        4.800793   -4.553936    2.435214
      8          6           0        3.914323   -3.470261    2.961673
      9          6           0        3.274487   -2.616277    2.123167
     10          6           0        3.404778   -2.762481    0.637710
     11          8           0        5.387667   -5.295684    3.209078
     12          8           0        2.806476   -2.005762   -0.112637
     13          1           0        6.539662   -6.644367   -1.331175
     14          6           0        2.369216   -1.499384    2.578671
     15          1           0        5.339070   -5.114732   -2.870325
     16          6           0        3.821374   -3.424658    4.461017
     17          6           0        0.894724   -1.937890    2.706779
     18          6           0       -0.028076   -0.788953    3.126572
     19          6           0       -1.497246   -1.206580    3.256472
     20          1           0        6.283104   -6.373493    1.136563
     21          1           0        3.882885   -3.313235   -1.943001
     22          1           0        2.427096   -0.692135    1.845621
     23          1           0        2.715973   -1.098424    3.533681
     24          1           0        3.539254   -4.406778    4.848359
     25          1           0        3.103142   -2.687752    4.812426
     26          1           0        4.800576   -3.201562    4.895505
     27          1           0        0.819495   -2.755386    3.433745
     28          1           0        0.560498   -2.342569    1.745786
     29          1           0        0.054801    0.024267    2.394818
     30          1           0        0.317136   -0.375463    4.083323
     31          1           0       -1.579017   -2.023316    3.985402
     32          1           0       -1.840992   -1.618274    2.299000
     33          6           0       -2.424897   -0.060491    3.675994
     34          6           0       -3.894951   -0.475958    3.802625
     35          6           0       -4.823603    0.669576    4.221249
     36          6           0       -6.293732    0.254716    4.346889
     37          6           0       -7.223672    1.399307    4.765336
     38          6           0       -8.690105    0.974949    4.887746
     39          1           0       -2.341482    0.756578    2.947798
     40          1           0       -2.081472    0.350874    4.634124
     41          1           0       -3.978381   -1.293409    4.530607
     42          1           0       -4.237828   -0.887411    2.844448
     43          1           0       -4.739780    1.487094    3.493408
     44          1           0       -4.480996    1.080953    5.179693
     45          1           0       -6.378692   -0.562870    5.074801
     46          1           0       -6.637301   -0.156479    3.388592
     47          1           0       -7.139657    2.216091    4.038039
     48          1           0       -6.881409    1.809905    5.723176
     49          1           0       -9.071984    0.592441    3.935811
     50          1           0       -9.325722    1.812997    5.187217
     51          1           0       -8.811836    0.183008    5.633643
 ---------------------------------------------------------------------

 SCF Done:  E(UB3LYP) =  -967.836792996     A.U. after    1 cycles

 Alpha  occ. eigenvalues --  -19.12796 -19.12731 -10.27685 -10.27585 -10.21369
 Alpha  occ. eigenvalues --  -10.21100 -10.20616 -10.20562 -10.20101 -10.20048
 Alpha  occ. eigenvalues --  -10.19801 -10.19797 -10.17946 -10.17814 -10.17368
 Alpha  occ. eigenvalues --  -10.16781 -10.16537 -10.16402 -10.16395 -10.16307
 Alpha  occ. eigenvalues --  -10.16254 -10.16205 -10.15710  -1.06154  -1.05947
 Alpha  occ. eigenvalues --   -0.89022  -0.85374  -0.81723  -0.80372  -0.78945
 Alpha  occ. eigenvalues --   -0.77796  -0.77609  -0.75075  -0.72517  -0.69957
 Alpha  occ. eigenvalues --   -0.67927  -0.66136  -0.63480  -0.62082  -0.60174
 Alpha  occ. eigenvalues --   -0.58651  -0.58289  -0.57792  -0.57545  -0.55068
 Alpha  occ. eigenvalues --   -0.52062  -0.49802  -0.49049  -0.48137  -0.47295
 Alpha  occ. eigenvalues --   -0.46082  -0.45723  -0.45386  -0.45055  -0.44778
 Alpha  occ. eigenvalues --   -0.43790  -0.43191  -0.42722  -0.42430  -0.42262
 Alpha  occ. eigenvalues --   -0.41235  -0.40796  -0.40225  -0.39810  -0.39539
 Alpha  occ. eigenvalues --   -0.39164  -0.37826  -0.37652  -0.37020  -0.36804
 Alpha  occ. eigenvalues --   -0.36205  -0.34948  -0.34734  -0.34273  -0.33368
 Alpha  occ. eigenvalues --   -0.33131  -0.32668  -0.32536  -0.32311  -0.30697
 Alpha  occ. eigenvalues --   -0.28855  -0.28263  -0.27828  -0.27202  -0.26718
 Alpha virt. eigenvalues --   -0.11952  -0.05590  -0.03062  -0.01129  -0.00745
 Alpha virt. eigenvalues --   -0.00439   0.00273   0.00438   0.00708   0.01272
 Alpha virt. eigenvalues --    0.01428   0.01736   0.01987   0.02663   0.03003

  Beta  occ. eigenvalues --  -19.12796 -19.12731 -10.27685 -10.27585 -10.21369
  Beta  occ. eigenvalues --  -10.21100 -10.20616 -10.20562 -10.20101 -10.20048
  Beta  occ. eigenvalues --  -10.19801 -10.19797 -10.17946 -10.17814 -10.17368
  Beta  occ. eigenvalues --  -10.16781 -10.16537 -10.16402 -10.16395 -10.16307
  Beta  occ. eigenvalues --  -10.16254 -10.16205 -10.15710  -1.06154  -1.05947
  Beta  occ. eigenvalues --   -0.89022  -0.85374  -0.81723  -0.80372  -0.78945
  Beta  occ. eigenvalues --   -0.77796  -0.77609  -0.75075  -0.72517  -0.69957
  Beta  occ. eigenvalues --   -0.67927  -0.66136  -0.63480  -0.62082  -0.60174
  Beta  occ. eigenvalues --   -0.58651  -0.58289  -0.57792  -0.57545  -0.55068
  Beta  occ. eigenvalues --   -0.52062  -0.49802  -0.49049  -0.48137  -0.47295
  Beta  occ. eigenvalues --   -0.46082  -0.45723  -0.45386  -0.45055  -0.44778
  Beta  occ. eigenvalues --   -0.43790  -0.43191  -0.42722  -0.42430  -0.42262
  Beta  occ. eigenvalues --   -0.41235  -0.40796  -0.40225  -0.39810  -0.39539
  Beta  occ. eigenvalues --   -0.39164  -0.37826  -0.37652  -0.37020  -0.36804
  Beta  occ. eigenvalues --   -0.36205  -0.34948  -0.34734  -0.34273  -0.33368
  Beta  occ. eigenvalues --   -0.33131  -0.32668  -0.32536  -0.32311  -0.30697
  Beta  occ. eigenvalues --   -0.28855  -0.28263  -0.27828  -0.27202  -0.26718
  Beta virt. eigenvalues --   -0.11952  -0.05590  -0.03062  -0.01129  -0.00745
  Beta virt. eigenvalues --   -0.00439   0.00273   0.00438   0.00708   0.01272
  Beta virt. eigenvalues --    0.01428   0.01736   0.01987   0.02663   0.03003

 Mulliken charges and spin densities:
               1          2
     1  C    0.196849   0.000000
     2  C   -0.411649  -0.000000
     3  C   -0.338673  -0.000000
     4  C    0.073773   0.000000
     5  C   -0.112145  -0.000000
     6  C    0.160792  -0.000000
     7  C   -0.461857  -0.000000
     8  C    0.855193   0.000000
     9  C    1.092303   0.000000
    10  C   -1.024600  -0.000000
    11  O   -0.216889   0.000000
    12  O   -0.200399  -0.000000
    13  H    0.173291   0.000000
    14  C   -0.568737  -0.000000
    15  H    0.173218  -0.000000
    16  C   -0.428404  -0.000000
    17  C   -0.933393   0.000000
    18  C   -0.247023  -0.000000
    19  C   -0.022262  -0.000000
    20  H    0.189483  -0.000000
    21  H    0.187163   0.000000
    22  H    0.237819   0.000000
    23  H    0.196870   0.000000
    24  H    0.187640  -0.000000
    25  H    0.125323   0.000000
    26  H    0.201919  -0.000000
    27  H    0.137605  -0.000000
    28  H    0.194711  -0.000000
    29  H    0.121784  -0.000000
    30  H    0.117492  -0.000000
    31  H    0.124555  -0.000000
    32  H    0.125632  -0.000000
    33  C    0.057782   0.000000
    34  C   -0.017578   0.000000
    35  C   -0.233331   0.000000
    36  C   -0.441683  -0.000000
    37  C   -0.265079   0.000000
    38  C   -0.664523  -0.000000
    39  H    0.128201   0.000000
    40  H    0.125165   0.000000
    41  H    0.125463  -0.000000
    42  H    0.126338  -0.000000
    43  H    0.122509  -0.000000
    44  H    0.121666  -0.000000
    45  H    0.118554   0.000000
    46  H    0.119221   0.000000
    47  H    0.127790  -0.000000
    48  H    0.127379  -0.000000
    49  H    0.135402   0.000000
    50  H    0.144150  -0.000000
    51  H    0.135190   0.000000
 Sum of Mulliken charges =  -0.00000   0.00000

 Dipole moment (field-independent basis, Debye):
    X=             -0.1752    Y=             -0.0780    Z=             -0.3410  Tot=              0.3913
 Quadrupole moment (field-independent basis, Debye-Ang):
   XX=           -144.8341   YY=           -143.7548   ZZ=           -137.0831
   XY=             -1.1415   XZ=            -10.7127   YZ=             12.1662

  Exact polarizability: 277.415 -73.282 241.403 -21.756  12.008 269.935
 Approx polarizability: 347.111 -91.367 387.244  25.122 -33.506 436.292

                      1                      2                      3
                      A                      A                      A
 Frequencies --     12.2302                19.4443                24.5448
 Red. masses --      4.7205                 4.9828                 1.5719
 Frc consts  --      0.0004                 0.0011                 0.0006
 IR Inten    --      0.0270                 0.1669                 0.0566

                      4                      5                      6
                      A                      A                      A
 Frequencies --     33.1156                42.1610                58.0983
 Red. masses --      3.8839                 4.9780                 2.0551
 Frc consts  --      0.0025                 0.0052                 0.0041
 IR Inten    --      0.2023                 2.3407                 2.0535

                      7                      8                      9
                      A                      A                      A
 Frequencies --     69.4104                76.5524                79.4221
 Red. masses --      1.7667                 2.4390                 1.6396
 Frc consts  --      0.0050                 0.0084                 0.0061
 IR Inten    --      2.6462                 0.0359                 0.1180

                     10                     11                     12
                      A                      A                      A
 Frequencies --     97.0901               117.0587               121.9647
 Red. masses --      3.7922                 4.9912                 3.8548
 Frc consts  --      0.0211                 0.0403                 0.0338
 IR Inten    --      0.0291                 0.0173                 0.0195

                     13                     14                     15
                      A                      A                      A
 Frequencies --    123.4692               125.5958               159.9456
 Red. masses --      1.7279                 2.5286                 1.8536
 Frc consts  --      0.0155                 0.0235                 0.0279
 IR Inten    --      0.0318                 0.0350                 0.0136

                     16                     17                     18
                      A                      A                      A
 Frequencies --    163.0858               166.6055               197.0061
 Red. masses --      2.1524                 5.6024                 3.9580
 Frc consts  --      0.0337                 0.0916                 0.0905
 IR Inten    --      0.0161                 0.6079                 0.0189

                     19                     20                     21
                      A                      A                      A
 Frequencies --    243.5848               244.2965               251.7776
 Red. masses --      3.6947                 1.1247                 4.1763
 Frc consts  --      0.1292                 0.0395                 0.1560
 IR Inten    --      0.2147                 0.0030                 0.7196

                     22                     23                     24
                      A                      A                      A
 Frequencies --    309.7017               328.0524               347.0825
 Red. masses --      4.2532                 3.5079                 3.9238
 Frc consts  --      0.2404                 0.2224                 0.2785
 IR Inten    --      0.2465                 0.0928                 0.6913

                     25                     26                     27
                      A                      A                      A
 Frequencies --    361.2421               389.0475               394.3254
 Red. masses --      2.7054                 3.9413                 5.6533
 Frc consts  --      0.2080                 0.3515                 0.5179
 IR Inten    --      0.5214                 1.5153                 7.2924

                     28                     29                     30
                      A                      A                      A
 Frequencies --    420.9063               428.8709               436.6380
 Red. masses --      6.5308                 3.5277                 4.8698
 Frc consts  --      0.6817                 0.3823                 0.5470
 IR Inten    --      9.7074                 1.2356                 8.8901

                     31                     32                     33
                      A                      A                      A
 Frequencies --    455.2061               484.9532               494.3363
 Red. masses --      3.8940                 4.7543                 3.2718
 Frc consts  --      0.4754                 0.6588                 0.4711
 IR Inten    --      0.9626                 1.8793                 0.0294

                     34                     35                     36
                      A                      A                      A
 Frequencies --    522.2944               566.7406               644.5972
 Red. masses --      5.1675                 4.7122                 5.5325
 Frc consts  --      0.8305                 0.8918                 1.3544
 IR Inten    --      2.8075                 1.8546                 6.0451

                     37                     38                     39
                      A                      A                      A
 Frequencies --    677.4378               681.0808               705.9417
 Red. masses --      5.8687                 3.2439                 4.1194
 Frc consts  --      1.5868                 0.8866                 1.2095
 IR Inten    --      2.2824                 1.5499                 9.1395

                     40                     41                     42
                      A                      A                      A
 Frequencies --    731.0120               731.8559               734.0099
 Red. masses --      1.0585                 1.1129                 2.3718
 Frc consts  --      0.3333                 0.3512                 0.7529
 IR Inten    --      5.8550                 3.0456                50.1000

                     43                     44                     45
                      A                      A                      A
 Frequencies --    738.8656               758.1439               790.7483
 Red. masses --      1.1446                 1.2159                 1.4856
 Frc consts  --      0.3681                 0.4118                 0.5473
 IR Inten    --      2.4903                 0.1036                 1.1665

                     46                     47                     48
                      A                      A                      A
 Frequencies --    799.4111               810.6946               820.0765
 Red. masses --      2.2673                 3.3227                 1.9532
 Frc consts  --      0.8537                 1.2866                 0.7739
 IR Inten    --     13.5678                 3.6250                 0.9015

                     49                     50                     51
                      A                      A                      A
 Frequencies --    858.7605               896.0318               903.2675
 Red. masses --      1.4070                 1.9857                 2.0427
 Frc consts  --      0.6114                 0.9393                 0.9820
 IR Inten    --      1.7276                 0.7827                19.8722

                     52                     53                     54
                      A                      A                      A
 Frequencies --    914.5858               932.1909               969.4062
 Red. masses --      1.3731                 1.7443                 3.5572
 Frc consts  --      0.6767                 0.8931                 1.9696
 IR Inten    --      0.0095                19.5117                 7.6695

                     55                     56                     57
                      A                      A                      A
 Frequencies --    982.1094               992.8118               999.6685
 Red. masses --      4.0770                 1.4259                 1.3980
 Frc consts  --      2.3169                 0.8281                 0.8231
 IR Inten    --      1.8579                11.3990                 1.4170

                     58                     59                     60
                      A                      A                      A
 Frequencies --   1004.4944              1010.6143              1016.0465
 Red. masses --      3.7839                 3.5781                 1.3238
 Frc consts  --      2.2495                 2.1531                 0.8052
 IR Inten    --      1.5104                 3.4494                 0.0049

                     61                     62                     63
                      A                      A                      A
 Frequencies --   1037.7850              1041.0989              1046.4048
 Red. masses --      2.9575                 1.5211                 1.6643
 Frc consts  --      1.8766                 0.9714                 1.0737
 IR Inten    --      2.2083                14.7820                 0.7326

                     64                     65                     66
                      A                      A                      A
 Frequencies --   1051.8772              1058.4357              1064.9029
 Red. masses --      1.5685                 2.6267                 2.3577
 Frc consts  --      1.0225                 1.7338                 1.5753
 IR Inten    --      0.7321                 0.1386                 1.9836

                     67                     68                     69
                      A                      A                      A
 Frequencies --   1065.5378              1073.0044              1081.0461
 Red. masses --      2.2150                 1.7566                 2.5687
 Frc consts  --      1.4817                 1.1916                 1.7687
 IR Inten    --      0.3346                17.0345                 1.4534

                     70                     71                     72
                      A                      A                      A
 Frequencies --   1109.9220              1137.8695              1145.8538
 Red. masses --      2.2196                 2.6807                 2.1497
 Frc consts  --      1.6111                 2.0449                 1.6629
 IR Inten    --      0.4578                10.4848                10.7118

                     73                     74                     75
                      A                      A                      A
 Frequencies --   1166.0980              1184.5770              1205.9571
 Red. masses --      2.1066                 1.2179                 2.0394
 Frc consts  --      1.6878                 1.0069                 1.7475
 IR Inten    --      7.4337                 2.2258                 6.1703

                     76                     77                     78
                      A                      A                      A
 Frequencies --   1213.1180              1229.3755              1242.0361
 Red. masses --      2.0177                 1.2521                 1.5044
 Frc consts  --      1.7495                 1.1150                 1.3673
 IR Inten    --      4.5345                 0.0573                 3.0935

                     79                     80                     81
                      A                      A                      A
 Frequencies --   1266.4156              1274.3457              1283.1424
 Red. masses --      1.3003                 1.4825                 1.6188
 Frc consts  --      1.2287                 1.4185                 1.5703
 IR Inten    --      0.6934                14.8943                17.3960

                     82                     83                     84
                      A                      A                      A
 Frequencies --   1299.9194              1302.6055              1308.9407
 Red. masses --      2.7723                 1.3216                 1.6030
 Frc consts  --      2.7601                 1.3213                 1.6181
 IR Inten    --    281.7158                 2.9219                84.9967

                     85                     86                     87
                      A                      A                      A
 Frequencies --   1324.4563              1327.7977              1332.6665
 Red. masses --      1.0722                 1.1810                 1.0550
 Frc consts  --      1.1082                 1.2268                 1.1039
 IR Inten    --      3.2256                 4.8410                 0.0481

                     88                     89                     90
                      A                      A                      A
 Frequencies --   1333.9126              1339.3531              1340.3860
 Red. masses --      1.5158                 1.1601                 1.0912
 Frc consts  --      1.5891                 1.2261                 1.1551
 IR Inten    --      3.5374                 2.7388                 0.2723

                     91                     92                     93
                      A                      A                      A
 Frequencies --   1349.9713              1360.9746              1365.1127
 Red. masses --      1.9125                 7.4374                 1.4436
 Frc consts  --      2.0536                 8.1166                 1.5850
 IR Inten    --     23.5163                13.2726                 6.7690

                     94                     95                     96
                      A                      A                      A
 Frequencies --   1382.7150              1395.7433              1399.9322
 Red. masses --      1.4387                 1.5614                 1.5915
 Frc consts  --      1.6207                 1.7922                 1.8377
 IR Inten    --      2.3946                 0.5130                 0.2452

                     97                     98                     99
                      A                      A                      A
 Frequencies --   1401.6525              1413.0011              1415.2723
 Red. masses --      1.5867                 1.2512                 1.2904
 Frc consts  --      1.8367                 1.4719                 1.5228
 IR Inten    --      0.3004                 2.2942                25.7985

                    100                    101                    102
                      A                      A                      A
 Frequencies --   1469.6845              1473.4621              1483.0626
 Red. masses --      1.0909                 1.0585                 2.2166
 Frc consts  --      1.3883                 1.3540                 2.8725
 IR Inten    --      4.0853                 5.0044                 0.2576

                    103                    104                    105
                      A                      A                      A
 Frequencies --   1483.8043              1484.0235              1487.3980
 Red. masses --      1.0947                 1.0774                 1.0749
 Frc consts  --      1.4201                 1.3979                 1.4011
 IR Inten    --      0.0726                 0.0665                 0.7615

                    106                    107                    108
                      A                      A                      A
 Frequencies --   1487.7973              1491.5640              1496.2407
 Red. masses --      1.0738                 1.0817                 1.0893
 Frc consts  --      1.4004                 1.4178                 1.4368
 IR Inten    --      0.1680                 0.2158                 3.1776

                    109                    110                    111
                      A                      A                      A
 Frequencies --   1499.7144              1501.6140              1506.8062
 Red. masses --      1.0397                 1.1017                 1.1754
 Frc consts  --      1.3778                 1.4636                 1.5723
 IR Inten    --      7.9255                 0.3607                 2.2961

                    112                    113                    114
                      A                      A                      A
 Frequencies --   1509.0806              1511.9241              1515.3851
 Red. masses --      2.1135                 1.1114                 1.0993
 Frc consts  --      2.8358                 1.4968                 1.4873
 IR Inten    --      5.5673                 0.2664                17.2699

                    115                    116                    117
                      A                      A                      A
 Frequencies --   1616.3173              1628.7732              1660.0064
 Red. masses --      6.8344                 5.8917                 7.8627
 Frc consts  --     10.5197                 9.2090                12.7656
 IR Inten    --      3.2743                68.9013                57.8169

                    118                    119                    120
                      A                      A                      A
 Frequencies --   1707.5472              1712.4285              2989.4935
 Red. masses --     11.9528                12.1309                 1.0574
 Frc consts  --     20.5336                20.9589                 5.5678
 IR Inten    --     14.6029               387.4622                 0.3390

                    121                    122                    123
                      A                      A                      A
 Frequencies --   2990.4447              2992.7304              2993.7879
 Red. masses --      1.0574                 1.0582                 1.0583
 Frc consts  --      5.5714                 5.5843                 5.5885
 IR Inten    --      0.0407                 1.8513                 2.3993

                    124                    125                    126
                      A                      A                      A
 Frequencies --   2998.0232              3003.8794              3005.9987
 Red. masses --      1.0601                 1.0631                 1.0960
 Frc consts  --      5.6141                 5.6521                 5.8347
 IR Inten    --      0.6767                15.0439                 2.8717

                    127                    128                    129
                      A                      A                      A
 Frequencies --   3008.1391              3009.0657              3012.2599
 Red. masses --      1.0702                 1.0854                 1.0842
 Frc consts  --      5.7057                 5.7903                 5.7964
 IR Inten    --    111.1820                31.3178                24.8504

                    130                    131                    132
                      A                      A                      A
 Frequencies --   3016.3696              3016.6890              3023.2776
 Red. masses --      1.0810                 1.0390                 1.0978
 Frc consts  --      5.7950                 5.5707                 5.9118
 IR Inten    --     18.0565                65.6369                 6.7031

                    133                    134                    135
                      A                      A                      A
 Frequencies --   3032.8275              3040.5285              3042.4794
 Red. masses --      1.1030                 1.0425                 1.1033
 Frc consts  --      5.9776                 5.6782                 6.0173
 IR Inten    --      3.7913                 6.1975                 0.1397

                    136                    137                    138
                      A                      A                      A
 Frequencies --   3050.7153              3054.1909              3060.3654
 Red. masses --      1.1001                 1.0734                 1.0937
 Frc consts  --      6.0321                 5.8994                 6.0355
 IR Inten    --     83.1769                55.6406                82.5771

                    139                    140                    141
                      A                      A                      A
 Frequencies --   3077.0162              3081.4745              3085.9994
 Red. masses --      1.1025                 1.1009                 1.0962
 Frc consts  --      6.1499                 6.1591                 6.1507
 IR Inten    --     74.0214                46.9514                 5.7198

                    142                    143                    144
                      A                      A                      A
 Frequencies --   3096.9042              3148.7092              3169.5853
 Red. masses --      1.1039                 1.0983                 1.0869
 Frc consts  --      6.2377                 6.4158                 6.4337
 IR Inten    --     15.0171                16.2632                 3.3863

                    145                    146                    147
                      A                      A                      A
 Frequencies --   3184.0282              3199.7865              3202.3636
 Red. masses --      1.0918                 1.0925                 1.0949
 Frc consts  --      6.5214                 6.5906                 6.6155
 IR Inten    --     10.6738                 0.6210                10.7080

 - Thermochemistry -
 -------------------
 Temperature   298.150 Kelvin.  Pressure   1.00000 Atm.
 Atom     1 has atomic number  6 and mass  12.00000

 Molecular mass:   312.20893 amu.
 Principal axes and moments of inertia in atomic units:
                           1         2         3
     Eigenvalues --  2703.93533********************
           X            0.86366   0.28040   0.41888
           Y           -0.40719  -0.10173   0.90766
           Z           -0.29712   0.95448  -0.02631
 This molecule is an asymmetric top.
 Rotational symmetry number  1.
 Warning -- assumption of classical behavior for rotation
           may cause significant error
 Rotational temperatures (Kelvin)      0.03203     0.00279     0.00266
 Rotational constants (GHZ):           0.66745     0.05805     0.05551
 Zero-point vibrational energy    1161315.0 (Joules/Mol)
                                  277.56094 (Kcal/Mol)
 Warning -- explicit consideration of  35 degrees of freedom as
           vibrations may cause significant error
 Vibrational temperatures:     17.60    27.98    35.31    47.65    60.66
          (Kelvin)             83.59    99.87   110.14   114.27   139.69
                              168.42   175.48   177.64   180.70   230.13
                              234.64   239.71   283.45   350.46   351.49
                              362.25   445.59   471.99   499.37   519.75
                              559.75   567.35   605.59   617.05   628.22
                              654.94   697.74   711.24   751.47   815.41
                              927.43   974.68   979.92  1015.69  1051.76
                             1052.98  1056.08  1063.06  1090.80  1137.71
                             1150.17  1166.41  1179.91  1235.56  1289.19
                             1299.60  1315.88  1341.21  1394.76  1413.04
                             1428.43  1438.30  1445.24  1454.05  1461.86
                             1493.14  1497.91  1505.54  1513.42  1522.85
                             1532.16  1533.07  1543.81  1555.38  1596.93
                             1637.14  1648.63  1677.75  1704.34  1735.10
                             1745.41  1768.80  1787.01  1822.09  1833.50
                             1846.16  1870.29  1874.16  1883.27  1905.60
                             1910.40  1917.41  1919.20  1927.03  1928.52
                             1942.31  1958.14  1964.09  1989.42  2008.16
                             2014.19  2016.67  2032.99  2036.26  2114.55
                             2119.98  2133.80  2134.86  2135.18  2140.03
                             2140.61  2146.03  2152.76  2157.75  2160.49
                             2167.96  2171.23  2175.32  2180.30  2325.52
                             2343.44  2388.38  2456.78  2463.80  4301.21
                             4302.58  4305.87  4307.39  4313.49  4321.91
                             4324.96  4328.04  4329.37  4333.97  4339.88
                             4340.34  4349.82  4363.56  4374.64  4377.45
                             4389.30  4394.30  4403.18  4427.14  4433.55
                             4440.06  4455.75  4530.29  4560.33  4581.11
                             4603.78  4607.49

 Zero-point correction=                           0.442322 (Hartree/Particle)
 Thermal correction to Energy=                    0.466805
 Thermal correction to Enthalpy=                  0.467749
 Thermal correction to Gibbs Free Energy=         0.383466
 Sum of electronic and zero-point Energies=           -967.394471
 Sum of electronic and thermal Energies=              -967.369988
 Sum of electronic and thermal Enthalpies=            -967.369044
 Sum of electronic and thermal Free Energies=         -967.453327

                     E (Thermal)             CV                S
                      KCal/Mol        Cal/Mol-Kelvin    Cal/Mol-Kelvin
 Total                  292.925             89.978            177.389
 Electronic               0.000              0.000              0.000
 Translational            0.889              2.981             43.112
 Rotational               0.889              2.981             36.256
 Vibrational            291.147             84.016             98.021
 Vibration     1          0.593              1.987              7.611
 Vibration     2          0.593              1.986              6.690
 Vibration     3          0.593              1.985              6.228
 Vibration     4          0.594              1.983              5.633
 Vibration     5          0.595              1.980              5.155
 Vibration     6          0.596              1.974              4.521
 Vibration     7          0.598              1.969              4.170
 Vibration     8          0.599              1.965              3.977
 Vibration     9          0.600              1.963              3.905
 Vibration    10          0.603              1.951              3.512
 Vibration    11          0.608              1.935              3.148
 Vibration    12          0.609              1.931              3.069
 Vibration    13          0.610              1.929              3.045
 Vibration    14          0.611              1.927              3.012
 Vibration    15          0.622              1.891              2.550
 Vibration    16          0.623              1.888              2.514
 Vibration    17          0.624              1.884              2.473
 Vibration    18          0.636              1.844              2.161
 Vibration    19          0.659              1.773              1.777
 Vibration    20          0.660              1.772              1.771
 Vibration    21          0.664              1.760              1.718
 Vibration    22          0.699              1.655              1.364
 Vibration    23          0.711              1.619              1.270
 Vibration    24          0.725              1.581              1.179
 Vibration    25          0.735              1.552              1.117
 Vibration    26          0.757              1.494              1.004
 Vibration    27          0.761              1.482              0.984
 Vibration    28          0.783              1.425              0.889
 Vibration    29          0.790              1.407              0.862
 Vibration    30          0.797              1.390              0.837
 Vibration    31          0.814              1.349              0.780
 Vibration    32          0.841              1.283              0.697
 Vibration    33          0.850              1.263              0.672
 Vibration    34          0.877              1.201              0.605
 Vibration    35          0.923              1.103              0.511

 Optimization completed.
    -- Stationary point found.
 Normal termination of Gaussian 16 at Wed Dec 27 15:03:42 2023.
