 Q-Chem 5.4, Q-Chem, Inc., Pleasanton, CA (2021)
 Q-Chem 5.4.0 for Intel X86 EM64T Linux

User input:
--------------------------------------------------------------
$molecule
-2 1
C                 -7.1707500000      4.0854400000      0.7848400000
C                 -8.1555520000      3.3957530000      0.1027260000
C                 -7.8228460000      2.6310280000     -1.0350380000
C                 -5.8243800000      4.0384010000      0.3595660000
C                 -5.4859590000      3.2651600000     -0.7907060000
C                 -6.5070600000      2.5734490000     -1.4657300000
C                 -4.7961860000      4.7609800000      1.0737670000
C                 -3.4518030000      4.6480770000      0.5614480000
C                 -3.0892230000      3.9155950000     -0.5510920000
C                 -4.0954400000      3.1776490000     -1.2828450000
O                 -4.9871150000      5.4836800000      2.1104160000
O                 -3.8100420000      2.4905730000     -2.3003110000
O                 -2.5344930000      5.3550020000      1.2863060000
C                 -1.6592830000      3.8576410000     -1.0243860000
C                 -0.8708220000      2.6576640000     -0.4630220000
C                  0.5735160000      2.5992800000     -0.9739940000
C                  1.3836440000      1.4186880000     -0.4241760000
C                  2.8281490000      1.3701010000     -0.9377370000
C                  3.6479290000      0.1946110000     -0.3912770000
C                  5.0900210000      0.1569160000     -0.9118940000
C                  5.9184480000     -1.0135960000     -0.3675790000
C                  7.3587210000     -1.0336340000     -0.8986310000
C                  8.1795420000     -2.2013780000     -0.3491500000
S                  9.8900750000     -2.1654910000     -1.0222080000
C                 10.5922900000     -3.6468920000     -0.1871460000
C                 12.0548560000     -3.8509630000     -0.5851640000
C                 12.6843120000     -5.0780460000      0.0897750000
C                 14.1518590000     -5.2949800000     -0.2998150000
C                 14.7905380000     -6.5180920000      0.3694890000
C                 16.2580450000     -6.7349830000     -0.0193490000
C                 16.8967230000     -7.9579940000      0.6505360000
C                 18.3641040000     -8.1759720000      0.2629980000
C                 19.0013760000     -9.3994660000      0.9340700000
C                 20.4667340000     -9.6166300000      0.5470180000
H                 -7.4016980000      4.6796670000      1.6620270000
H                 -9.1865270000      3.4415000000      0.4428120000
H                 -8.5966610000      2.0885560000     -1.5705440000
H                 -6.2218170000      1.9928910000     -2.3360140000
H                 -3.1000470000      5.7584960000      1.9822450000
H                 -1.1442550000      4.7828410000     -0.7448520000
H                 -1.6659620000      3.7842070000     -2.1167210000
H                 -1.3966190000      1.7370210000     -0.7381030000
H                 -0.8702180000      2.7107250000      0.6323230000
H                  1.0861230000      3.5365920000     -0.7167520000
H                  0.5640210000      2.5490850000     -2.0710950000
H                  0.8753920000      0.4807620000     -0.6834140000
H                  1.3915610000      1.4658360000      0.6728700000
H                  3.3333230000      2.3108190000     -0.6808360000
H                  2.8184820000      1.3226770000     -2.0348140000
H                  3.1456310000     -0.7472100000     -0.6482820000
H                  3.6604750000      0.2413560000      0.7056310000
H                  5.5899570000      1.1005530000     -0.6568780000
H                  5.0761780000      0.1087770000     -2.0086240000
H                  5.4231110000     -1.9588860000     -0.6241660000
H                  5.9361010000     -0.9662110000      0.7289050000
H                  7.8548340000     -0.0909450000     -0.6404430000
H                  7.3423220000     -1.0873020000     -1.9932980000
H                  7.7180540000     -3.1554370000     -0.6220910000
H                  8.2344180000     -2.1499940000      0.7426690000
H                  9.9946360000     -4.5197020000     -0.4682070000
H                 10.5069900000     -3.5078700000      0.8951720000
H                 12.6299450000     -2.9556490000     -0.3222730000
H                 12.1223640000     -3.9592790000     -1.6738000000
H                 12.1041400000     -5.9731700000     -0.1693320000
H                 12.6104660000     -4.9711750000      1.1797780000
H                 14.7304940000     -4.3985980000     -0.0409940000
H                 14.2243220000     -5.4010820000     -1.3901340000
H                 14.2116260000     -7.4146600000      0.1114420000
H                 14.7170580000     -6.4126550000      1.4599180000
H                 16.8371550000     -5.8383910000      0.2385580000
H                 16.3318730000     -6.8407670000     -1.1098160000
H                 16.3174770000     -8.8544330000      0.3926870000
H                 16.8224270000     -7.8521560000      1.7408950000
H                 18.9451180000     -7.2808650000      0.5207320000
H                 18.4404220000     -8.2829290000     -0.8269370000
H                 18.4206760000    -10.2945040000      0.6770430000
H                 18.9247180000     -9.2933110000      2.0236630000
H                 20.5765520000     -9.7672430000     -0.5330670000
H                 20.8893710000    -10.4969250000      1.0434210000
H                 21.0854900000     -8.7562020000      0.8265360000
$end
$rem
MAX_SCF_CYCLES=200
BASIS  =  6-311++G(d,p)
GUI  =  2
JOB_TYPE  =  SP
THRESH = 14
SCF_CONVERGENCE  = 6
METHOD  =  B3LYP
SOLVENT_METHOD = COSMO
$end
$solvent
dielectric 37.219
opticaldielectric 1.43
$end

--------------------------------------------------------------

             Standard Nuclear Orientation (Angstroms)
    I     Atom           X                Y                Z
 ----------------------------------------------------------------
    1      C      12.5925422004     0.8195864002     1.4203260815
    2      C      13.1651585497     2.0139063385     1.0247340596
    3      C      12.5364305113     2.8069068127     0.0419544153
    4      C      11.3778166144     0.3739985081     0.8531612018
    5      C      10.7402948403     1.1749098156    -0.1406512334
    6      C      11.3442228338     2.3851572949    -0.5245011750
    7      C      10.7810807031    -0.8756059997     1.2676261669
    8      C       9.5393465734    -1.2421360115     0.6301815831
    9      C       8.8983346412    -0.4962653793    -0.3385908831
   10      C       9.4687471663     0.7612821409    -0.7695238113
   11      O      11.2657948731    -1.6697335496     2.1438703853
   12      O       8.9158407295     1.4785263502    -1.6462322724
   13      O       9.0341009943    -2.4322118127     1.0718445814
   14      C       7.6048651019    -0.9573279691    -0.9602436153
   15      C       6.3495966660    -0.4010525621    -0.2590988977
   16      C       5.0436141567    -0.8588770307    -0.9189623502
   17      C       3.7780177379    -0.3260570120    -0.2357543202
   18      C       2.4763753591    -0.7918019037    -0.9002158359
   19      C       1.2045477446    -0.2668076771    -0.2225211398
   20      C      -0.0898991228    -0.7392026354    -0.8958283662
   21      C      -1.3671355415    -0.2217819529    -0.2223215557
   22      C      -2.6517949367    -0.7061184451    -0.9092512925
   23      C      -3.9210684458    -0.1890186495    -0.2303882036
   24      S      -5.4190845415    -0.8055727313    -1.0998862964
   25      C      -6.7291609715    -0.0346283313    -0.0633884177
   26      C      -8.1191265595    -0.4018729147    -0.5852022597
   27      C      -9.2466354112     0.2198643441     0.2512526219
   28      C     -10.6469979929    -0.1404836848    -0.2602831672
   29      C     -11.7808396708     0.4751488062     0.5687411748
   30      C     -13.1811571586     0.1145979978     0.0579305064
   31      C     -14.3149598136     0.7300020689     0.8874971256
   32      C     -15.7156767118     0.3701305528     0.3781919399
   33      C     -16.8484627251     0.9862795309     1.2091835670
   34      C     -18.2470144289     0.6264715716     0.7004253868
   35      H      13.0566237640     0.1929874830     2.1739187025
   36      H      14.0995565442     2.3431809307     1.4709843893
   37      H      12.9861134012     3.7457097719    -0.2683140223
   38      H      10.8379096925     2.9744610227    -1.2809226980
   39      H       9.7118866513    -2.7030456617     1.7308176127
   40      H       7.5630866837    -2.0516202133    -0.9473135748
   41      H       7.5920669194    -0.6248996374    -2.0032970772
   42      H       6.4029777887     0.6929300118    -0.2673547351
   43      H       6.3585022493    -0.7139230041     0.7919145564
   44      H       5.0097972428    -1.9571619312    -0.9299105047
   45      H       5.0439531957    -0.5441639840    -1.9711961077
   46      H       3.8077038107     0.7713372807    -0.2271449701
   47      H       3.7776994554    -0.6374287003     0.8172618760
   48      H       2.4507311571    -1.8896947363    -0.9113042291
   49      H       2.4781270759    -0.4794171730    -1.9529898583
   50      H       1.2271305822     0.8308049768    -0.2116526310
   51      H       1.1999256323    -0.5798249741     0.8298801456
   52      H      -0.1095261366    -1.8368676736    -0.9087200859
   53      H      -0.0847580995    -0.4244542019    -1.9476043301
   54      H      -1.3523347406     0.8756811814    -0.2111671197
   55      H      -1.3760091490    -0.5374871707     0.8289089630
   56      H      -2.6684908104    -1.8020606268    -0.9183992440
   57      H      -2.6469189931    -0.3859681354    -1.9575475420
   58      H      -3.9401802097     0.9051853273    -0.2373836800
   59      H      -3.9612111633    -0.5233556608     0.8109223864
   60      H      -6.5899588431     1.0508990819    -0.0787470699
   61      H      -6.6044953678    -0.3810774922     0.9673622436
   62      H      -8.2277580779    -1.4925641259    -0.5894530729
   63      H      -8.2139021021    -0.0726616784    -1.6263821600
   64      H      -9.1334414486     1.3116966587     0.2597547444
   65      H      -9.1468907072    -0.1056526870     1.2948381904
   66      H     -10.7582473701    -1.2326615981    -0.2691400821
   67      H     -10.7451571789     0.1850507310    -1.3041682954
   68      H     -11.6694385428     1.5674205719     0.5784218399
   69      H     -11.6820785864     0.1506085927     1.6129976440
   70      H     -13.2927218320    -0.9777471916     0.0480847902
   71      H     -13.2803854145     0.4392952757    -0.9863321700
   72      H     -14.2032052391     1.8222603222     0.8973834458
   73      H     -14.2152887717     0.4054893866     1.9317009032
   74      H     -15.8296098633    -0.7217216330     0.3682588782
   75      H     -15.8176629205     0.6946224781    -0.6656118466
   76      H     -16.7347873183     2.0777623098     1.2197493310
   77      H     -16.7465337635     0.6627138198     2.2528664479
   78      H     -18.3988147924     0.9716658886    -0.3287128009
   79      H     -19.0302778308     1.0821987535     1.3158670479
   80      H     -18.4106181395    -0.4572103158     0.7143191175
 ----------------------------------------------------------------

  106   -1795.2443483377      4.51e-07  Convergence criterion met
 Total energy in the final basis set =    -1795.2443483377
    7   -1795.4806415739      8.98e-07  Convergence criterion met
 Total energy in the final basis set =    -1795.4806415739

                    Orbital Energies (a.u.)
 --------------------------------------------------------------

 Alpha MOs
 -- Occupied --
-88.8342 -19.1146 -19.0282 -19.0201 -10.1910 -10.1907 -10.1746 -10.1728
-10.1661 -10.1655 -10.1620 -10.1604 -10.1594 -10.1579 -10.1573 -10.1561
-10.1559 -10.1558 -10.1556 -10.1554 -10.1541 -10.1527 -10.1515 -10.1511
-10.1482 -10.1462 -10.1437 -10.1435 -10.1431 -10.1415 -10.1389 -10.1331
-10.1295 -10.1212  -7.9204  -5.8841  -5.8810  -5.8743  -1.0314  -0.9507
 -0.9440  -0.8253  -0.8201  -0.8093  -0.8023  -0.7945  -0.7833  -0.7738
 -0.7619  -0.7479  -0.7337  -0.7207  -0.7175  -0.7013  -0.6832  -0.6634
 -0.6427  -0.6266  -0.6147  -0.5982  -0.5863  -0.5797  -0.5784  -0.5758
 -0.5703  -0.5691  -0.5670  -0.5636  -0.5520  -0.5361  -0.5034  -0.4847
 -0.4816  -0.4727  -0.4716  -0.4667  -0.4527  -0.4497  -0.4418  -0.4371
 -0.4298  -0.4282  -0.4240  -0.4230  -0.4226  -0.4174  -0.4132  -0.4082
 -0.4012  -0.4000  -0.3947  -0.3932  -0.3913  -0.3840  -0.3820  -0.3777
 -0.3703  -0.3666  -0.3646  -0.3610  -0.3583  -0.3531  -0.3522  -0.3493
 -0.3448  -0.3406  -0.3378  -0.3369  -0.3317  -0.3290  -0.3266  -0.3238
 -0.3235  -0.3203  -0.3196  -0.3182  -0.3174  -0.3159  -0.3154  -0.3131
 -0.3111  -0.3093  -0.3073  -0.3040  -0.3013  -0.2954  -0.2878  -0.2303
 -0.2271  -0.2249  -0.2166  -0.1980  -0.1931  -0.1032

          Ground-State Mulliken Net Atomic Charges

     Atom                 Charge (a.u.)
  ----------------------------------------
      1 C                    -0.054674
      2 C                    -0.416931
      3 C                    -0.518405
      4 C                     0.389539
      5 C                    -0.106941
      6 C                     0.029451
      7 C                    -0.843069
      8 C                    -0.643441
      9 C                     1.884855
     10 C                    -0.741868
     11 O                    -0.759956
     12 O                    -0.664941
     13 O                    -0.350007
     14 C                    -0.295628
     15 C                    -0.726024
     16 C                    -0.275371
     17 C                    -0.124284
     18 C                    -0.093488
     19 C                    -0.278526
     20 C                    -0.111232
     21 C                    -0.340795
     22 C                    -0.192471
     23 C                    -0.821200
     24 S                    -0.425013
     25 C                    -0.712590
     26 C                    -0.011188
     27 C                     0.002781
     28 C                     0.000337
     29 C                     0.009252
     30 C                    -0.012274
     31 C                    -0.261134
     32 C                    -0.453983
     33 C                    -0.280091
     34 C                    -0.713582
     35 H                     0.154110
     36 H                     0.174993
     37 H                     0.168298
     38 H                     0.152129
     39 H                     0.293704
     40 H                     0.202232
     41 H                     0.174013
     42 H                     0.181916
     43 H                     0.161255
     44 H                     0.110782
     45 H                     0.115606
     46 H                     0.127658
     47 H                     0.128771
     48 H                     0.134734
     49 H                     0.135454
     50 H                     0.135634
     51 H                     0.135302
     52 H                     0.136464
     53 H                     0.136305
     54 H                     0.145321
     55 H                     0.144796
     56 H                     0.133472
     57 H                     0.133898
     58 H                     0.192041
     59 H                     0.191192
     60 H                     0.199421
     61 H                     0.199508
     62 H                     0.138510
     63 H                     0.138849
     64 H                     0.143184
     65 H                     0.143556
     66 H                     0.137168
     67 H                     0.137762
     68 H                     0.133336
     69 H                     0.133731
     70 H                     0.132857
     71 H                     0.133341
     72 H                     0.132362
     73 H                     0.132800
     74 H                     0.129194
     75 H                     0.129613
     76 H                     0.136180
     77 H                     0.136265
     78 H                     0.145633
     79 H                     0.154033
     80 H                     0.145515
  ----------------------------------------
  Sum of atomic charges =    -2.000000

                    Cartesian Multipole Moments
 -----------------------------------------------------------------
    Charge (ESU x 10^10)
                -9.6064
    Dipole Moment (Debye)
         X     -97.6450      Y       1.3076      Z      -0.3638
       Tot      97.6544
    Quadrupole Moments (Debye-Ang)
        XX   -1249.4046     XY      -6.2107     YY    -258.5775
        XZ     -51.4763     YZ      14.7812     ZZ    -261.8782

 Total job time:  4406.49s(wall), 33658.32s(cpu)
        *  Thank you very much for using Q-Chem.  Have a nice day.  *
