 Gaussian 16, Revision A.03,
 Gaussian 16:  ES64L-G16RevA.03 25-Dec-2016

 --------------------------------------
 #P UB3LYP/6-311++G(d,p) nosym opt freq
 --------------------------------------

 -------
 Reduced
 -------
 Symbolic Z-matrix:
 Charge = -2 Multiplicity = 1

 SCF Done:  E(UB3LYP) =  -1203.87749554     A.U. after   54 cycles
 SCF Done:  E(UB3LYP) =  -1203.89728785     A.U. after   33 cycles
 SCF Done:  E(UB3LYP) =  -1203.90127495     A.U. after   35 cycles
 SCF Done:  E(UB3LYP) =  -1203.90109729     A.U. after   39 cycles
 SCF Done:  E(UB3LYP) =  -1203.90425202     A.U. after   38 cycles
 SCF Done:  E(UB3LYP) =  -1203.90515110     A.U. after   52 cycles
 SCF Done:  E(UB3LYP) =  -1203.90656838     A.U. after   29 cycles
 SCF Done:  E(UB3LYP) =  -1203.90709099     A.U. after   32 cycles
 SCF Done:  E(UB3LYP) =  -1203.90724746     A.U. after   32 cycles
 SCF Done:  E(UB3LYP) =  -1203.90738635     A.U. after   29 cycles
 SCF Done:  E(UB3LYP) =  -1203.90765654     A.U. after   29 cycles
 SCF Done:  E(UB3LYP) =  -1203.90766977     A.U. after   30 cycles
 SCF Done:  E(UB3LYP) =  -1203.90768358     A.U. after   32 cycles
 SCF Done:  E(UB3LYP) =  -1203.90769800     A.U. after   27 cycles
 SCF Done:  E(UB3LYP) =  -1203.90770562     A.U. after   24 cycles
 SCF Done:  E(UB3LYP) =  -1203.90770624     A.U. after   25 cycles
 SCF Done:  E(UB3LYP) =  -1203.90770629     A.U. after   25 cycles
 SCF Done:  E(UB3LYP) =  -1203.90770632     A.U. after   22 cycles
 SCF Done:  E(UB3LYP) =  -1203.90770631     A.U. after   20 cycles
 Optimization completed.
    -- Stationary point found.
 Normal termination of Gaussian 16 at Fri Dec 29 01:44:51 2023.

 ----------------------------------------------------------------------
 #P Geom=AllCheck Guess=TCheck SCRF=Check GenChk UB3LYP/6-311++G(d,p) F
 req
 ----------------------------------------------------------------------

 Structure from the checkpoint file:  "313-an.chk"
 -------
 Reduced
 -------
 Charge = -2 Multiplicity = 1

                          Input orientation:
 ---------------------------------------------------------------------
 Center     Atomic      Atomic             Coordinates (Angstroms)
 Number     Number       Type             X           Y           Z
 ---------------------------------------------------------------------
      1          6           0       -5.441306   -0.243535   -0.572208
      2          6           0       -5.582380   -0.637769   -1.891389
      3          6           0       -4.480314   -0.535985   -2.772682
      4          6           0       -4.221836    0.262517   -0.070988
      5          6           0       -3.103446    0.365792   -0.965281
      6          6           0       -3.274669   -0.043137   -2.306919
      7          6           0       -4.152841    0.672937    1.340205
      8          6           0       -2.864131    1.161551    1.720829
      9          6           0       -1.759476    1.253026    0.838356
     10          6           0       -1.800724    0.881520   -0.527804
     11         16           0       -2.645539    1.869219    3.354536
     12          6           0       -2.665976    0.531228    4.530789
     13          6           0       -3.086897   -0.770259    4.216330
     14          6           0       -2.261684    0.811034    5.845894
     15          6           0       -2.257225   -0.169505    6.842153
     16          6           0       -3.074241   -1.750864    5.202560
     17          6           0       -2.664483   -1.465869    6.508362
     18          6           0       -1.802861    0.165899    8.247228
     19          8           0       -5.158979    0.572190    2.118177
     20          8           0       -0.801971    0.971372   -1.331598
     21          1           0       -6.265741   -0.307884    0.130927
     22          1           0       -6.534463   -1.025345   -2.248872
     23          1           0       -4.582382   -0.844219   -3.811715
     24          1           0       -2.407852    0.049225   -2.954062
     25          1           0       -0.815642    1.632938    1.217989
     26          1           0       -3.440729   -0.983035    3.217122
     27          1           0       -1.934223    1.818775    6.090357
     28          1           0       -3.404600   -2.755129    4.951472
     29          1           0       -2.666404   -2.243277    7.267175
     30          1           0       -0.770849    0.538436    8.261368
     31          1           0       -1.840496   -0.708841    8.904263
     32          1           0       -2.428841    0.942804    8.700336
 ---------------------------------------------------------------------

 SCF Done:  E(UB3LYP) =  -1203.90770631     A.U. after    6 cycles

 Alpha  occ. eigenvalues --  -88.62577 -18.80502 -18.79564 -10.00129  -9.99895
 Alpha  occ. eigenvalues --   -9.99654  -9.98296  -9.98007  -9.97824  -9.96753
 Alpha  occ. eigenvalues --   -9.96711  -9.95670  -9.95244  -9.95158  -9.94315
 Alpha  occ. eigenvalues --   -9.94222  -9.94098  -9.93218  -9.93025  -9.91029
 Alpha  occ. eigenvalues --   -7.71126  -5.67522  -5.67096  -5.66581  -0.72592
 Alpha  occ. eigenvalues --   -0.71080  -0.66910  -0.62097  -0.59713  -0.57537
 Alpha  occ. eigenvalues --   -0.55560  -0.51883  -0.51708  -0.50239  -0.47166
 Alpha  occ. eigenvalues --   -0.42670  -0.40750  -0.39153  -0.37722  -0.35456
 Alpha  occ. eigenvalues --   -0.31995  -0.31019  -0.27847  -0.26912  -0.26392
 Alpha  occ. eigenvalues --   -0.24986  -0.24952  -0.22511  -0.22185  -0.21388
 Alpha  occ. eigenvalues --   -0.20998  -0.20245  -0.19374  -0.17396  -0.16890
 Alpha  occ. eigenvalues --   -0.16152  -0.15905  -0.15119  -0.13964  -0.13670
 Alpha  occ. eigenvalues --   -0.12346  -0.10891  -0.09925  -0.09755  -0.09208
 Alpha  occ. eigenvalues --   -0.08121  -0.05614  -0.02127  -0.01240  -0.00691
 Alpha  occ. eigenvalues --    0.00682   0.01970   0.02975   0.10790
 Alpha virt. eigenvalues --    0.11857   0.14465   0.15057   0.15913   0.16055
 Alpha virt. eigenvalues --    0.16932   0.17688   0.17895   0.18818   0.18988
 Alpha virt. eigenvalues --    0.19625   0.19923   0.20372   0.20895   0.21150

  Beta  occ. eigenvalues --  -88.62577 -18.80502 -18.79564 -10.00129  -9.99895
  Beta  occ. eigenvalues --   -9.99654  -9.98296  -9.98007  -9.97824  -9.96753
  Beta  occ. eigenvalues --   -9.96711  -9.95670  -9.95244  -9.95158  -9.94315
  Beta  occ. eigenvalues --   -9.94222  -9.94098  -9.93218  -9.93025  -9.91029
  Beta  occ. eigenvalues --   -7.71126  -5.67522  -5.67096  -5.66581  -0.72592
  Beta  occ. eigenvalues --   -0.71080  -0.66910  -0.62097  -0.59713  -0.57537
  Beta  occ. eigenvalues --   -0.55560  -0.51883  -0.51708  -0.50239  -0.47166
  Beta  occ. eigenvalues --   -0.42670  -0.40750  -0.39153  -0.37722  -0.35456
  Beta  occ. eigenvalues --   -0.31995  -0.31019  -0.27847  -0.26912  -0.26392
  Beta  occ. eigenvalues --   -0.24986  -0.24952  -0.22511  -0.22185  -0.21388
  Beta  occ. eigenvalues --   -0.20998  -0.20245  -0.19374  -0.17396  -0.16890
  Beta  occ. eigenvalues --   -0.16152  -0.15905  -0.15119  -0.13964  -0.13670
  Beta  occ. eigenvalues --   -0.12346  -0.10891  -0.09925  -0.09755  -0.09208
  Beta  occ. eigenvalues --   -0.08121  -0.05614  -0.02127  -0.01240  -0.00691
  Beta  occ. eigenvalues --    0.00682   0.01970   0.02975   0.10790
  Beta virt. eigenvalues --    0.11857   0.14465   0.15057   0.15913   0.16055
  Beta virt. eigenvalues --    0.16932   0.17688   0.17895   0.18818   0.18988
  Beta virt. eigenvalues --    0.19625   0.19923   0.20372   0.20895   0.21150

 Mulliken charges and spin densities:
               1          2
     1  C    0.103646  -0.000000
     2  C   -0.405083   0.000000
     3  C   -0.442580  -0.000000
     4  C    0.125599   0.000000
     5  C    0.502542  -0.000000
     6  C   -0.158747   0.000000
     7  C   -1.038757  -0.000000
     8  C    1.948734  -0.000000
     9  C   -0.252576  -0.000000
    10  C   -1.028125  -0.000000
    11  S   -0.450034  -0.000000
    12  C    0.224295   0.000000
    13  C    0.203179  -0.000000
    14  C   -0.913220   0.000000
    15  C   -1.851379   0.000000
    16  C    0.238967  -0.000000
    17  C   -0.144021  -0.000000
    18  C    2.033602  -0.000000
    19  O   -0.422292  -0.000000
    20  O   -0.526520  -0.000000
    21  H    0.154541   0.000000
    22  H    0.086094   0.000000
    23  H    0.084842   0.000000
    24  H    0.142883   0.000000
    25  H    0.144945   0.000000
    26  H    0.159701  -0.000000
    27  H    0.159823  -0.000000
    28  H    0.144237   0.000000
    29  H   -0.043242   0.000000
    30  H   -0.030248   0.000000
    31  H   -0.769208   0.000000
    32  H    0.018403   0.000000
 Sum of Mulliken charges =  -2.00000  -0.00000

 Dipole moment (field-independent basis, Debye):
    X=             27.1301    Y=             -4.4140    Z=            -18.8385  Tot=             33.3229
 Quadrupole moment (field-independent basis, Debye-Ang):
   XX=           -253.6696   YY=           -149.3245   ZZ=           -325.2075
   XY=             10.7838   XZ=             48.9801   YZ=              5.9451

  Exact polarizability: 441.575  43.176 522.742 426.321-253.7052722.980
 Approx polarizability: 875.819-224.898 892.0342206.624****************

                      1                      2                      3
                      A                      A                      A
 Frequencies --     15.8855                24.6914                36.3305
 Red. masses --      3.9131                 7.2016                 5.8517
 Frc consts  --      0.0006                 0.0026                 0.0046
 IR Inten    --      1.1604                 1.1584                 1.2266

                      4                      5                      6
                      A                      A                      A
 Frequencies --     96.8144               112.4829               135.8930
 Red. masses --      8.0201                 1.0731                 4.4741
 Frc consts  --      0.0443                 0.0080                 0.0487
 IR Inten    --      5.9617                38.9405                 0.4180

                      7                      8                      9
                      A                      A                      A
 Frequencies --    151.7784               170.4323               185.2817
 Red. masses --      4.8250                 5.7203                 6.1997
 Frc consts  --      0.0655                 0.0979                 0.1254
 IR Inten    --      3.3663                 1.1689                 2.1996

                     10                     11                     12
                      A                      A                      A
 Frequencies --    208.8249               219.7102               230.4798
 Red. masses --      7.1179                 2.9549                 5.3357
 Frc consts  --      0.1829                 0.0840                 0.1670
 IR Inten    --      2.2365                 4.9850                 1.9901

                     13                     14                     15
                      A                      A                      A
 Frequencies --    275.7611               334.4991               356.9988
 Red. masses --      7.4424                 5.2425                10.4382
 Frc consts  --      0.3335                 0.3456                 0.7838
 IR Inten    --      1.7800                23.5410                80.0051

                     16                     17                     18
                      A                      A                      A
 Frequencies --    373.5492               411.7159               431.9301
 Red. masses --      5.1769                 7.4672                 4.1712
 Frc consts  --      0.4256                 0.7458                 0.4585
 IR Inten    --      0.7786               119.1461                32.8794

                     19                     20                     21
                      A                      A                      A
 Frequencies --    434.5494               443.8750               464.6661
 Red. masses --      2.9327                 4.3457                 9.7741
 Frc consts  --      0.3263                 0.5045                 1.2434
 IR Inten    --      7.0596                44.0428               569.0091

                     22                     23                     24
                      A                      A                      A
 Frequencies --    499.5435               516.0906               530.7281
 Red. masses --      6.3891                 6.0109                 4.5734
 Frc consts  --      0.9394                 0.9433                 0.7590
 IR Inten    --    149.2874               124.0093                11.3069

                     25                     26                     27
                      A                      A                      A
 Frequencies --    540.0191               605.3019               633.4679
 Red. masses --      4.3398                 7.0595                 2.8841
 Frc consts  --      0.7457                 1.5239                 0.6819
 IR Inten    --      4.1044                 4.7628                 2.1350

                     28                     29                     30
                      A                      A                      A
 Frequencies --    659.4216               684.1562               692.0175
 Red. masses --      6.1686                 3.2884                 5.7446
 Frc consts  --      1.5804                 0.9069                 1.6208
 IR Inten    --      9.5430                41.0936                11.7356

                     31                     32                     33
                      A                      A                      A
 Frequencies --    702.1483               721.8841               750.8576
 Red. masses --      2.0843                 6.2777                 1.6141
 Frc consts  --      0.6054                 1.9275                 0.5362
 IR Inten    --     27.3967                 7.4499                52.6957

                     34                     35                     36
                      A                      A                      A
 Frequencies --    765.4871               775.1678               820.5853
 Red. masses --      1.5438                 3.0877                 6.7055
 Frc consts  --      0.5330                 1.0931                 2.6603
 IR Inten    --      9.7100                 0.9315                55.2058

                     37                     38                     39
                      A                      A                      A
 Frequencies --    827.1740               832.3805               834.5453
 Red. masses --      1.8636                 1.7869                 3.9575
 Frc consts  --      0.7513                 0.7294                 1.6240
 IR Inten    --     10.9993                 0.9600                16.1447

                     40                     41                     42
                      A                      A                      A
 Frequencies --    853.3179               865.5542               870.9527
 Red. masses --      4.6888                 1.4534                 1.3061
 Frc consts  --      2.0116                 0.6415                 0.5837
 IR Inten    --      3.1658                 6.5892                 1.2054

                     43                     44                     45
                      A                      A                      A
 Frequencies --    957.0656               959.3276               966.2142
 Red. masses --      1.3222                 1.2525                 1.3366
 Frc consts  --      0.7136                 0.6791                 0.7352
 IR Inten    --      3.0982                 1.8254                 5.1528

                     46                     47                     48
                      A                      A                      A
 Frequencies --    994.4050              1007.6768              1020.9444
 Red. masses --      1.6742                 3.9672                 2.4042
 Frc consts  --      0.9754                 2.3734                 1.4765
 IR Inten    --     86.1312                91.9259               462.0778

                     49                     50                     51
                      A                      A                      A
 Frequencies --   1064.3620              1075.7233              1090.1047
 Red. masses --      1.5227                 3.0792                 2.5476
 Frc consts  --      1.0164                 2.0993                 1.7837
 IR Inten    --     13.4657                72.2136                56.8082

                     52                     53                     54
                      A                      A                      A
 Frequencies --   1095.0466              1110.3808              1126.5605
 Red. masses --      2.2631                 1.5717                 1.5543
 Frc consts  --      1.5989                 1.1417                 1.1622
 IR Inten    --     18.3936                 7.6026                78.8300

                     55                     56                     57
                      A                      A                      A
 Frequencies --   1144.9814              1188.2377              1202.3772
 Red. masses --      1.7633                 1.1520                 2.3229
 Frc consts  --      1.3620                 0.9583                 1.9786
 IR Inten    --    204.4121                22.4847               134.7075

                     58                     59                     60
                      A                      A                      A
 Frequencies --   1221.1683              1226.3939              1263.6136
 Red. masses --      2.6526                 1.9909                 1.9814
 Frc consts  --      2.3307                 1.7642                 1.8640
 IR Inten    --    134.7657               209.1817               261.7122

                     61                     62                     63
                      A                      A                      A
 Frequencies --   1306.6752              1337.8014              1339.5978
 Red. masses --      2.3794                 3.8309                 3.1033
 Frc consts  --      2.3936                 4.0395                 3.2811
 IR Inten    --     11.2381               475.0423               137.5814

                     64                     65                     66
                      A                      A                      A
 Frequencies --   1365.3627              1384.2150              1398.8453
 Red. masses --      4.8231                 4.8401                 1.2592
 Frc consts  --      5.2975                 5.4640                 1.4518
 IR Inten    --     23.1423               376.6049               464.0006

                     67                     68                     69
                      A                      A                      A
 Frequencies --   1426.6907              1431.3774              1455.8477
 Red. masses --      2.9583                 2.6997                 3.3512
 Frc consts  --      3.5478                 3.2589                 4.1849
 IR Inten    --    270.1454               111.8868               506.1443

                     70                     71                     72
                      A                      A                      A
 Frequencies --   1482.6584              1492.3257              1492.9384
 Red. masses --      1.0459                 2.3212                 1.5732
 Frc consts  --      1.3546                 3.0458                 2.0660
 IR Inten    --    180.8368              2723.9237               155.5853

                     73                     74                     75
                      A                      A                      A
 Frequencies --   1503.0958              1510.2379              1577.1175
 Red. masses --      1.9808                 4.7171                 7.0353
 Frc consts  --      2.6367                 6.3389                10.3100
 IR Inten    --    171.0670               700.0360              4377.1672

                     76                     77                     78
                      A                      A                      A
 Frequencies --   1599.0155              1600.6206              1610.7538
 Red. masses --      5.0885                 5.5882                 5.5298
 Frc consts  --      7.6656                 8.4352                 8.4531
 IR Inten    --     15.3274                13.1923                 1.6035

                     79                     80                     81
                      A                      A                      A
 Frequencies --   2991.6642              3036.5466              3062.7122
 Red. masses --      1.0385                 1.0973                 1.1003
 Frc consts  --      5.4763                 5.9614                 6.0808
 IR Inten    --     17.3507                44.1239                20.8107

                     82                     83                     84
                      A                      A                      A
 Frequencies --   3097.1470              3120.5579              3128.9474
 Red. masses --      1.0830                 1.0910                 1.0856
 Frc consts  --      6.1206                 6.2594                 6.2622
 IR Inten    --     39.0013               335.4456                 0.9867

                     85                     86                     87
                      A                      A                      A
 Frequencies --   3129.6304              3146.5275              3150.1355
 Red. masses --      1.0881                 1.0879                 1.0936
 Frc consts  --      6.2793                 6.3459                 6.3939
 IR Inten    --     20.7118                95.9900                43.5231

                     88                     89                     90
                      A                      A                      A
 Frequencies --   3159.8437              3163.1446              3216.5552
 Red. masses --      1.0905                 1.0913                 1.0919
 Frc consts  --      6.4149                 6.4335                 6.6560
 IR Inten    --     76.1720               192.3251                17.8911

 - Thermochemistry -
 -------------------
 Temperature   298.150 Kelvin.  Pressure   1.00000 Atm.
 Atom     1 has atomic number  6 and mass  12.00000

 Molecular mass:   280.05580 amu.
 Principal axes and moments of inertia in atomic units:
                           1         2         3
     Eigenvalues --  2396.71393********************
           X            0.16467   0.83871  -0.51909
           Y           -0.02664   0.52986   0.84767
           Z            0.98599  -0.12575   0.10960
 This molecule is an asymmetric top.
 Rotational symmetry number  1.
 Warning -- assumption of classical behavior for rotation
           may cause significant error
 Rotational temperatures (Kelvin)      0.03614     0.00757     0.00692
 Rotational constants (GHZ):           0.75301     0.15776     0.14421
 Zero-point vibrational energy     619247.7 (Joules/Mol)
                                  148.00374 (Kcal/Mol)
 Warning -- explicit consideration of  26 degrees of freedom as
           vibrations may cause significant error
 Vibrational temperatures:     22.86    35.53    52.27   139.29   161.84
          (Kelvin)            195.52   218.38   245.21   266.58   300.45
                              316.11   331.61   396.76   481.27   513.64
                              537.45   592.37   621.45   625.22   638.64
                              668.55   718.73   742.54   763.60   776.97
                              870.89   911.42   948.76   984.35   995.66
                             1010.23  1038.63  1080.32  1101.37  1115.29
                             1180.64  1190.12  1197.61  1200.72  1227.73
                             1245.34  1253.11  1377.00  1380.26  1390.17
                             1430.73  1449.82  1468.91  1531.38  1547.73
                             1568.42  1575.53  1597.59  1620.87  1647.37
                             1709.61  1729.95  1756.99  1764.51  1818.06
                             1880.01  1924.80  1927.38  1964.45  1991.58
                             2012.63  2052.69  2059.43  2094.64  2133.21
                             2147.12  2148.01  2162.62  2172.90  2269.12
                             2300.63  2302.94  2317.52  4304.34  4368.91
                             4406.56  4456.10  4489.79  4501.86  4502.84
                             4527.15  4532.34  4546.31  4551.06  4627.91

 Zero-point correction=                           0.235859 (Hartree/Particle)
 Thermal correction to Energy=                    0.252845
 Thermal correction to Enthalpy=                  0.253790
 Thermal correction to Gibbs Free Energy=         0.189143
 Sum of electronic and zero-point Energies=          -1203.671847
 Sum of electronic and thermal Energies=             -1203.654861
 Sum of electronic and thermal Enthalpies=           -1203.653917
 Sum of electronic and thermal Free Energies=        -1203.718563

                     E (Thermal)             CV                S
                      KCal/Mol        Cal/Mol-Kelvin    Cal/Mol-Kelvin
 Total                  158.663             66.290            136.060
 Electronic               0.000              0.000              0.000
 Translational            0.889              2.981             42.788
 Rotational               0.889              2.981             34.194
 Vibrational            156.885             60.329             59.078
 Vibration     1          0.593              1.986              7.092
 Vibration     2          0.593              1.985              6.216
 Vibration     3          0.594              1.982              5.450
 Vibration     4          0.603              1.951              3.517
 Vibration     5          0.607              1.939              3.226
 Vibration     6          0.614              1.917              2.861
 Vibration     7          0.619              1.901              2.650
 Vibration     8          0.626              1.879              2.431
 Vibration     9          0.631              1.860              2.275
 Vibration    10          0.642              1.827              2.054
 Vibration    11          0.647              1.811              1.961
 Vibration    12          0.652              1.794              1.875
 Vibration    13          0.677              1.718              1.560
 Vibration    14          0.716              1.607              1.238
 Vibration    15          0.732              1.561              1.135
 Vibration    16          0.745              1.526              1.065
 Vibration    17          0.776              1.445              0.921
 Vibration    18          0.793              1.401              0.852
 Vibration    19          0.795              1.395              0.844
 Vibration    20          0.803              1.374              0.815
 Vibration    21          0.822              1.328              0.753
 Vibration    22          0.855              1.251              0.659
 Vibration    23          0.871              1.214              0.619
 Vibration    24          0.886              1.182              0.586
 Vibration    25          0.895              1.162              0.565
 Vibration    26          0.964              1.021              0.441

 Optimization completed.
    -- Stationary point found.
 Normal termination of Gaussian 16 at Fri Dec 29 04:59:50 2023.
