 Q-Chem 5.4, Q-Chem, Inc., Pleasanton, CA (2021)
 Q-Chem 5.4.0 for Intel X86 EM64T Linux

User input:
--------------------------------------------------------------
$molecule
-1 2
C                 -1.9229320000     -0.2935880000      1.2230200000
C                 -2.7541370000      0.7634990000      0.6022820000
C                 -2.1694110000      1.6771850000     -0.2485450000
C                 -0.7664060000      1.6976720000     -0.5560680000
C                  0.0648280000      0.6405910000      0.0647030000
C                 -0.5199120000     -0.2731060000      0.9155040000
O                 -0.2151440000      2.5292110000     -1.3241690000
O                 -2.4741960000     -1.1251530000      1.9910910000
Br                 0.5317030000     -1.5748170000      1.8889240000
Br                -3.2210800000      2.9788370000     -1.2219770000
N                  1.4163330000      0.7427550000     -0.2718980000
N                 -4.1056810000      0.6614200000      0.9388590000
C                 -4.8496320000      1.7760990000      1.5421640000
C                 -6.3173750000      1.3577770000      1.7035980000
C                 -7.1630190000      2.4699270000      2.3416610000
C                 -6.5730670000      2.9403400000      3.6792670000
C                 -5.1038030000      3.3575000000      3.5221520000
C                 -4.2652430000      2.2349270000      2.8936160000
C                  2.1606390000     -0.3718940000     -0.8747790000
C                  3.6281290000      0.0470690000     -1.0368540000
C                  1.5761020000     -0.8317520000     -2.2258210000
C                  2.4150440000     -1.9542510000     -2.8539760000
C                  4.4741450000     -1.0650160000     -1.6745370000
C                  3.8840570000     -1.5364510000     -3.0117240000
H                  1.4852260000      1.5764630000     -0.8587550000
H                 -4.1746460000     -0.1723680000      1.5255930000
H                 -4.8141650000      2.6204450000      0.8506760000
H                 -6.3636370000      0.4575960000      2.3329320000
H                 -6.7185930000      1.0787440000      0.7246280000
H                 -8.1939370000      2.1244690000      2.4816890000
H                 -7.2124870000      3.3232090000      1.6522950000
H                 -6.6380630000      2.1219880000      4.4090140000
H                 -7.1656450000      3.7691350000      4.0846320000
H                 -4.6844520000      3.6436190000      4.4934870000
H                 -5.0491830000      4.2505350000      2.8854280000
H                 -4.2279630000      1.3734950000      3.5732460000
H                 -3.2321210000      2.5633000000      2.7476200000
H                  2.1257850000     -1.2158900000     -0.1828330000
H                  4.0294910000      0.3268410000     -0.0581520000
H                  3.6737730000      0.9469240000     -1.6667000000
H                  1.5382110000      0.0292960000     -2.9059040000
H                  0.5431860000     -1.1605600000     -2.0793530000
H                  1.9955670000     -2.2411050000     -3.8250400000
H                  2.3610360000     -2.8469660000     -2.2167520000
H                  4.5242210000     -1.9178960000     -0.9847180000
H                  5.5048530000     -0.7191260000     -1.8150350000
H                  4.4769340000     -2.3651730000     -3.4167970000
H                  3.9484490000     -0.7184650000     -3.7419340000
$end
$rem
MAX_SCF_CYCLES=200
SCF_Guess=core
BASIS  =  6-311++G(d,p)
GUI  =  2
JOB_TYPE  =  SP
METHOD  =  B3LYP
THRESH = 14
SCF_CONVERGENCE = 8
SOLVENT_METHOD = COSMO
$end
$solvent
dielectric 37.219
opticaldielectric 1.43
$end

--------------------------------------------------------------

             Standard Nuclear Orientation (Angstroms)
    I     Atom           X                Y                Z
 ----------------------------------------------------------------
    1      C      -0.4220331116    -1.2852959826    -0.5354581498
    2      C      -1.3347920721    -0.1190338276    -0.5166430467
    3      C      -0.8892942876     1.0858190495    -0.0161488368
    4      C       0.4219788142     1.2854855295     0.5353122151
    5      C       1.3347499257     0.1191995198     0.5165324576
    6      C       0.8892525896    -1.0856387103     0.0160103503
    7      O       0.8419768279     2.3762662415     1.0034202735
    8      O      -0.8420133567    -2.3760684038    -1.0036007848
    9      Br      1.9692208372    -2.6894313510     0.1130148954
   10      Br     -1.9692835088     2.6895878719    -0.1132277715
   11      N       2.5803693137     0.3934154391     1.0853394994
   12      N      -2.5804691592    -0.3931777507    -1.0854216394
   13      C      -3.8393383910    -0.1706649794    -0.3603798405
   14      C      -5.0107447992    -0.4913254104    -1.2986269620
   15      C      -6.3683474796    -0.2938451620    -0.6079517107
   16      C      -6.4689639478    -1.0996420052     0.6955395005
   17      C      -5.2972164647    -0.7831850047     1.6359155387
   18      C      -3.9449965340    -0.9942502801     0.9392353927
   19      C       3.8393969312     0.1705684836     0.3607099334
   20      C       5.0105543953     0.4921365472     1.2989579687
   21      C       3.9451763716     0.9932119277    -0.9394961442
   22      C       5.2975757986     0.7818721517    -1.6357415587
   23      C       6.3683315704     0.2943775758     0.6087056525
   24      C       6.4690738302     1.0992297276    -0.6953602548
   25      H       2.5214004797     1.3609619092     1.4087477833
   26      H      -2.5214927909    -1.3606715609    -1.4089844650
   27      H      -3.8970713028     0.8880072852    -0.0992023588
   28      H      -4.9212413306    -1.5337351104    -1.6361153845
   29      H      -4.9348941403     0.1365345870    -2.1915189268
   30      H      -7.1805906955    -0.5714401560    -1.2898189784
   31      H      -6.5038595437     0.7720164536    -0.3813722912
   32      H      -6.4590774602    -2.1718916780     0.4575519873
   33      H      -7.4250728724    -0.8981634070     1.1931665899
   34      H      -5.3574649135    -1.4014338645     2.5388825909
   35      H      -5.3743810760     0.2604562267     1.9687381802
   36      H      -3.8138452519    -2.0567736742     0.6959347472
   37      H      -3.1225187300    -0.7222996229     1.6071110009
   38      H       3.8973818625    -0.8882825907     0.1003151051
   39      H       4.9346409851    -0.1350700836     2.1923058451
   40      H       4.9208032839     1.5347827503     1.6356507258
   41      H       3.8137858446     2.0558895552    -0.6969985927
   42      H       3.1228851954     0.7206144479    -1.6073366001
   43      H       5.3579001568     1.3994669293    -2.5391512804
   44      H       5.3749890046    -0.2619993984    -1.9677818332
   45      H       6.5040735647    -0.7716272908     0.3829405352
   46      H       7.1803851491     0.5726161539     1.2905346929
   47      H       7.4253196639     0.8975503202    -1.1926396007
   48      H       6.4589507380     2.1716521701    -0.4581647705
 ----------------------------------------------------------------

   32   -6108.9530140007      8.05e-09  Convergence criterion met
 Total energy in the final basis set =    -6108.9530140007
   12   -6109.0337103372      8.22e-09  Convergence criterion met
 Total energy in the final basis set =    -6109.0337103372

                    Orbital Energies (a.u.)
 --------------------------------------------------------------

 Alpha MOs
 -- Occupied --
********-482.8233 -62.4761 -62.4761 -56.2965 -56.2965 -56.2929 -56.2929
-56.2926 -56.2926 -19.0878 -19.0878 -14.3155 -14.3155 -10.2382 -10.2382
-10.2186 -10.2186 -10.2116 -10.2116 -10.1953 -10.1953 -10.1584 -10.1584
-10.1582 -10.1582 -10.1579 -10.1579 -10.1564 -10.1564 -10.1563 -10.1563
 -8.6849  -8.6849  -6.5159  -6.5159  -6.5039  -6.5039  -6.5032  -6.5031
 -2.6269  -2.6269  -2.6237  -2.6237  -2.6230  -2.6230  -2.6135  -2.6135
 -2.6134  -2.6134  -1.0210  -1.0175  -0.9288  -0.9285  -0.8425  -0.8235
 -0.8141  -0.8043  -0.7703  -0.7441  -0.7369  -0.7360  -0.7245  -0.6913
 -0.6738  -0.6192  -0.6069  -0.6068  -0.6029  -0.5859  -0.5613  -0.5589
 -0.5493  -0.5190  -0.4936  -0.4917  -0.4814  -0.4714  -0.4461  -0.4461
 -0.4396  -0.4368  -0.4309  -0.4306  -0.4276  -0.4168  -0.4145  -0.4041
 -0.4029  -0.3940  -0.3927  -0.3830  -0.3786  -0.3742  -0.3740  -0.3659
 -0.3474  -0.3463  -0.3404  -0.3396  -0.3351  -0.3208  -0.3182  -0.3175
 -0.3124  -0.3122  -0.3039  -0.3034  -0.2876  -0.2825  -0.2799  -0.2790
 -0.2641  -0.2546  -0.2412  -0.2097  -0.1597

 Beta MOs
 -- Occupied --
********-482.8233 -62.4761 -62.4761 -56.2965 -56.2965 -56.2929 -56.2929
-56.2926 -56.2926 -19.0824 -19.0824 -14.3142 -14.3142 -10.2362 -10.2362
-10.2164 -10.2164 -10.2121 -10.2121 -10.1951 -10.1951 -10.1584 -10.1584
-10.1582 -10.1582 -10.1579 -10.1579 -10.1564 -10.1564 -10.1562 -10.1562
 -8.6849  -8.6849  -6.5159  -6.5159  -6.5039  -6.5039  -6.5032  -6.5032
 -2.6269  -2.6269  -2.6237  -2.6237  -2.6230  -2.6230  -2.6135  -2.6135
 -2.6134  -2.6134  -1.0119  -1.0080  -0.9255  -0.9252  -0.8395  -0.8230
 -0.8136  -0.8038  -0.7683  -0.7423  -0.7368  -0.7357  -0.7239  -0.6901
 -0.6653  -0.6180  -0.6066  -0.6066  -0.6021  -0.5824  -0.5591  -0.5585
 -0.5482  -0.5172  -0.4907  -0.4899  -0.4807  -0.4704  -0.4456  -0.4415
 -0.4377  -0.4360  -0.4293  -0.4266  -0.4231  -0.4144  -0.4093  -0.4017
 -0.4010  -0.3916  -0.3866  -0.3759  -0.3741  -0.3738  -0.3695  -0.3630
 -0.3462  -0.3460  -0.3396  -0.3393  -0.3323  -0.3183  -0.3174  -0.3123
 -0.3120  -0.3075  -0.3030  -0.3022  -0.2830  -0.2819  -0.2752  -0.2737
 -0.2593  -0.2498  -0.2277  -0.2034

          Ground-State Mulliken Net Atomic Charges

     Atom                 Charge (a.u.)    Spin (a.u.)
  --------------------------------------------------------
      1 C                    -0.151415       0.141871
      2 C                    -0.314268       0.166339
      3 C                     0.415443      -0.063650
      4 C                    -0.151287       0.141920
      5 C                    -0.314907       0.166271
      6 C                     0.416546      -0.063633
      7 O                    -0.440329       0.197811
      8 O                    -0.440290       0.197817
      9 Br                   -0.090312       0.000375
     10 Br                   -0.090199       0.000379
     11 N                     0.224460       0.055073
     12 N                     0.224393       0.055011
     13 C                    -0.510532      -0.005627
     14 C                    -0.156704       0.003089
     15 C                    -0.363716      -0.000199
     16 C                    -0.436579      -0.000206
     17 C                    -0.454252       0.001670
     18 C                    -0.201536       0.004375
     19 C                    -0.508995      -0.005648
     20 C                    -0.157142       0.003067
     21 C                    -0.201867       0.004402
     22 C                    -0.454536       0.001677
     23 C                    -0.363697      -0.000195
     24 C                    -0.436438      -0.000206
     25 H                     0.299052      -0.000836
     26 H                     0.299072      -0.000835
     27 H                     0.041643      -0.001581
     28 H                     0.140002      -0.000713
     29 H                     0.184349       0.001731
     30 H                     0.187099      -0.000187
     31 H                     0.144928       0.000228
     32 H                     0.130425       0.000250
     33 H                     0.177683      -0.000082
     34 H                     0.178262       0.000594
     35 H                     0.148184       0.000146
     36 H                     0.172073       0.000298
     37 H                     0.175189      -0.000744
     38 H                     0.041869      -0.001574
     39 H                     0.184524       0.001730
     40 H                     0.139838      -0.000715
     41 H                     0.172409       0.000301
     42 H                     0.175025      -0.000745
     43 H                     0.178258       0.000594
     44 H                     0.148226       0.000146
     45 H                     0.144874       0.000228
     46 H                     0.187130      -0.000187
     47 H                     0.177644      -0.000082
     48 H                     0.130401       0.000250
  --------------------------------------------------------
  Sum of atomic charges =    -1.000000

                    Cartesian Multipole Moments
 -----------------------------------------------------------------
    Charge (ESU x 10^10)
                -4.8032
    Dipole Moment (Debye)
         X       0.0015      Y      -0.0018      Z       0.0019
       Tot       0.0031
    Quadrupole Moments (Debye-Ang)
        XX    -162.9033     XY       3.3894     YY    -211.1263
        XZ      -6.9542     YZ      -8.7883     ZZ    -183.6712

 Total job time:  1542.51s(wall), 11932.07s(cpu)
        *  Thank you very much for using Q-Chem.  Have a nice day.  *
