 Q-Chem 5.4, Q-Chem, Inc., Pleasanton, CA (2021)
 Q-Chem 5.4.0 for Intel X86 EM64T Linux

User input:
--------------------------------------------------------------
$molecule
-1 2
C                  5.7529790000     -5.7076820000      0.4541040000
C                  5.8532890000     -5.8847270000     -0.9144900000
C                  5.1313530000     -5.0454490000     -1.7863270000
C                  4.9361030000     -4.6961520000      0.9977710000
C                  4.2098620000     -3.8520170000      0.1201470000
C                  4.3240920000     -4.0470970000     -1.2707530000
C                  4.8498280000     -4.5321310000      2.4568700000
C                  3.9884970000     -3.4720250000      2.9442090000
C                  3.2836420000     -2.6391250000      2.0811880000
C                  3.3452010000     -2.7846550000      0.6418860000
O                  5.5013730000     -5.2874720000      3.2319060000
O                  2.6908620000     -2.0343320000     -0.1365700000
H                  6.4873520000     -6.6693090000     -1.3176270000
C                  2.3849900000     -1.5343960000      2.5901470000
H                  5.2093430000     -5.1833240000     -2.8610610000
C                  3.9076440000     -3.3131440000      4.4453070000
C                  0.9036940000     -1.9503370000      2.6835730000
C                 -0.0144180000     -0.8148680000      3.1492110000
C                 -1.4923410000     -1.2132660000      3.2358550000
H                  6.2965310000     -6.3376110000      1.1490040000
H                  3.7560330000     -3.3865340000     -1.9159640000
H                  2.4534680000     -0.6941860000      1.8920280000
H                  2.7228180000     -1.1828680000      3.5706260000
H                  4.4365940000     -4.1409200000      4.9182920000
H                  2.8725610000     -3.3008890000      4.8039250000
H                  4.3743070000     -2.3777870000      4.7811750000
H                  0.8056680000     -2.8034840000      3.3670020000
H                  0.5857560000     -2.2981270000      1.6956170000
H                  0.0904940000      0.0341400000      2.4609460000
H                  0.3195600000     -0.4536040000      4.1320950000
H                 -1.5979160000     -2.0641280000      3.9221220000
H                 -1.8245660000     -1.5737570000      2.2537590000
C                 -2.4145640000     -0.0779320000      3.6955000000
C                 -3.8922850000     -0.4772660000      3.7806150000
C                 -4.8144700000      0.6584520000      4.2389650000
C                 -6.2918200000      0.2587160000      4.3237480000
C                 -7.2145690000      1.3938480000      4.7820850000
C                 -8.6883460000      0.9841560000      4.8633890000
H                 -2.3095170000      0.7722670000      3.0086170000
H                 -2.0813900000      0.2836670000      4.6775840000
H                 -3.9976700000     -1.3274750000      4.4674030000
H                 -4.2251760000     -0.8388900000      2.7989240000
H                 -4.7093690000      1.5084200000      3.5518760000
H                 -4.4815140000      1.0203290000      5.2207840000
H                 -6.3981290000     -0.5913150000      5.0107570000
H                 -6.6258980000     -0.1027470000      3.3421990000
H                 -7.1095450000      2.2429590000      4.0954910000
H                 -6.8818010000      1.7548700000      5.7631250000
H                 -9.0599380000      0.6508630000      3.8889480000
H                 -9.3192010000      1.8152600000      5.1927450000
H                 -8.8306420000      0.1591090000      5.5689420000
$end
$rem
MAX_SCF_CYCLES=200
BASIS  =  6-311++G(d,p)
GUI  =  2
JOB_TYPE  =  SP
METHOD  =  B3LYP
SCF_CONVERGENCE  = 8
SOLVENT_METHOD = COSMO
$end
$solvent
dielectric 37.219
opticaldielectric 1.43
$end

--------------------------------------------------------------

             Standard Nuclear Orientation (Angstroms)
    I     Atom           X                Y                Z
 ----------------------------------------------------------------
    1      C       6.2445781429     0.1582485297    -0.9901332711
    2      C       6.8050963945     1.4232676929    -0.9885933722
    3      C       6.0952182560     2.5056429871    -0.4316233058
    4      C       4.9670057515    -0.0708620493    -0.4411612549
    5      C       4.2531272165     1.0185215327     0.1190481900
    6      C       4.8395688089     2.2998253452     0.1116787756
    7      C       4.3973571020    -1.4267975576    -0.4571446593
    8      C       3.0781100539    -1.5868646500     0.1235281192
    9      C       2.3830151526    -0.5183306497     0.6806873388
   10      C       2.9179510109     0.8270137235     0.7019213556
   11      O       5.0406264724    -2.3923311980    -0.9568255783
   12      O       2.2753082510     1.7964570311     1.1962166436
   13      H       7.7909850334     1.5831778918    -1.4158831608
   14      C       1.0069908333    -0.6858641001     1.2852784899
   15      H       6.5342377513     3.4993246247    -0.4296707580
   16      C       2.5029131031    -2.9846224837     0.1012325730
   17      C      -0.1329427415    -0.3399016881     0.3070992491
   18      C      -1.5255835538    -0.4590793201     0.9358969125
   19      C      -2.6677398263    -0.1070043965    -0.0243149602
   20      H       6.7669526903    -0.6932315678    -1.4111461065
   21      H       4.2689508189     3.1126769609     0.5464190422
   22      H       0.9295968842    -0.0094976983     2.1423379312
   23      H       0.8685443006    -1.7081332540     1.6524802006
   24      H       3.1582300847    -3.6281893131    -0.4862173470
   25      H       1.4971134570    -3.0102069177    -0.3322029821
   26      H       2.4278136299    -3.4098461547     1.1106974239
   27      H      -0.0715417763    -0.9937943189    -0.5722177854
   28      H       0.0233876971     0.6835718755    -0.0480938989
   29      H      -1.5779245384     0.1971568984     1.8146143123
   30      H      -1.6720251035    -1.4820844386     1.3102354488
   31      H      -2.6146322245    -0.7612096422    -0.9048089682
   32      H      -2.5203271706     0.9147471127    -0.3973204928
   33      C      -4.0621232870    -0.2192317957     0.6032612142
   34      C      -5.2032754296     0.1342001853    -0.3575869439
   35      C      -6.5974019710     0.0232086608     0.2704714453
   36      C      -7.7379722405     0.3768279128    -0.6905659808
   37      C      -9.1323447028     0.2659976320    -0.0632660007
   38      C     -10.2647548984     0.6214507345    -1.0316547459
   39      H      -4.1152373468     0.4356945942     1.4829951444
   40      H      -4.2091617966    -1.2412176140     0.9776572586
   41      H      -5.1504218512    -0.5205332471    -1.2374560993
   42      H      -5.0560972743     1.1557248236    -0.7319284441
   43      H      -6.6503149286     0.6783056301     1.1500345726
   44      H      -6.7446643174    -0.9984477061     0.6450582562
   45      H      -7.6860553369    -0.2778274885    -1.5706606411
   46      H      -7.5919282032     1.3985851980    -1.0652461633
   47      H      -9.1851211875     0.9206134817     0.8154396290
   48      H      -9.2791934382    -0.7548935114     0.3105355913
   49      H     -10.1647063219     1.6489686785    -1.3962055076
   50      H     -11.2451222045     0.5325980730    -0.5539807835
   51      H     -10.2595741648    -0.0389171105    -1.9049492030
 ----------------------------------------------------------------

   20    -967.9052354446      7.95e-09  Convergence criterion met
 Total energy in the final basis set =     -967.9052354446
   13    -967.9873941368      5.18e-09  Convergence criterion met
 Total energy in the final basis set =     -967.9873941368

                    Orbital Energies (a.u.)
 --------------------------------------------------------------

 Alpha MOs
 -- Occupied --
-19.0748 -19.0738 -10.2187 -10.2175 -10.1703 -10.1699 -10.1699 -10.1694
-10.1673 -10.1673 -10.1673 -10.1637 -10.1576 -10.1553 -10.1551 -10.1549
-10.1547 -10.1544 -10.1542 -10.1539 -10.1537 -10.1512 -10.1498  -0.9998
 -0.9968  -0.8556  -0.8184  -0.8060  -0.7898  -0.7676  -0.7515  -0.7476
 -0.7329  -0.7047  -0.6786  -0.6566  -0.6424  -0.6099  -0.5934  -0.5809
 -0.5727  -0.5677  -0.5666  -0.5484  -0.5129  -0.4872  -0.4798  -0.4668
 -0.4624  -0.4496  -0.4388  -0.4317  -0.4254  -0.4231  -0.4209  -0.4145
 -0.4133  -0.4075  -0.4039  -0.3952  -0.3887  -0.3823  -0.3800  -0.3764
 -0.3720  -0.3646  -0.3571  -0.3532  -0.3474  -0.3443  -0.3361  -0.3345
 -0.3296  -0.3279  -0.3218  -0.3180  -0.3176  -0.3149  -0.3139  -0.2961
 -0.2668  -0.2553  -0.2461  -0.2379  -0.2336  -0.1501

 Beta MOs
 -- Occupied --
-19.0689 -19.0679 -10.2168 -10.2156 -10.1700 -10.1695 -10.1694 -10.1689
-10.1673 -10.1672 -10.1660 -10.1624 -10.1576 -10.1553 -10.1551 -10.1549
-10.1547 -10.1544 -10.1541 -10.1539 -10.1537 -10.1512 -10.1499  -0.9893
 -0.9862  -0.8535  -0.8153  -0.8055  -0.7891  -0.7666  -0.7501  -0.7457
 -0.7318  -0.7027  -0.6773  -0.6518  -0.6398  -0.6091  -0.5923  -0.5791
 -0.5725  -0.5670  -0.5663  -0.5457  -0.5109  -0.4849  -0.4797  -0.4658
 -0.4605  -0.4490  -0.4381  -0.4296  -0.4224  -0.4202  -0.4199  -0.4121
 -0.4088  -0.4059  -0.4016  -0.3892  -0.3860  -0.3817  -0.3794  -0.3750
 -0.3638  -0.3586  -0.3545  -0.3472  -0.3433  -0.3383  -0.3353  -0.3316
 -0.3287  -0.3268  -0.3214  -0.3177  -0.3175  -0.3149  -0.3136  -0.2952
 -0.2487  -0.2457  -0.2407  -0.2294  -0.2275

          Ground-State Mulliken Net Atomic Charges

     Atom                 Charge (a.u.)    Spin (a.u.)
  --------------------------------------------------------
      1 C                     0.177239       0.035612
      2 C                    -0.463919       0.025706
      3 C                    -0.477604       0.028080
      4 C                     0.212689       0.008300
      5 C                    -0.226135       0.017298
      6 C                     0.086495       0.036967
      7 C                    -0.786325       0.109876
      8 C                     0.960347       0.088085
      9 C                     1.046979       0.085182
     10 C                    -0.865527       0.111243
     11 O                    -0.517558       0.217862
     12 O                    -0.493138       0.219045
     13 H                     0.199080      -0.002259
     14 C                    -0.474677       0.015122
     15 H                     0.197339      -0.002212
     16 C                    -0.556620      -0.002558
     17 C                    -0.975217       0.000514
     18 C                    -0.272880       0.005462
     19 C                    -0.008453      -0.003541
     20 H                     0.180026      -0.002279
     21 H                     0.180039      -0.002524
     22 H                     0.207765       0.003175
     23 H                     0.186197       0.000682
     24 H                     0.179903      -0.001534
     25 H                     0.169426       0.004376
     26 H                     0.187109       0.005995
     27 H                     0.134392      -0.000566
     28 H                     0.190823      -0.000431
     29 H                     0.126064       0.000215
     30 H                     0.117884      -0.000506
     31 H                     0.134412       0.000115
     32 H                     0.130651      -0.000183
     33 C                     0.060330      -0.000395
     34 C                    -0.017319      -0.000102
     35 C                    -0.248042       0.000150
     36 C                    -0.456908       0.000025
     37 C                    -0.290880       0.000011
     38 C                    -0.711648      -0.000005
     39 H                     0.135081      -0.000001
     40 H                     0.135711       0.000001
     41 H                     0.134236      -0.000005
     42 H                     0.134789       0.000005
     43 H                     0.131434       0.000003
     44 H                     0.131487      -0.000002
     45 H                     0.128787       0.000001
     46 H                     0.128772      -0.000001
     47 H                     0.136123      -0.000001
     48 H                     0.136198       0.000000
     49 H                     0.145555      -0.000000
     50 H                     0.153914      -0.000001
     51 H                     0.145576       0.000000
  --------------------------------------------------------
  Sum of atomic charges =    -1.000000

                    Cartesian Multipole Moments
 -----------------------------------------------------------------
    Charge (ESU x 10^10)
                -4.8032
    Dipole Moment (Debye)
         X     -18.3244      Y       0.9541      Z      -0.3071
       Tot      18.3518
    Quadrupole Moments (Debye-Ang)
        XX    -225.8262     XY      21.7142     YY    -166.0100
        XZ       3.5332     YZ     -11.0903     ZZ    -155.5816

 Total job time:  630.53s(wall), 4655.73s(cpu)
        *  Thank you very much for using Q-Chem.  Have a nice day.  *
