 Gaussian 16, Revision A.03,
 Gaussian 16:  ES64L-G16RevA.03 25-Dec-2016

 ----------------------------------------------
 #P UB3LYP/6-311++G(d,p) nosym opt freq SCF=YQC
 ----------------------------------------------

 -------
 Reduced
 -------
 Symbolic Z-matrix:
 Charge = -2 Multiplicity = 1

 SCF Done:  E(UB3LYP) =  -1089.92902693     a.u. after   25 cycles
 SCF Done:  E(UB3LYP) =  -1089.93043283     A.U. after   32 cycles
 SCF Done:  E(UB3LYP) =  -1089.96730284     a.u. after   95 cycles
 SCF Done:  E(UB3LYP) =  -1089.96832952     A.U. after   27 cycles
 SCF Done:  E(UB3LYP) =  -1089.97925517     a.u. after   69 cycles
 SCF Done:  E(UB3LYP) =  -1089.97987523     A.U. after   26 cycles
 SCF Done:  E(UB3LYP) =  -1089.98623317     a.u. after  107 cycles
 SCF Done:  E(UB3LYP) =  -1089.98672031     A.U. after   27 cycles
 SCF Done:  E(UB3LYP) =  -1089.98782343     a.u. after   61 cycles
 SCF Done:  E(UB3LYP) =  -1089.98824954     A.U. after   24 cycles
 SCF Done:  E(UB3LYP) =  -1089.98959885     a.u. after    1 cycles
 SCF Done:  E(UB3LYP) =  -1089.98960641     A.U. after   25 cycles
 SCF Done:  E(UB3LYP) =  -1089.98960260     a.u. after    1 cycles
 SCF Done:  E(UB3LYP) =  -1089.98960653     A.U. after   26 cycles
 SCF Done:  E(UB3LYP) =  -1089.98960149     a.u. after    1 cycles
 SCF Done:  E(UB3LYP) =  -1089.98960658     A.U. after   24 cycles
 SCF Done:  E(UB3LYP) =  -1089.98960518     a.u. after    1 cycles
 SCF Done:  E(UB3LYP) =  -1089.98960659     A.U. after   23 cycles
 Optimization completed.
    -- Stationary point found.
 Normal termination of Gaussian 16 at Sat Dec 23 17:57:23 2023.

 ----------------------------------------------------------------------
 #P Geom=AllCheck Guess=TCheck SCRF=Check GenChk UB3LYP/6-311++G(d,p) F
 req
 ----------------------------------------------------------------------

 Structure from the checkpoint file:  "182-an.chk"
 -------
 Reduced
 -------
 Charge = -2 Multiplicity = 1

                          Input orientation:
 ---------------------------------------------------------------------
 Center     Atomic      Atomic             Coordinates (Angstroms)
 Number     Number       Type             X           Y           Z
 ---------------------------------------------------------------------
      1          6           0        6.672641    0.576866    0.736706
      2          6           0        5.191573    0.456772    0.460432
      3          6           0        4.464060    1.485512   -0.158084
      4          6           0        3.112693    1.363878   -0.444417
      5          6           0        2.379185    0.188431   -0.124523
      6          7           0        1.045225    0.174912   -0.417183
      7          6           0        0.094149   -0.853483   -0.339305
      8          6           0        0.420777   -2.191496   -0.443996
      9          6           0       -0.581655   -3.183650   -0.363066
     10          6           0       -1.907372   -2.847131   -0.169281
     11          8           0       -2.830456   -3.875139   -0.062654
     12          6           0       -2.331614   -1.486686   -0.093575
     13          6           0       -3.740503   -1.148436    0.084524
     14          8           0       -4.670242   -1.998129    0.216525
     15          6           0       -4.042428    0.282118    0.098302
     16          6           0       -5.383214    0.694426    0.265074
     17          6           0       -5.742960    2.028557    0.277017
     18          6           0       -4.740647    3.020910    0.115691
     19          6           0       -3.424405    2.648674   -0.051516
     20          6           0       -3.030322    1.282193   -0.063361
     21          6           0       -1.645260    0.945085   -0.239097
     22          8           0       -0.768353    1.905553   -0.423854
     23          6           0       -1.300363   -0.448831   -0.215240
     24          6           0        3.116722   -0.847133    0.508115
     25          6           0        4.473161   -0.699994    0.784989
     26          1           0        7.261074   -0.187964    0.207603
     27          1           0        7.059828    1.549895    0.416677
     28          1           0        6.908635    0.470917    1.802447
     29          1           0        4.974088    2.408981   -0.424222
     30          1           0        2.581028    2.182691   -0.918189
     31          1           0        0.520534    1.102617   -0.497119
     32          1           0        1.442115   -2.492944   -0.631031
     33          1           0       -0.303829   -4.234483   -0.444479
     34          1           0       -2.318680   -4.688250   -0.137690
     35          1           0       -6.119836   -0.093736    0.382096
     36          1           0       -6.783507    2.317715    0.407869
     37          1           0       -5.012350    4.074819    0.124421
     38          1           0       -2.638385    3.384528   -0.179233
     39          1           0        2.610271   -1.748251    0.822294
     40          1           0        4.988620   -1.520314    1.281603
 ---------------------------------------------------------------------

 SCF Done:  E(UB3LYP) =  -1089.98960659     a.u. after    1 cycles
 SCF Done:  E(UB3LYP) =  -1089.98960659     A.U. after    7 cycles

 Alpha  occ. eigenvalues --  -18.93367 -18.82124 -18.81216 -14.09958 -10.01791
 Alpha  occ. eigenvalues --  -10.01081 -10.00141  -9.98905  -9.98754  -9.98722
 Alpha  occ. eigenvalues --   -9.98644  -9.97933  -9.97530  -9.97508  -9.97212
 Alpha  occ. eigenvalues --   -9.95766  -9.95485  -9.94936  -9.94810  -9.94757
 Alpha  occ. eigenvalues --   -9.94690  -9.94476  -9.94159  -9.93653  -9.93390
 Alpha  occ. eigenvalues --   -0.84250  -0.74659  -0.73685  -0.71694  -0.65927
 Alpha  occ. eigenvalues --   -0.62753  -0.61608  -0.57719  -0.55738  -0.55357
 Alpha  occ. eigenvalues --   -0.52356  -0.52208  -0.51293  -0.48311  -0.43966
 Alpha  occ. eigenvalues --   -0.42216  -0.41808  -0.40541  -0.39213  -0.36534
 Alpha  occ. eigenvalues --   -0.34261  -0.33675  -0.32535  -0.29798  -0.29330
 Alpha  occ. eigenvalues --   -0.27908  -0.26867  -0.25400  -0.24996  -0.24477
 Alpha  occ. eigenvalues --   -0.23960  -0.23433  -0.22803  -0.22216  -0.21045
 Alpha  occ. eigenvalues --   -0.20638  -0.19881  -0.19586  -0.18521  -0.18079
 Alpha  occ. eigenvalues --   -0.17448  -0.16840  -0.16397  -0.15550  -0.14962
 Alpha  occ. eigenvalues --   -0.14665  -0.14164  -0.14084  -0.12052  -0.11263
 Alpha  occ. eigenvalues --   -0.10893  -0.10292  -0.08864  -0.06766  -0.03291
 Alpha  occ. eigenvalues --   -0.02584  -0.01897  -0.01653   0.00067   0.01823
 Alpha  occ. eigenvalues --    0.02890   0.10438
 Alpha virt. eigenvalues --    0.11462   0.14066   0.14684   0.14809   0.15167
 Alpha virt. eigenvalues --    0.15485   0.16664   0.17134   0.17239   0.17601
 Alpha virt. eigenvalues --    0.18195   0.18989   0.19428   0.19695   0.19900

  Beta  occ. eigenvalues --  -18.93367 -18.82124 -18.81216 -14.09958 -10.01791
  Beta  occ. eigenvalues --  -10.01081 -10.00141  -9.98905  -9.98754  -9.98722
  Beta  occ. eigenvalues --   -9.98644  -9.97933  -9.97530  -9.97508  -9.97212
  Beta  occ. eigenvalues --   -9.95766  -9.95485  -9.94936  -9.94810  -9.94757
  Beta  occ. eigenvalues --   -9.94690  -9.94476  -9.94159  -9.93653  -9.93390
  Beta  occ. eigenvalues --   -0.84250  -0.74659  -0.73685  -0.71694  -0.65927
  Beta  occ. eigenvalues --   -0.62753  -0.61608  -0.57719  -0.55738  -0.55357
  Beta  occ. eigenvalues --   -0.52356  -0.52208  -0.51293  -0.48311  -0.43966
  Beta  occ. eigenvalues --   -0.42216  -0.41808  -0.40541  -0.39213  -0.36534
  Beta  occ. eigenvalues --   -0.34261  -0.33675  -0.32535  -0.29798  -0.29330
  Beta  occ. eigenvalues --   -0.27908  -0.26867  -0.25400  -0.24996  -0.24477
  Beta  occ. eigenvalues --   -0.23960  -0.23433  -0.22803  -0.22216  -0.21045
  Beta  occ. eigenvalues --   -0.20638  -0.19881  -0.19586  -0.18521  -0.18079
  Beta  occ. eigenvalues --   -0.17448  -0.16840  -0.16397  -0.15550  -0.14962
  Beta  occ. eigenvalues --   -0.14665  -0.14164  -0.14084  -0.12052  -0.11263
  Beta  occ. eigenvalues --   -0.10893  -0.10292  -0.08864  -0.06766  -0.03291
  Beta  occ. eigenvalues --   -0.02584  -0.01897  -0.01653   0.00067   0.01823
  Beta  occ. eigenvalues --    0.02890   0.10438
  Beta virt. eigenvalues --    0.11462   0.14066   0.14684   0.14809   0.15167
  Beta virt. eigenvalues --    0.15485   0.16664   0.17134   0.17239   0.17601
  Beta virt. eigenvalues --    0.18195   0.18989   0.19428   0.19695   0.19900

 Mulliken charges and spin densities:
               1          2
     1  C    1.644695   0.000000
     2  C   -1.178535  -0.000000
     3  C   -0.022701   0.000000
     4  C   -0.095374   0.000000
     5  C   -0.246845   0.000000
     6  N    0.039305  -0.000000
     7  C    0.061103  -0.000000
     8  C   -0.053873   0.000000
     9  C   -0.574609   0.000000
    10  C   -0.334994  -0.000000
    11  O   -0.180123   0.000000
    12  C    0.611365  -0.000000
    13  C   -0.537907   0.000000
    14  O   -0.434736   0.000000
    15  C    0.214646   0.000000
    16  C    0.070224  -0.000000
    17  C   -0.553181   0.000000
    18  C   -0.532222   0.000000
    19  C   -0.057556  -0.000000
    20  C    0.307839  -0.000000
    21  C   -0.389878   0.000000
    22  O   -0.463237   0.000000
    23  C    0.224069  -0.000000
    24  C   -0.127169  -0.000000
    25  C   -0.492761  -0.000000
    26  H   -0.183203  -0.000000
    27  H   -0.514343  -0.000000
    28  H   -0.009119  -0.000000
    29  H    0.114336  -0.000000
    30  H    0.125388   0.000000
    31  H    0.528873   0.000000
    32  H    0.108085  -0.000000
    33  H    0.052600  -0.000000
    34  H    0.211341  -0.000000
    35  H    0.133925   0.000000
    36  H    0.085749  -0.000000
    37  H    0.089326   0.000000
    38  H    0.130690   0.000000
    39  H    0.120370   0.000000
    40  H    0.108435  -0.000000
 Sum of Mulliken charges =  -2.00000   0.00000

 Dipole moment (field-independent basis, Debye):
    X=              6.8893    Y=             -0.6781    Z=             -0.2589  Tot=              6.9275
 Quadrupole moment (field-independent basis, Debye-Ang):
   XX=           -360.4043   YY=           -190.8223   ZZ=           -166.3968
   XY=            -20.8594   XZ=             -2.3798   YZ=             -0.1547

  Exact polarizability:3574.879 301.515 767.355 197.119   0.642 345.807
 Approx polarizability:********1757.0621132.773 986.880  87.847 445.042

                      1                      2                      3
                      A                      A                      A
 Frequencies --     20.6454                34.9814                39.7411
 Red. masses --      5.4291                 4.8277                 4.9963
 Frc consts  --      0.0014                 0.0035                 0.0046
 IR Inten    --      0.4248                 5.1635                 4.9362

                      4                      5                      6
                      A                      A                      A
 Frequencies --     59.1995                63.2186                73.8711
 Red. masses --      3.3610                 2.5006                 1.7495
 Frc consts  --      0.0069                 0.0059                 0.0056
 IR Inten    --      0.3612                 3.7447                23.9297

                      7                      8                      9
                      A                      A                      A
 Frequencies --    124.2963               131.2326               149.4630
 Red. masses --      3.9848                 4.5097                 5.0211
 Frc consts  --      0.0363                 0.0458                 0.0661
 IR Inten    --     13.1605                 3.0461                 5.5393

                     10                     11                     12
                      A                      A                      A
 Frequencies --    174.0523               194.6600               228.7599
 Red. masses --      6.9079                 5.2926                 4.7037
 Frc consts  --      0.1233                 0.1182                 0.1450
 IR Inten    --      3.2342                37.3713                 5.5960

                     13                     14                     15
                      A                      A                      A
 Frequencies --    231.8264               258.5724               278.6859
 Red. masses --      1.7495                 4.6512                 2.5283
 Frc consts  --      0.0554                 0.1832                 0.1157
 IR Inten    --     26.7898                 9.5013                14.0492

                     16                     17                     18
                      A                      A                      A
 Frequencies --    308.4956               319.0981               352.7225
 Red. masses --      3.7851                 6.3951                 4.8491
 Frc consts  --      0.2122                 0.3837                 0.3554
 IR Inten    --      4.0425                13.9222               134.2757

                     19                     20                     21
                      A                      A                      A
 Frequencies --    368.7478               379.1638               393.6594
 Red. masses --      5.2253                 7.1088                 6.8169
 Frc consts  --      0.4186                 0.6021                 0.6224
 IR Inten    --      0.5991                 3.2767                28.5373

                     22                     23                     24
                      A                      A                      A
 Frequencies --    403.1755               426.6152               429.7805
 Red. masses --      6.6528                 7.7656                 3.6010
 Frc consts  --      0.6372                 0.8327                 0.3919
 IR Inten    --     57.1727               297.7722                 5.2751

                     25                     26                     27
                      A                      A                      A
 Frequencies --    442.5812               470.8181               489.5234
 Red. masses --      3.3800                 6.1307                 9.9227
 Frc consts  --      0.3901                 0.8007                 1.4010
 IR Inten    --      5.4198               105.8054               686.3777

                     28                     29                     30
                      A                      A                      A
 Frequencies --    493.0988               508.8011               515.6796
 Red. masses --      4.4732                 2.5271                 5.4629
 Frc consts  --      0.6408                 0.3855                 0.8559
 IR Inten    --     41.4695                42.0220                 3.6976

                     31                     32                     33
                      A                      A                      A
 Frequencies --    567.8555               590.2051               622.0141
 Red. masses --      5.8626                 2.7964                 4.3361
 Frc consts  --      1.1138                 0.5739                 0.9884
 IR Inten    --     92.8108                64.3005                12.6323

                     34                     35                     36
                      A                      A                      A
 Frequencies --    633.2449               651.8601               663.7941
 Red. masses --      5.4985                 6.9300                 6.4122
 Frc consts  --      1.2991                 1.7350                 1.6646
 IR Inten    --      4.4747                 6.5745                34.3781

                     37                     38                     39
                      A                      A                      A
 Frequencies --    695.8034               714.0725               718.4492
 Red. masses --      1.6635                 3.0979                 6.1619
 Frc consts  --      0.4745                 0.9307                 1.8740
 IR Inten    --      2.9426                47.3940                11.2897

                     40                     41                     42
                      A                      A                      A
 Frequencies --    723.1848               733.4390               751.6153
 Red. masses --      2.3578                 2.9435                 3.3002
 Frc consts  --      0.7265                 0.9329                 1.0985
 IR Inten    --     35.6750                53.4816               284.2798

                     43                     44                     45
                      A                      A                      A
 Frequencies --    769.7598               779.2523               802.6444
 Red. masses --      3.5685                 5.6742                 2.0956
 Frc consts  --      1.2458                 2.0301                 0.7954
 IR Inten    --     47.1381                 5.0291                 1.3291

                     46                     47                     48
                      A                      A                      A
 Frequencies --    807.5578               815.5817               824.2877
 Red. masses --      1.4575                 1.7217                 2.7067
 Frc consts  --      0.5600                 0.6747                 1.0835
 IR Inten    --     13.2017                27.9277               232.7235

                     49                     50                     51
                      A                      A                      A
 Frequencies --    833.8171               848.2148               870.7956
 Red. masses --      2.8742                 1.7155                 7.4180
 Frc consts  --      1.1773                 0.7272                 3.3141
 IR Inten    --      2.3914                51.6840               115.8872

                     52                     53                     54
                      A                      A                      A
 Frequencies --    911.2574               932.4012               949.9489
 Red. masses --      6.9242                 1.2780                 1.3162
 Frc consts  --      3.3877                 0.6546                 0.6998
 IR Inten    --     61.3169                 2.8820                 5.1000

                     55                     56                     57
                      A                      A                      A
 Frequencies --    957.0912               960.8058               966.2056
 Red. masses --      5.6114                 1.2362                 1.3583
 Frc consts  --      3.0285                 0.6724                 0.7471
 IR Inten    --     30.6037                 0.2110                 2.6025

                     58                     59                     60
                      A                      A                      A
 Frequencies --    989.3140              1006.1304              1018.2168
 Red. masses --      1.4146                 1.8038                 2.3449
 Frc consts  --      0.8157                 1.0759                 1.4324
 IR Inten    --    254.9060                42.3716               572.0987

                     61                     62                     63
                      A                      A                      A
 Frequencies --   1027.7660              1057.3487              1059.8593
 Red. masses --      1.6874                 1.4718                 2.4334
 Frc consts  --      1.0502                 0.9695                 1.6105
 IR Inten    --     90.0558                26.4283               262.2365

                     64                     65                     66
                      A                      A                      A
 Frequencies --   1096.1474              1126.2186              1138.3427
 Red. masses --      2.2464                 1.4970                 1.3008
 Frc consts  --      1.5903                 1.1187                 0.9932
 IR Inten    --    145.5917                68.5765                36.4830

                     67                     68                     69
                      A                      A                      A
 Frequencies --   1168.8917              1171.9347              1194.9605
 Red. masses --      1.4986                 1.9373                 1.4670
 Frc consts  --      1.2064                 1.5677                 1.2342
 IR Inten    --     39.5709              1131.0808               523.4828

                     70                     71                     72
                      A                      A                      A
 Frequencies --   1205.6566              1210.0398              1224.9315
 Red. masses --      2.7277                 1.7275                 2.6758
 Frc consts  --      2.3361                 1.4902                 2.3655
 IR Inten    --    297.7854               157.0609               263.0803

                     73                     74                     75
                      A                      A                      A
 Frequencies --   1229.8443              1246.6206              1253.0198
 Red. masses --      2.9734                 2.5330                 2.6742
 Frc consts  --      2.6498                 2.3193                 2.4738
 IR Inten    --      1.7458              1504.2379               494.4850

                     76                     77                     78
                      A                      A                      A
 Frequencies --   1270.7716              1296.6189              1325.5618
 Red. masses --      2.7169                 4.4864                 2.6825
 Frc consts  --      2.5850                 4.4439                 2.7771
 IR Inten    --    992.8574                96.4866               223.4405

                     79                     80                     81
                      A                      A                      A
 Frequencies --   1340.0006              1356.8589              1368.3050
 Red. masses --      2.1262                 3.0716                 3.7291
 Frc consts  --      2.2494                 3.3318                 4.1135
 IR Inten    --    696.0645               135.4707               119.3716

                     82                     83                     84
                      A                      A                      A
 Frequencies --   1379.6137              1401.9029              1415.1206
 Red. masses --      3.8445                 1.2583                 4.2536
 Frc consts  --      4.3112                 1.4571                 5.0188
 IR Inten    --    269.7243               624.1930               278.3770

                     85                     86                     87
                      A                      A                      A
 Frequencies --   1443.8723              1453.7093              1468.5008
 Red. masses --      2.8194                 3.1955                 2.4445
 Frc consts  --      3.4631                 3.9787                 3.1059
 IR Inten    --    951.2008              1906.6235              1180.1843

                     88                     89                     90
                      A                      A                      A
 Frequencies --   1479.6367              1484.3305              1490.6535
 Red. masses --      1.1130                 3.0030                 1.1697
 Frc consts  --      1.4357                 3.8982                 1.5313
 IR Inten    --    247.9478               641.3758                96.6934

                     91                     92                     93
                      A                      A                      A
 Frequencies --   1516.7481              1530.5608              1542.9624
 Red. masses --      6.2887                 2.8711                 5.3097
 Frc consts  --      8.5239                 3.9628                 7.4478
 IR Inten    --    304.0089              1287.2103               105.6921

                     94                     95                     96
                      A                      A                      A
 Frequencies --   1559.1786              1566.9612              1583.0874
 Red. masses --      4.2620                 5.4716                 3.7999
 Frc consts  --      6.1045                 7.9155                 5.6109
 IR Inten    --    320.5569              4395.0134               299.1888

                     97                     98                     99
                      A                      A                      A
 Frequencies --   1603.2637              1641.3300              1650.4295
 Red. masses --      5.5844                 5.4612                 1.8800
 Frc consts  --      8.4574                 8.6682                 3.0171
 IR Inten    --   1166.3616                37.9735               278.9508

                    100                    101                    102
                      A                      A                      A
 Frequencies --   2596.5940              2957.7029              3009.7303
 Red. masses --      1.1036                 1.0530                 1.0838
 Frc consts  --      4.3841                 5.4273                 5.7842
 IR Inten    --   2295.6618                50.7471               167.4167

                    103                    104                    105
                      A                      A                      A
 Frequencies --   3054.4732              3091.8287              3101.5295
 Red. masses --      1.0971                 1.0872                 1.0833
 Frc consts  --      6.0305                 6.1236                 6.1399
 IR Inten    --      4.6178               129.7851                22.9609

                    106                    107                    108
                      A                      A                      A
 Frequencies --   3113.1173              3120.1946              3124.7768
 Red. masses --      1.0882                 1.0874                 1.0910
 Frc consts  --      6.2135                 6.2372                 6.2765
 IR Inten    --     34.0232                73.5976               336.8608

                    109                    110                    111
                      A                      A                      A
 Frequencies --   3164.7929              3166.0682              3176.1035
 Red. masses --      1.0919                 1.0908                 1.0910
 Frc consts  --      6.4435                 6.4422                 6.4842
 IR Inten    --      9.5883               150.5858               105.4007

                    112                    113                    114
                      A                      A                      A
 Frequencies --   3189.5720              3214.0590              3790.0535
 Red. masses --      1.0905                 1.0890                 1.0649
 Frc consts  --      6.5362                 6.6280                 9.0128
 IR Inten    --     23.6216                 1.4689                 6.0600

 - Thermochemistry -
 -------------------
 Temperature   298.150 Kelvin.  Pressure   1.00000 Atm.
 Atom     1 has atomic number  6 and mass  12.00000

 Molecular mass:   329.10519 amu.
 Principal axes and moments of inertia in atomic units:
                           1         2         3
     Eigenvalues --  4217.87879********************
           X            0.99971  -0.01128  -0.02139
           Y            0.01105   0.99988  -0.01076
           Z            0.02151   0.01052   0.99971
 This molecule is an asymmetric top.
 Rotational symmetry number  1.
 Warning -- assumption of classical behavior for rotation
           may cause significant error
 Rotational temperatures (Kelvin)      0.02053     0.00577     0.00458
 Rotational constants (GHZ):           0.42788     0.12026     0.09543
 Zero-point vibrational energy     789093.6 (Joules/Mol)
                                  188.59789 (Kcal/Mol)
 Warning -- explicit consideration of  32 degrees of freedom as
           vibrations may cause significant error
 Vibrational temperatures:     29.70    50.33    57.18    85.17    90.96
          (Kelvin)            106.28   178.83   188.81   215.04   250.42
                              280.07   329.13   333.55   372.03   400.97
                              443.86   459.11   507.49   530.55   545.53
                              566.39   580.08   613.80   618.36   636.78
                              677.40   704.31   709.46   732.05   741.95
                              817.02   849.17   894.94   911.10   937.88
                              955.05  1001.11  1027.39  1033.69  1040.50
                             1055.26  1081.41  1107.51  1121.17  1154.83
                             1161.90  1173.44  1185.97  1199.68  1220.39
                             1252.88  1311.10  1341.52  1366.76  1377.04
                             1382.39  1390.15  1423.40  1447.60  1464.99
                             1478.73  1521.29  1524.90  1577.11  1620.38
                             1637.82  1681.77  1686.15  1719.28  1734.67
                             1740.98  1762.40  1769.47  1793.61  1802.82
                             1828.36  1865.55  1907.19  1927.96  1952.22
                             1968.69  1984.96  2017.03  2036.04  2077.41
                             2091.56  2112.85  2128.87  2135.62  2144.72
                             2182.26  2202.14  2219.98  2243.31  2254.51
                             2277.71  2306.74  2361.51  2374.60  3735.92
                             4255.47  4330.33  4394.71  4448.45  4462.41
                             4479.08  4489.26  4495.86  4553.43  4555.27
                             4569.70  4589.08  4624.31  5453.04

 Zero-point correction=                           0.300550 (Hartree/Particle)
 Thermal correction to Energy=                    0.321002
 Thermal correction to Enthalpy=                  0.321946
 Thermal correction to Gibbs Free Energy=         0.250208
 Sum of electronic and zero-point Energies=          -1089.689057
 Sum of electronic and thermal Energies=             -1089.668605
 Sum of electronic and thermal Enthalpies=           -1089.667661
 Sum of electronic and thermal Free Energies=        -1089.739399

                     E (Thermal)             CV                S
                      KCal/Mol        Cal/Mol-Kelvin    Cal/Mol-Kelvin
 Total                  201.432             81.446            150.985
 Electronic               0.000              0.000              0.000
 Translational            0.889              2.981             43.269
 Rotational               0.889              2.981             35.436
 Vibrational            199.654             75.484             72.281
 Vibration     1          0.593              1.986              6.571
 Vibration     2          0.594              1.982              5.525
 Vibration     3          0.594              1.981              5.272
 Vibration     4          0.597              1.974              4.484
 Vibration     5          0.597              1.972              4.354
 Vibration     6          0.599              1.966              4.047
 Vibration     7          0.610              1.929              3.032
 Vibration     8          0.612              1.922              2.928
 Vibration     9          0.618              1.903              2.679
 Vibration    10          0.627              1.874              2.391
 Vibration    11          0.635              1.847              2.183
 Vibration    12          0.651              1.797              1.889
 Vibration    13          0.653              1.792              1.865
 Vibration    14          0.667              1.748              1.671
 Vibration    15          0.679              1.713              1.542
 Vibration    16          0.698              1.658              1.370
 Vibration    17          0.705              1.637              1.315
 Vibration    18          0.729              1.570              1.154
 Vibration    19          0.741              1.536              1.085
 Vibration    20          0.749              1.515              1.042
 Vibration    21          0.761              1.484              0.986
 Vibration    22          0.769              1.463              0.951
 Vibration    23          0.788              1.412              0.870
 Vibration    24          0.791              1.405              0.859
 Vibration    25          0.802              1.377              0.819
 Vibration    26          0.828              1.315              0.735
 Vibration    27          0.845              1.273              0.685
 Vibration    28          0.849              1.265              0.676
 Vibration    29          0.864              1.230              0.636
 Vibration    30          0.871              1.215              0.620
 Vibration    31          0.924              1.101              0.508
 Vibration    32          0.948              1.053              0.467

                           ! Non-Optimized Parameters !
 Normal termination of Gaussian 16 at Sat Dec 23 21:38:28 2023.
