 Gaussian 16, Revision A.03,
 Gaussian 16:  ES64L-G16RevA.03 25-Dec-2016

 ----------------------------------------------------------------------
 #P UB3LYP/6-311++G(d,p) nosym opt freq SCRF=(PCM,Solvent=n,n-DiMethylF
 ormamide)
 ----------------------------------------------------------------------

 -------
 Radical
 -------
 Symbolic Z-matrix:
 Charge = -1 Multiplicity = 2

 SCF Done:  E(UB3LYP) =  -610.835933293     A.U. after   19 cycles
 SCF Done:  E(UB3LYP) =  -610.836400193     A.U. after   16 cycles
 SCF Done:  E(UB3LYP) =  -610.836752304     A.U. after   15 cycles
 SCF Done:  E(UB3LYP) =  -610.836811858     A.U. after   14 cycles
 SCF Done:  E(UB3LYP) =  -610.836854434     A.U. after   13 cycles
 SCF Done:  E(UB3LYP) =  -610.836863930     A.U. after   13 cycles
 SCF Done:  E(UB3LYP) =  -610.836867597     A.U. after   12 cycles
 SCF Done:  E(UB3LYP) =  -610.836868144     A.U. after   11 cycles
 SCF Done:  E(UB3LYP) =  -610.836868223     A.U. after    9 cycles
 SCF Done:  E(UB3LYP) =  -610.836868253     A.U. after    8 cycles
 Optimization completed.
    -- Stationary point found.
 Normal termination of Gaussian 16 at Sat Feb 10 11:13:26 2024.

 ----------------------------------------------------------------------
 #P Geom=AllCheck Guess=TCheck SCRF=Check GenChk UB3LYP/6-311++G(d,p) F
 req
 ----------------------------------------------------------------------

 Structure from the checkpoint file:  "085-rad.chk"
 -------
 Radical
 -------
 Charge = -1 Multiplicity = 2

                          Input orientation:
 ---------------------------------------------------------------------
 Center     Atomic      Atomic             Coordinates (Angstroms)
 Number     Number       Type             X           Y           Z
 ---------------------------------------------------------------------
      1          6           0       -3.531686    0.680787   -0.213728
      2          8           0       -2.741926   -0.506828   -0.217967
      3          6           0       -1.409335   -0.396625    0.043586
      4          6           0       -0.763476    0.785217    0.313333
      5          6           0        0.649298    0.857531    0.598416
      6          8           0        1.222275    1.951038    0.894106
      7          6           0        1.368373   -0.407307    0.541739
      8          6           0        0.721389   -1.587680    0.276883
      9          6           0       -0.689239   -1.672792    0.018933
     10          8           0       -1.275827   -2.770950   -0.222676
     11          8           0        2.714313   -0.443459    0.845163
     12          6           0        3.576137    0.226612   -0.088322
     13          1           0       -4.547133    0.365433   -0.447070
     14          1           0       -3.185261    1.389500   -0.972304
     15          1           0       -3.515210    1.163666    0.768245
     16          1           0       -1.298859    1.725787    0.343892
     17          1           0        1.287738   -2.513077    0.259756
     18          1           0        3.521737   -0.258914   -1.068895
     19          1           0        3.308573    1.280213   -0.176676
     20          1           0        4.588121    0.131848    0.305382
 ---------------------------------------------------------------------

 SCF Done:  E(UB3LYP) =  -610.836868253     A.U. after    2 cycles

 Alpha  occ. eigenvalues --  -19.15515 -19.13637 -19.07669 -19.07472 -10.22757
 Alpha  occ. eigenvalues --  -10.22232 -10.22209 -10.21832 -10.21671 -10.20780
 Alpha  occ. eigenvalues --  -10.15820 -10.15725  -1.06931  -1.04915  -0.99349
 Alpha  occ. eigenvalues --   -0.99085  -0.82106  -0.75291  -0.71626  -0.69552
 Alpha  occ. eigenvalues --   -0.65349  -0.59818  -0.56887  -0.51304  -0.50428
 Alpha  occ. eigenvalues --   -0.49348  -0.47074  -0.45694  -0.44360  -0.43874
 Alpha  occ. eigenvalues --   -0.41386  -0.41061  -0.40450  -0.40226  -0.37844
 Alpha  occ. eigenvalues --   -0.37292  -0.35134  -0.33813  -0.33429  -0.29023
 Alpha  occ. eigenvalues --   -0.26737  -0.24338  -0.23900  -0.23074  -0.15831
 Alpha virt. eigenvalues --   -0.00200   0.00162   0.00685   0.01520   0.02421
 Alpha virt. eigenvalues --    0.03018   0.03175   0.03663   0.04187   0.04597
 Alpha virt. eigenvalues --    0.05208   0.06206   0.06921   0.07557   0.08109

  Beta  occ. eigenvalues --  -19.15429 -19.13608 -19.06975 -19.06836 -10.22602
  Beta  occ. eigenvalues --  -10.22053 -10.22049 -10.21836 -10.21463 -10.20768
  Beta  occ. eigenvalues --  -10.15782 -10.15731  -1.06728  -1.04757  -0.98152
  Beta  occ. eigenvalues --   -0.97974  -0.81522  -0.75072  -0.71432  -0.69183
  Beta  occ. eigenvalues --   -0.64668  -0.59467  -0.56572  -0.51144  -0.50222
  Beta  occ. eigenvalues --   -0.49054  -0.46726  -0.45356  -0.44250  -0.43694
  Beta  occ. eigenvalues --   -0.41179  -0.40597  -0.39860  -0.38834  -0.37538
  Beta  occ. eigenvalues --   -0.35342  -0.34384  -0.33631  -0.32190  -0.28612
  Beta  occ. eigenvalues --   -0.24094  -0.23657  -0.23323  -0.22398
  Beta virt. eigenvalues --   -0.08640  -0.00159   0.00676   0.01456   0.01579
  Beta virt. eigenvalues --    0.02643   0.03083   0.03418   0.04154   0.04624
  Beta virt. eigenvalues --    0.05219   0.05827   0.06248   0.06971   0.07634

 Mulliken charges and spin densities:
               1          2
     1  C   -0.297106  -0.000334
     2  O   -0.212081   0.019224
     3  C   -0.222865   0.165985
     4  C    0.644508  -0.021861
     5  C   -0.390890   0.086827
     6  O   -0.515195   0.228227
     7  C   -0.394263   0.160289
     8  C    0.786071   0.021009
     9  C   -0.746505   0.083349
    10  O   -0.519833   0.251737
    11  O   -0.228410   0.001858
    12  C   -0.291364   0.009054
    13  H    0.191356  -0.000191
    14  H    0.160077   0.001591
    15  H    0.160251   0.001623
    16  H    0.210585  -0.002768
    17  H    0.208157  -0.005264
    18  H    0.134246  -0.000334
    19  H    0.169505  -0.001913
    20  H    0.153754   0.001892
 Sum of Mulliken charges =  -1.00000   1.00000

 Dipole moment (field-independent basis, Debye):
    X=             -0.6869    Y=              4.6030    Z=             -3.0179  Tot=              5.5468
 Quadrupole moment (field-independent basis, Debye-Ang):
   XX=            -74.2158   YY=           -105.0376   ZZ=            -77.9486
   XY=            -20.1204   XZ=             -8.5068   YZ=             -6.5451

  Exact polarizability: 209.889  38.314 218.674  19.536  22.217 105.857
 Approx polarizability: 217.262  54.101 248.474  24.754  27.862 118.467

                      1                      2                      3
                      A                      A                      A
 Frequencies --     65.0275                74.9979               126.1175
 Red. masses --      3.9865                 2.6299                 4.6258
 Frc consts  --      0.0099                 0.0087                 0.0433
 IR Inten    --     15.3710                12.4185                 0.3620

                      4                      5                      6
                      A                      A                      A
 Frequencies --    148.0229               172.0951               197.3926
 Red. masses --      1.3693                 2.8692                 2.0418
 Frc consts  --      0.0177                 0.0501                 0.0469
 IR Inten    --      3.9504                11.4747                 2.9588

                      7                      8                      9
                      A                      A                      A
 Frequencies --    221.4091               266.2252               278.2386
 Red. masses --      3.7230                 1.5915                 5.5119
 Frc consts  --      0.1075                 0.0665                 0.2514
 IR Inten    --      5.9693                 2.3494                 9.7794

                     10                     11                     12
                      A                      A                      A
 Frequencies --    339.7920               347.0871               385.2501
 Red. masses --      7.1114                 6.9746                 9.4809
 Frc consts  --      0.4838                 0.4950                 0.8291
 IR Inten    --      0.9825                19.0953                 8.3318

                     13                     14                     15
                      A                      A                      A
 Frequencies --    461.0912               470.7765               485.9949
 Red. masses --      3.4148                 6.6079                 7.4517
 Frc consts  --      0.4277                 0.8629                 1.0370
 IR Inten    --      0.1094                 2.2708                 3.1326

                     16                     17                     18
                      A                      A                      A
 Frequencies --    528.8983               658.9968               697.7202
 Red. masses --      6.4540                 5.3867                 6.8947
 Frc consts  --      1.0637                 1.3783                 1.9776
 IR Inten    --      0.3159                 5.0756                33.2657

                     19                     20                     21
                      A                      A                      A
 Frequencies --    725.0404               732.3868               752.3855
 Red. masses --      4.4170                 2.9618                 8.0807
 Frc consts  --      1.3681                 0.9360                 2.6951
 IR Inten    --      5.4581                 9.1490                 8.4585

                     22                     23                     24
                      A                      A                      A
 Frequencies --    827.1942               867.6852               872.5460
 Red. masses --      1.8170                 1.5661                 2.9747
 Frc consts  --      0.7325                 0.6947                 1.3344
 IR Inten    --     31.8783                61.9950                93.6196

                     25                     26                     27
                      A                      A                      A
 Frequencies --    991.6034              1030.8533              1148.2017
 Red. masses --      6.9535                 5.6418                 2.6074
 Frc consts  --      4.0284                 3.5323                 2.0253
 IR Inten    --     97.1536                93.2294               376.0375

                     28                     29                     30
                      A                      A                      A
 Frequencies --   1162.9271              1166.5085              1179.9287
 Red. masses --      1.3991                 1.2783                 2.1486
 Frc consts  --      1.1148                 1.0248                 1.7624
 IR Inten    --     13.9831                 1.2235               322.3254

                     31                     32                     33
                      A                      A                      A
 Frequencies --   1208.4755              1219.2722              1224.5208
 Red. masses --      2.3231                 2.3697                 2.1968
 Frc consts  --      1.9989                 2.0756                 1.9408
 IR Inten    --     18.6537               173.9893               236.8724

                     34                     35                     36
                      A                      A                      A
 Frequencies --   1229.7547              1314.7243              1427.8315
 Red. masses --      1.7649                 2.4382                 3.2319
 Frc consts  --      1.5725                 2.4831                 3.8820
 IR Inten    --     63.2144               119.7847                12.6123

                     37                     38                     39
                      A                      A                      A
 Frequencies --   1451.6966              1469.0580              1474.0569
 Red. masses --      1.4378                 1.4983                 1.1173
 Frc consts  --      1.7852                 1.9051                 1.4304
 IR Inten    --     50.8121                 1.8600                38.3698

                     40                     41                     42
                      A                      A                      A
 Frequencies --   1481.8256              1493.0014              1496.5650
 Red. masses --      1.0446                 1.3447                 4.8492
 Frc consts  --      1.3515                 1.7660                 6.3989
 IR Inten    --     12.5919               389.2618               182.8915

                     43                     44                     45
                      A                      A                      A
 Frequencies --   1499.4976              1504.7097              1527.9047
 Red. masses --      1.0842                 2.3756                 4.0998
 Frc consts  --      1.4363                 3.1690                 5.6391
 IR Inten    --     13.6743               535.2182               816.9956

                     46                     47                     48
                      A                      A                      A
 Frequencies --   1633.2080              3010.4486              3012.0953
 Red. masses --      7.3473                 1.0385                 1.0333
 Frc consts  --     11.5468                 5.5451                 5.5238
 IR Inten    --      8.9290               117.1416                60.3512

                     49                     50                     51
                      A                      A                      A
 Frequencies --   3073.0570              3092.3884              3127.6748
 Red. masses --      1.1063                 1.0941                 1.1064
 Frc consts  --      6.1555                 6.1642                 6.3768
 IR Inten    --     54.6830                51.9719                31.6263

                     52                     53                     54
                      A                      A                      A
 Frequencies --   3135.1418              3169.4236              3191.5543
 Red. masses --      1.1007                 1.0904                 1.0892
 Frc consts  --      6.3745                 6.4532                 6.5370
 IR Inten    --     31.4377                17.9523                 9.9101

 - Thermochemistry -
 -------------------
 Temperature   298.150 Kelvin.  Pressure   1.00000 Atm.
 Atom     1 has atomic number  6 and mass  12.00000

 Molecular mass:   168.04226 amu.
 Principal axes and moments of inertia in atomic units:
                           1         2         3
     Eigenvalues --  1055.387682821.282233756.21835
           X            0.98235  -0.15590  -0.10335
           Y            0.14247   0.98167  -0.12661
           Z            0.12119   0.10966   0.98655
 This molecule is an asymmetric top.
 Rotational symmetry number  1.
 Warning -- assumption of classical behavior for rotation
           may cause significant error
 Rotational temperatures (Kelvin)      0.08207     0.03070     0.02306
 Rotational constants (GHZ):           1.71003     0.63969     0.48047
 Zero-point vibrational energy     387890.8 (Joules/Mol)
                                   92.70813 (Kcal/Mol)
 Warning -- explicit consideration of  16 degrees of freedom as
           vibrations may cause significant error
 Vibrational temperatures:     93.56   107.91   181.46   212.97   247.61
          (Kelvin)            284.00   318.56   383.04   400.32   488.88
                              499.38   554.29   663.41   677.34   699.24
                              760.97   948.15  1003.86  1043.17  1053.74
                             1082.51  1190.15  1248.41  1255.40  1426.70
                             1483.17  1652.01  1673.19  1678.35  1697.65
                             1738.73  1754.26  1761.81  1769.34  1891.60
                             2054.33  2088.67  2113.65  2120.84  2132.02
                             2148.10  2153.22  2157.44  2164.94  2198.31
                             2349.82  4331.36  4333.73  4421.44  4449.26
                             4500.03  4510.77  4560.09  4591.93

 Zero-point correction=                           0.147740 (Hartree/Particle)
 Thermal correction to Energy=                    0.159112
 Thermal correction to Enthalpy=                  0.160057
 Thermal correction to Gibbs Free Energy=         0.109703
 Sum of electronic and zero-point Energies=           -610.689128
 Sum of electronic and thermal Energies=              -610.677756
 Sum of electronic and thermal Enthalpies=            -610.676812
 Sum of electronic and thermal Free Energies=         -610.727165

                     E (Thermal)             CV                S
                      KCal/Mol        Cal/Mol-Kelvin    Cal/Mol-Kelvin
 Total                   99.844             41.627            105.977
 Electronic               0.000              0.000              1.377
 Translational            0.889              2.981             41.265
 Rotational               0.889              2.981             30.793
 Vibrational             98.067             35.665             32.542
 Vibration     1          0.597              1.971              4.298
 Vibration     2          0.599              1.966              4.018
 Vibration     3          0.611              1.927              3.004
 Vibration     4          0.617              1.905              2.697
 Vibration     5          0.626              1.877              2.412
 Vibration     6          0.637              1.844              2.157
 Vibration     7          0.648              1.808              1.948
 Vibration     8          0.672              1.735              1.621
 Vibration     9          0.679              1.714              1.544
 Vibration    10          0.720              1.596              1.213
 Vibration    11          0.725              1.581              1.179
 Vibration    12          0.754              1.502              1.018
 Vibration    13          0.819              1.336              0.763
 Vibration    14          0.828              1.315              0.735
 Vibration    15          0.842              1.281              0.694
 Vibration    16          0.884              1.186              0.590

                           ! Non-Optimized Parameters !
 Normal termination of Gaussian 16 at Sat Feb 10 11:21:34 2024.
