 Gaussian 16, Revision A.03,
 Gaussian 16:  ES64L-G16RevA.03 25-Dec-2016

 ----------------------------------------------------------------
 #P UB3LYP/6-311++G(d,p) SCRF=(PCM,Solvent=n,n-DiMethylFormamide)
 ----------------------------------------------------------------

 ------------------
 Quinone PCM in DMF
 ------------------
 Symbolic Z-matrix:
 Charge =  0 Multiplicity = 1

                         Standard orientation:
 ---------------------------------------------------------------------
 Center     Atomic      Atomic             Coordinates (Angstroms)
 Number     Number       Type             X           Y           Z
 ---------------------------------------------------------------------
      1          6           0        4.996010    1.504789   -0.014470
      2          6           0        3.700173    0.734123    0.008403
      3          6           0        3.699289   -0.663853    0.009385
      4          6           0        2.529456   -1.426790    0.003769
      5          6           0        2.665020   -2.929656    0.005718
      6          6           0        1.287793   -0.741550   -0.000405
      7          6           0       -0.006127   -1.467958   -0.006204
      8          8           0       -0.066234   -2.690058   -0.013783
      9          6           0       -1.277685   -0.668257   -0.003293
     10          6           0       -2.471496   -1.388315   -0.008443
     11          6           0       -3.700177   -0.734118   -0.008423
     12          6           0       -4.996006   -1.504794    0.014530
     13          6           0       -3.699290    0.663854   -0.009462
     14          6           0       -2.529453    1.426792   -0.003829
     15          6           0       -2.665018    2.929658   -0.005840
     16          6           0       -1.287795    0.741552    0.000408
     17          6           0        0.006125    1.467958    0.006256
     18          8           0        0.066232    2.690058    0.013889
     19          6           0        1.277683    0.668256    0.003325
     20          6           0        2.471496    1.388317    0.008468
     21          1           0        5.759306    1.019475    0.598676
     22          1           0        5.389566    1.568984   -1.034811
     23          1           0        4.858474    2.524335    0.350167
     24          1           0        4.651148   -1.186587    0.016615
     25          1           0        2.175043   -3.377013    0.872507
     26          1           0        2.188631   -3.377578   -0.868330
     27          1           0        3.721673   -3.205601    0.013939
     28          1           0       -2.414335   -2.469858   -0.014421
     29          1           0       -5.389075   -1.569662    1.035020
     30          1           0       -4.858639   -2.524106   -0.350821
     31          1           0       -5.759592   -1.019079   -0.597930
     32          1           0       -4.651147    1.186591   -0.016756
     33          1           0       -3.721671    3.205602   -0.014168
     34          1           0       -2.174963    3.376986   -0.872600
     35          1           0       -2.188707    3.377609    0.868236
     36          1           0        2.414331    2.469859    0.014463
 ---------------------------------------------------------------------

 SCF Done:  E(UB3LYP) =  -846.266424497     A.U. after   14 cycles

 The electronic state is 1-A.
 Alpha  occ. eigenvalues --  -19.12259 -19.12259 -10.27710 -10.27709 -10.20825
 Alpha  occ. eigenvalues --  -10.20825 -10.20370 -10.20370 -10.20348 -10.20348
 Alpha  occ. eigenvalues --  -10.20224 -10.20224 -10.18688 -10.18688 -10.18631
 Alpha  occ. eigenvalues --  -10.18631 -10.17318 -10.17318 -10.16766 -10.16766
 Alpha  occ. eigenvalues --   -1.05985  -1.05803  -0.89096  -0.88218  -0.81872
 Alpha  occ. eigenvalues --   -0.79978  -0.79799  -0.77926  -0.72061  -0.71591
 Alpha  occ. eigenvalues --   -0.70235  -0.69905  -0.66028  -0.64786  -0.61216
 Alpha  occ. eigenvalues --   -0.58605  -0.56508  -0.55675  -0.53164  -0.50494
 Alpha  occ. eigenvalues --   -0.48602  -0.48221  -0.46559  -0.45747  -0.45308
 Alpha  occ. eigenvalues --   -0.43812  -0.43597  -0.43562  -0.42689  -0.42674
 Alpha  occ. eigenvalues --   -0.42511  -0.42492  -0.40958  -0.40406  -0.40303
 Alpha  occ. eigenvalues --   -0.40186  -0.38625  -0.38126  -0.37814  -0.36634
 Alpha  occ. eigenvalues --   -0.36147  -0.36139  -0.35505  -0.35094  -0.27735
 Alpha  occ. eigenvalues --   -0.27716  -0.26740  -0.26522  -0.26294  -0.26014
 Alpha virt. eigenvalues --   -0.11141  -0.06464  -0.03292  -0.02118  -0.00906
 Alpha virt. eigenvalues --   -0.00149   0.00502   0.01133   0.01774   0.02194
 Alpha virt. eigenvalues --    0.02419   0.03138   0.03160   0.03361   0.03568

  Beta  occ. eigenvalues --  -19.12259 -19.12259 -10.27710 -10.27709 -10.20825
  Beta  occ. eigenvalues --  -10.20825 -10.20370 -10.20370 -10.20348 -10.20348
  Beta  occ. eigenvalues --  -10.20224 -10.20224 -10.18688 -10.18688 -10.18631
  Beta  occ. eigenvalues --  -10.18631 -10.17318 -10.17318 -10.16766 -10.16766
  Beta  occ. eigenvalues --   -1.05985  -1.05803  -0.89096  -0.88218  -0.81872
  Beta  occ. eigenvalues --   -0.79978  -0.79799  -0.77926  -0.72061  -0.71591
  Beta  occ. eigenvalues --   -0.70235  -0.69905  -0.66028  -0.64786  -0.61216
  Beta  occ. eigenvalues --   -0.58605  -0.56508  -0.55675  -0.53164  -0.50494
  Beta  occ. eigenvalues --   -0.48602  -0.48221  -0.46559  -0.45747  -0.45308
  Beta  occ. eigenvalues --   -0.43812  -0.43597  -0.43562  -0.42689  -0.42674
  Beta  occ. eigenvalues --   -0.42511  -0.42492  -0.40958  -0.40406  -0.40303
  Beta  occ. eigenvalues --   -0.40186  -0.38625  -0.38126  -0.37814  -0.36634
  Beta  occ. eigenvalues --   -0.36147  -0.36139  -0.35505  -0.35094  -0.27735
  Beta  occ. eigenvalues --   -0.27716  -0.26740  -0.26522  -0.26294  -0.26014
  Beta virt. eigenvalues --   -0.11141  -0.06464  -0.03292  -0.02118  -0.00906
  Beta virt. eigenvalues --   -0.00149   0.00502   0.01133   0.01774   0.02194
  Beta virt. eigenvalues --    0.02419   0.03138   0.03160   0.03361   0.03568

 Mulliken charges and spin densities:
               1          2
     1  C   -0.350296  -0.000000
     2  C    0.633220  -0.000000
     3  C   -0.519545  -0.000000
     4  C    0.303634  -0.000000
     5  C   -0.551961   0.000000
     6  C    0.244401   0.000000
     7  C   -0.885630   0.000000
     8  O   -0.252832  -0.000000
     9  C    0.248253   0.000000
    10  C   -0.194709  -0.000000
    11  C    0.633439  -0.000000
    12  C   -0.350311  -0.000000
    13  C   -0.520379  -0.000000
    14  C    0.303585  -0.000000
    15  C   -0.551953  -0.000000
    16  C    0.244674  -0.000000
    17  C   -0.885621   0.000000
    18  O   -0.252835  -0.000000
    19  C    0.247880  -0.000000
    20  C   -0.195095  -0.000000
    21  H    0.160971  -0.000000
    22  H    0.191089  -0.000000
    23  H    0.166949  -0.000000
    24  H    0.133779  -0.000000
    25  H    0.174025  -0.000000
    26  H    0.174890   0.000000
    27  H    0.165415   0.000000
    28  H    0.158953   0.000000
    29  H    0.191102   0.000000
    30  H    0.166932  -0.000000
    31  H    0.160973  -0.000000
    32  H    0.133739   0.000000
    33  H    0.165421   0.000000
    34  H    0.174023  -0.000000
    35  H    0.174894  -0.000000
    36  H    0.158925   0.000000
 Sum of Mulliken charges =  -0.00000  -0.00000

 Dipole moment (field-independent basis, Debye):
    X=              0.0000    Y=             -0.0001    Z=             -0.0001  Tot=              0.0002
 Quadrupole moment (field-independent basis, Debye-Ang):
   XX=            -80.3387   YY=           -127.9039   ZZ=           -119.6391
   XY=             -0.1734   XZ=             -0.4849   YZ=             -0.2905

 Normal termination of Gaussian 16 at Sun Jan 14 01:05:17 2024.
