 Gaussian 16, Revision A.03,
 Gaussian 16:  ES64L-G16RevA.03 25-Dec-2016

 ----------------------------------------------------------------
 #P UB3LYP/6-311++G(d,p) SCRF=(PCM,Solvent=n,n-DiMethylFormamide)
 ----------------------------------------------------------------

 -------
 Reduced
 -------
 Symbolic Z-matrix:
 Charge = -2 Multiplicity = 1

                         Standard orientation:
 ---------------------------------------------------------------------
 Center     Atomic      Atomic             Coordinates (Angstroms)
 Number     Number       Type             X           Y           Z
 ---------------------------------------------------------------------
      1          6           0      -14.439872    4.123031    0.960963
      2          6           0      -14.421438    5.331671    0.286913
      3          6           0      -13.665988    5.463121   -0.898290
      4          6           0      -13.715699    3.009121    0.489187
      5          6           0      -12.952801    3.142876   -0.707193
      6          6           0      -12.947377    4.382311   -1.378641
      7          6           0      -13.760989    1.744913    1.232026
      8          6           0      -12.983924    0.652942    0.683088
      9          6           0      -12.249506    0.784322   -0.496702
     10          6           0      -12.181766    2.019007   -1.244235
     11          8           0      -14.447704    1.631084    2.292465
     12          8           0      -11.498157    2.127842   -2.308039
     13          1           0      -14.985999    6.178359    0.668622
     14          1           0      -13.648616    6.410661   -1.430325
     15          6           0      -13.016365   -0.646066    1.452188
     16          1           0      -15.010752    3.991785    1.873664
     17          1           0      -12.356256    4.452442   -2.285250
     18          1           0      -13.537813   -1.440145    0.898669
     19          1           0      -13.550889   -0.485889    2.389402
     20          1           0      -12.008737   -1.016424    1.671818
     21          6           0      -11.466043   -0.377959   -1.085039
     22          6           0      -10.021795   -0.385628   -0.650591
     23          6           0       -9.296536   -1.389129   -0.133710
     24          6           0       -7.838574   -1.178542    0.226273
     25          6           0       -6.847453   -1.977762   -0.658971
     26          6           0       -5.407769   -1.731666   -0.301809
     27          6           0       -4.506357   -2.591896    0.194325
     28          6           0       -9.832540   -2.776105    0.138353
     29          6           0       -3.086935   -2.144963    0.483682
     30          6           0       -2.019496   -2.805094   -0.425622
     31          6           0       -0.624233   -2.322671   -0.136362
     32          6           0        0.422865   -3.020512    0.327479
     33          6           0       -4.802174   -4.039893    0.510183
     34          6           0        0.377400   -4.491042    0.671836
     35          6           0        1.763583   -2.348024    0.545210
     36          6           0        2.888399   -2.860235   -0.389414
     37          6           0        4.192588   -2.139528   -0.181388
     38          6           0        5.361875   -2.634880    0.250125
     39          6           0        5.582203   -4.077509    0.641242
     40          6           0        6.575626   -1.736982    0.381156
     41          6           0        7.733878   -2.090843   -0.585035
     42          6           0        8.892352   -1.137002   -0.478868
     43          6           0       10.156171   -1.392245   -0.109238
     44          6           0       10.662741   -2.751646    0.312461
     45          6           0       11.186471   -0.281555   -0.085814
     46          6           0       12.322114   -0.446847   -1.127349
     47          6           0       13.278928    0.714153   -1.123402
     48          6           0       14.593190    0.721833   -0.856438
     49          6           0       15.403902   -0.505750   -0.514866
     50          6           0       15.373059    2.021150   -0.905824
     51          6           0       15.856888    2.532599    0.475119
     52          6           0       16.727481    3.753307    0.358741
     53          6           0       16.490770    4.999437    0.790576
     54          6           0       15.241993    5.439755    1.513376
     55          6           0       17.499255    6.100804    0.567492
     56          1           0      -11.474090   -0.242109   -2.173600
     57          1           0      -11.953393   -1.328812   -0.860002
     58          1           0       -9.527594    0.572750   -0.798349
     59          1           0       -7.668123   -1.468309    1.273175
     60          1           0       -7.597649   -0.113378    0.153399
     61          1           0       -7.011747   -1.673412   -1.700520
     62          1           0       -7.085664   -3.042424   -0.610909
     63          1           0       -5.073648   -0.706053   -0.462482
     64          1           0      -10.915129   -2.830287    0.027440
     65          1           0       -9.584280   -3.093263    1.159719
     66          1           0       -9.395220   -3.522632   -0.537177
     67          1           0       -2.834505   -2.375541    1.527516
     68          1           0       -3.018295   -1.057519    0.378691
     69          1           0       -2.271099   -2.566113   -1.467095
     70          1           0       -2.081378   -3.891560   -0.338925
     71          1           0       -0.464916   -1.261209   -0.328289
     72          1           0       -5.864205   -4.274970    0.447957
     73          1           0       -4.463290   -4.285150    1.523877
     74          1           0       -4.272911   -4.717885   -0.169687
     75          1           0       -0.634555   -4.895842    0.672421
     76          1           0        0.808040   -4.662016    1.665486
     77          1           0        0.971198   -5.086224   -0.031297
     78          1           0        2.086280   -2.504372    1.583167
     79          1           0        1.655768   -1.266931    0.410999
     80          1           0        2.559255   -2.711284   -1.426435
     81          1           0        3.014460   -3.936860   -0.261083
     82          1           0        4.162147   -1.074838   -0.414612
     83          1           0        4.655662   -4.648632    0.707413
     84          1           0        6.081498   -4.135517    1.615936
     85          1           0        6.235972   -4.591279   -0.072939
     86          1           0        6.960190   -1.791600    1.408294
     87          1           0        6.279251   -0.696425    0.213111
     88          1           0        7.339400   -2.060577   -1.609857
     89          1           0        8.058295   -3.118724   -0.413355
     90          1           0        8.653153   -0.106378   -0.742895
     91          1           0        9.865044   -3.482705    0.448759
     92          1           0       11.212110   -2.676445    1.258937
     93          1           0       11.365075   -3.163506   -0.421436
     94          1           0       11.643251   -0.228211    0.911319
     95          1           0       10.689576    0.679555   -0.254485
     96          1           0       11.859583   -0.528496   -2.119989
     97          1           0       12.846724   -1.387848   -0.953634
     98          1           0       12.820849    1.673613   -1.365888
     99          1           0       14.815699   -1.424007   -0.513303
    100          1           0       15.871252   -0.413619    0.472022
    101          1           0       16.223083   -0.633294   -1.234064
    102          1           0       14.761283    2.801301   -1.368893
    103          1           0       16.251657    1.889239   -1.552102
    104          1           0       16.435409    1.740508    0.967117
    105          1           0       14.986015    2.714384    1.108549
    106          1           0       17.672595    3.581846   -0.157203
    107          1           0       14.515755    4.638262    1.651473
    108          1           0       14.748455    6.251464    0.963374
    109          1           0       15.492488    5.844035    2.502438
    110          1           0       18.390496    5.740168    0.046958
    111          1           0       17.817057    6.543186    1.520187
    112          1           0       17.065017    6.917484   -0.024406
 ---------------------------------------------------------------------

 SCF Done:  E(UB3LYP) =  -1942.57154353     A.U. after   19 cycles

 Alpha  occ. eigenvalues --   -0.23128  -0.22900  -0.22417  -0.22310  -0.21660
 Alpha  occ. eigenvalues --   -0.19766  -0.19185  -0.18075  -0.09467
 Alpha virt. eigenvalues --   -0.01033  -0.00778  -0.00481  -0.00150  -0.00010
 Alpha virt. eigenvalues --    0.00242   0.00390   0.00523   0.00612   0.00652
 Alpha virt. eigenvalues --    0.00686   0.00795   0.00848   0.00914   0.01104

  Beta  occ. eigenvalues --  -19.00753 -19.00623 -10.17640 -10.17515 -10.17493
  Beta  occ. eigenvalues --  -10.17464 -10.17409 -10.17235 -10.16749 -10.16747
  Beta  occ. eigenvalues --  -10.16719 -10.16700 -10.16697 -10.16679 -10.16665
  Beta  occ. eigenvalues --  -10.16628 -10.16602 -10.16533 -10.16240 -10.16132
  Beta  occ. eigenvalues --  -10.16128 -10.16110 -10.16075 -10.16067 -10.16066
  Beta  occ. eigenvalues --  -10.16050 -10.16013 -10.16013 -10.15983 -10.15974
  Beta  occ. eigenvalues --  -10.15958 -10.15924 -10.15895 -10.15786 -10.15778
  Beta  occ. eigenvalues --  -10.15770 -10.15289 -10.14632 -10.14290 -10.14243
  Beta  occ. eigenvalues --  -10.13972 -10.13943 -10.13906 -10.12903 -10.12518
  Beta  occ. eigenvalues --  -10.12474 -10.11653 -10.11564  -0.93566  -0.93254
  Beta  occ. eigenvalues --   -0.83126  -0.82831  -0.82407  -0.81996  -0.81868
  Beta  occ. eigenvalues --   -0.81241  -0.80610  -0.80240  -0.77707  -0.77229
  Beta  occ. eigenvalues --   -0.76292  -0.75181  -0.74062  -0.73063  -0.72322
  Beta  occ. eigenvalues --   -0.71883  -0.71575  -0.70515  -0.69116  -0.68743
  Beta  occ. eigenvalues --   -0.68645  -0.68470  -0.68143  -0.67624  -0.66982
  Beta  occ. eigenvalues --   -0.66073  -0.64432  -0.63425  -0.62239  -0.61167
  Beta  occ. eigenvalues --   -0.60596  -0.59642  -0.58762  -0.58180  -0.56480
  Beta  occ. eigenvalues --   -0.54633  -0.52515  -0.52272  -0.51981  -0.51708
  Beta  occ. eigenvalues --   -0.51474  -0.51273  -0.50897  -0.49999  -0.48304
  Beta  occ. eigenvalues --   -0.47743  -0.47353  -0.47204  -0.46889  -0.46881
  Beta  occ. eigenvalues --   -0.46679  -0.45919  -0.45005  -0.44951  -0.44424
  Beta  occ. eigenvalues --   -0.44174  -0.43875  -0.43443  -0.43239  -0.43098
  Beta  occ. eigenvalues --   -0.42820  -0.42410  -0.41896  -0.41652  -0.41276
  Beta  occ. eigenvalues --   -0.41185  -0.41021  -0.40910  -0.40713  -0.40338
  Beta  occ. eigenvalues --   -0.39943  -0.39656  -0.39550  -0.39350  -0.39014
  Beta  occ. eigenvalues --   -0.38836  -0.38370  -0.38199  -0.37889  -0.37396
  Beta  occ. eigenvalues --   -0.37364  -0.37274  -0.37170  -0.37058  -0.36979
  Beta  occ. eigenvalues --   -0.36752  -0.36723  -0.36630  -0.36546  -0.36507
  Beta  occ. eigenvalues --   -0.36418  -0.36339  -0.36189  -0.35928  -0.35842
  Beta  occ. eigenvalues --   -0.35437  -0.34884  -0.34452  -0.34262  -0.34131
  Beta  occ. eigenvalues --   -0.33747  -0.33546  -0.33167  -0.32998  -0.32836
  Beta  occ. eigenvalues --   -0.32801  -0.32725  -0.32480  -0.32139  -0.31643
  Beta  occ. eigenvalues --   -0.31203  -0.30966  -0.30774  -0.30416  -0.29726
  Beta  occ. eigenvalues --   -0.29616  -0.25003  -0.24670  -0.24163  -0.23594
  Beta  occ. eigenvalues --   -0.23128  -0.22900  -0.22417  -0.22310  -0.21660
  Beta  occ. eigenvalues --   -0.19766  -0.19185  -0.18075  -0.09467
  Beta virt. eigenvalues --   -0.01033  -0.00778  -0.00481  -0.00150  -0.00010
  Beta virt. eigenvalues --    0.00242   0.00390   0.00523   0.00612   0.00652
  Beta virt. eigenvalues --    0.00686   0.00795   0.00848   0.00914   0.01104

 Mulliken charges and spin densities:
               1          2
     1  C    0.035003  -0.000000
     2  C   -0.524276   0.000000
     3  C   -0.452183   0.000000
     4  C   -0.077217   0.000000
     5  C    0.213788   0.000000
     6  C   -0.058123  -0.000000
     7  C   -0.697812  -0.000000
     8  C    0.576221   0.000000
     9  C    0.724425   0.000000
    10  C   -0.861076  -0.000000
    11  O   -0.674642   0.000000
    12  O   -0.647699  -0.000000
    13  H    0.145602  -0.000000
    14  H    0.149700   0.000000
    15  C   -0.512195  -0.000000
    16  H    0.143548  -0.000000
    17  H    0.140297  -0.000000
    18  H    0.142929  -0.000000
    19  H    0.162729   0.000000
    20  H    0.143891  -0.000000
    21  C    0.063006  -0.000000
    22  C   -0.749749   0.000000
    23  C    0.994858  -0.000000
    24  C   -1.016638   0.000000
    25  C   -0.300385  -0.000000
    26  C   -0.245471   0.000000
    27  C    0.906440  -0.000000
    28  C   -0.787278  -0.000000
    29  C   -0.851126   0.000000
    30  C   -0.365962   0.000000
    31  C   -0.261669  -0.000000
    32  C    0.934412   0.000000
    33  C   -0.761630  -0.000000
    34  C   -0.757860   0.000000
    35  C   -0.823102   0.000000
    36  C   -0.394562  -0.000000
    37  C   -0.214410   0.000000
    38  C    0.927470  -0.000000
    39  C   -0.761225  -0.000000
    40  C   -0.832870   0.000000
    41  C   -0.389607   0.000000
    42  C   -0.245132   0.000000
    43  C    0.840805  -0.000000
    44  C   -0.765664   0.000000
    45  C   -0.707729   0.000000
    46  C   -0.254029  -0.000000
    47  C   -0.257219  -0.000000
    48  C    0.557161  -0.000000
    49  C   -0.767444  -0.000000
    50  C   -0.544705   0.000000
    51  C   -0.262139  -0.000000
    52  C    0.068411   0.000000
    53  C    0.251948   0.000000
    54  C   -0.685642   0.000000
    55  C   -0.622561  -0.000000
    56  H    0.177678  -0.000000
    57  H    0.165829   0.000000
    58  H    0.224022  -0.000000
    59  H    0.174016  -0.000000
    60  H    0.122861  -0.000000
    61  H    0.174751   0.000000
    62  H    0.139064  -0.000000
    63  H    0.184373   0.000000
    64  H    0.102316   0.000000
    65  H    0.157055  -0.000000
    66  H    0.163854  -0.000000
    67  H    0.178836  -0.000000
    68  H    0.148394  -0.000000
    69  H    0.181667   0.000000
    70  H    0.131401   0.000000
    71  H    0.182795  -0.000000
    72  H    0.121742  -0.000000
    73  H    0.158376  -0.000000
    74  H    0.169676   0.000000
    75  H    0.127761   0.000000
    76  H    0.158597  -0.000000
    77  H    0.170584  -0.000000
    78  H    0.180866  -0.000000
    79  H    0.146617   0.000000
    80  H    0.182355   0.000000
    81  H    0.132675  -0.000000
    82  H    0.183859   0.000000
    83  H    0.127717   0.000000
    84  H    0.158971   0.000000
    85  H    0.170745  -0.000000
    86  H    0.181393   0.000000
    87  H    0.145076  -0.000000
    88  H    0.183356  -0.000000
    89  H    0.133553   0.000000
    90  H    0.185099   0.000000
    91  H    0.128224  -0.000000
    92  H    0.158586  -0.000000
    93  H    0.170927   0.000000
    94  H    0.176095  -0.000000
    95  H    0.139892  -0.000000
    96  H    0.170988   0.000000
    97  H    0.136632  -0.000000
    98  H    0.180052  -0.000000
    99  H    0.122130   0.000000
   100  H    0.170842   0.000000
   101  H    0.163454   0.000000
   102  H    0.176215   0.000000
   103  H    0.133828   0.000000
   104  H    0.125071  -0.000000
   105  H    0.153104   0.000000
   106  H    0.192214   0.000000
   107  H    0.136055  -0.000000
   108  H    0.148455  -0.000000
   109  H    0.146288   0.000000
   110  H    0.152622   0.000000
   111  H    0.146829  -0.000000
   112  H    0.151958  -0.000000
 Sum of Mulliken charges =  -2.00000  -0.00000

 Dipole moment (field-independent basis, Debye):
    X=            125.3237    Y=            -21.7051    Z=              0.7322  Tot=            127.1915
 Quadrupole moment (field-independent basis, Debye-Ang):
   XX=          -1939.8155   YY=           -351.6291   ZZ=           -356.7546
   XY=            265.4545   XZ=             29.5979   YZ=              2.6180

 Normal termination of Gaussian 16 at Sun Jan 21 09:42:10 2024.
