 Q-Chem 5.4, Q-Chem, Inc., Pleasanton, CA (2021)
 Q-Chem 5.4.0 for Intel X86 EM64T Linux

User input:
--------------------------------------------------------------
$molecule
0 1
C                 -2.0333110000      3.0491370000     -0.2439630000
C                 -2.9892750000      2.5002750000      0.6051810000
C                 -2.7043260000      1.3316720000      1.3138440000
C                 -0.7907470000      2.4260230000     -0.3823440000
C                 -0.5011370000      1.2501910000      0.3291180000
C                 -1.4655500000      0.7079160000      1.1766800000
C                  0.2325530000      2.9944550000     -1.2783880000
C                  1.5441920000      2.2931610000     -1.3856000000
C                  1.8439880000      1.1527270000     -0.7163060000
C                  0.8314550000      0.5693250000      0.1887000000
O                  0.0732750000      4.0115870000     -1.9440760000
O                  1.0648820000     -0.4548440000      0.8154700000
H                 -2.2310880000      3.9545390000     -0.8045970000
H                 -3.9544790000      2.9807350000      0.7157940000
H                 -3.4504120000      0.9056570000      1.9750490000
H                 -1.2283260000     -0.1990640000      1.7187150000
O                  2.4137580000      2.8893500000     -2.2175300000
H                  1.9519360000      3.6708660000     -2.5764830000
C                  3.1801760000      0.4746330000     -0.8344390000
C                  4.1698290000      0.9351370000      0.2589060000
C                  5.5204700000      0.1952910000      0.2438220000
C                  6.3472930000      0.5769200000      1.4799640000
C                  6.3207070000      0.4532770000     -1.0409440000
H                  3.5923670000      0.6797610000     -1.8238990000
H                  3.0296540000     -0.6040860000     -0.7415320000
H                  3.6987100000      0.7845150000      1.2355350000
H                  4.3473100000      2.0127340000      0.1544870000
H                  5.3081840000     -0.8809330000      0.3022210000
H                  7.2942080000      0.0296060000      1.5065160000
H                  5.8065050000      0.3566920000      2.4049880000
H                  6.5830220000      1.6469700000      1.4771800000
H                  7.2790940000     -0.0736140000     -1.0143980000
H                  6.5321860000      1.5219570000     -1.1588300000
H                  5.7887760000      0.1183700000     -1.9348310000
$end

$rem
BASIS  =  6-311++G(d,p)
GUI  =  2
JOB_TYPE  =  SP
METHOD  =  B3LYP
SCF_CONVERGENCE  = 8
SOLVENT_METHOD = sm12
$end

$smx
solvent dimethylformamide
charges CM5
$end

--------------------------------------------------------------

             Standard Nuclear Orientation (Angstroms)
    I     Atom           X                Y                Z
 ----------------------------------------------------------------
    1      C      -2.0333110000     3.0491370000    -0.2439630000
    2      C      -2.9892750000     2.5002750000     0.6051810000
    3      C      -2.7043260000     1.3316720000     1.3138440000
    4      C      -0.7907470000     2.4260230000    -0.3823440000
    5      C      -0.5011370000     1.2501910000     0.3291180000
    6      C      -1.4655500000     0.7079160000     1.1766800000
    7      C       0.2325530000     2.9944550000    -1.2783880000
    8      C       1.5441920000     2.2931610000    -1.3856000000
    9      C       1.8439880000     1.1527270000    -0.7163060000
   10      C       0.8314550000     0.5693250000     0.1887000000
   11      O       0.0732750000     4.0115870000    -1.9440760000
   12      O       1.0648820000    -0.4548440000     0.8154700000
   13      H      -2.2310880000     3.9545390000    -0.8045970000
   14      H      -3.9544790000     2.9807350000     0.7157940000
   15      H      -3.4504120000     0.9056570000     1.9750490000
   16      H      -1.2283260000    -0.1990640000     1.7187150000
   17      O       2.4137580000     2.8893500000    -2.2175300000
   18      H       1.9519360000     3.6708660000    -2.5764830000
   19      C       3.1801760000     0.4746330000    -0.8344390000
   20      C       4.1698290000     0.9351370000     0.2589060000
   21      C       5.5204700000     0.1952910000     0.2438220000
   22      C       6.3472930000     0.5769200000     1.4799640000
   23      C       6.3207070000     0.4532770000    -1.0409440000
   24      H       3.5923670000     0.6797610000    -1.8238990000
   25      H       3.0296540000    -0.6040860000    -0.7415320000
   26      H       3.6987100000     0.7845150000     1.2355350000
   27      H       4.3473100000     2.0127340000     0.1544870000
   28      H       5.3081840000    -0.8809330000     0.3022210000
   29      H       7.2942080000     0.0296060000     1.5065160000
   30      H       5.8065050000     0.3566920000     2.4049880000
   31      H       6.5830220000     1.6469700000     1.4771800000
   32      H       7.2790940000    -0.0736140000    -1.0143980000
   33      H       6.5321860000     1.5219570000    -1.1588300000
   34      H       5.7887760000     0.1183700000    -1.9348310000
 ----------------------------------------------------------------

   16    -807.1454811879      2.57e-09  Convergence criterion met
 Total energy in the final basis set =     -807.1650519796

                    Orbital Energies (a.u.)
 --------------------------------------------------------------

 Alpha MOs
 -- Occupied --
-19.1793 -19.1489 -19.1265 -10.2927 -10.2787 -10.2678 -10.2111 -10.2097
-10.2049 -10.2010 -10.1991 -10.1973 -10.1972 -10.1778 -10.1757 -10.1699
-10.1570 -10.1570  -1.1093  -1.0671  -1.0598  -0.8925  -0.8458  -0.8142
 -0.7852  -0.7794  -0.7389  -0.6949  -0.6849  -0.6618  -0.6481  -0.6134
 -0.6043  -0.5742  -0.5630  -0.5424  -0.5186  -0.4967  -0.4807  -0.4736
 -0.4682  -0.4644  -0.4525  -0.4505  -0.4426  -0.4322  -0.4238  -0.4192
 -0.4090  -0.4058  -0.3959  -0.3860  -0.3788  -0.3760  -0.3696  -0.3670
 -0.3543  -0.3333  -0.3278  -0.3253  -0.3024  -0.2894  -0.2795  -0.2770
 -0.2577

          Ground-State Mulliken Net Atomic Charges

     Atom                 Charge (a.u.)
  ----------------------------------------
      1 C                     0.473143
      2 C                     0.420494
      3 C                     0.428477
      4 C                     0.309203
      5 C                    -0.531603
      6 C                     0.015582
      7 C                    -1.014162
      8 C                    -0.623021
      9 C                     1.553131
     10 C                    -1.658971
     11 O                    -0.288895
     12 O                    -0.279239
     13 H                     0.218708
     14 H                     0.330909
     15 H                     0.316973
     16 H                     0.185661
     17 O                    -0.188432
     18 H                     0.292957
     19 C                    -0.089171
     20 C                    -0.687389
     21 C                     0.346293
     22 C                    -0.564492
     23 C                    -0.546907
     24 H                     0.202361
     25 H                     0.175829
     26 H                     0.101512
     27 H                     0.120509
     28 H                     0.110327
     29 H                     0.159951
     30 H                     0.141985
     31 H                     0.136863
     32 H                     0.158616
     33 H                     0.129257
     34 H                     0.143543
  ----------------------------------------
  Sum of atomic charges =     0.000000

                    Cartesian Multipole Moments
 -----------------------------------------------------------------
    Charge (ESU x 10^10)
                -0.0000
    Dipole Moment (Debye)
         X      -2.7656      Y       0.9575      Z       0.7097
       Tot       3.0114
    Quadrupole Moments (Debye-Ang)
        XX     -96.6466     XY      -4.7150     YY    -110.8277
        XZ      -5.2254     YZ       4.1113     ZZ    -109.2925

 Total job time:  953.72s(wall), 7496.80s(cpu)
        *  Thank you very much for using Q-Chem.  Have a nice day.  *
