 Gaussian 16, Revision A.03,
 Gaussian 16:  ES64L-G16RevA.03 25-Dec-2016

 ----------------------------------------------------------------
 #P UB3LYP/6-311++G(d,p) SCRF=(PCM,Solvent=n,n-DiMethylFormamide)
 ----------------------------------------------------------------

 -------
 Reduced
 -------
 Symbolic Z-matrix:
 Charge = -2 Multiplicity = 1

                         Standard orientation:
 ---------------------------------------------------------------------
 Center     Atomic      Atomic             Coordinates (Angstroms)
 Number     Number       Type             X           Y           Z
 ---------------------------------------------------------------------
      1          6           0       -3.645040    0.695000    0.000022
      2          6           0       -3.645000   -0.694731   -0.000026
      3          6           0       -2.413297   -1.390599   -0.000051
      4          6           0       -1.166070   -0.729008    0.000002
      5          7           0       -0.000219   -1.438684    0.000038
      6          6           0        1.166522   -0.728614    0.000009
      7          6           0        2.412818   -1.390555   -0.000031
      8          6           0        3.645161   -0.695050    0.000004
      9          6           0        3.644884    0.694760    0.000001
     10          6           0        2.413297    1.390545    0.000025
     11          6           0        1.166061    0.728932   -0.000002
     12          7           0        0.000211    1.438690   -0.000039
     13          6           0       -1.166509    0.728617   -0.000008
     14          6           0       -2.412860    1.390635    0.000056
     15          1           0       -4.582554    1.250686   -0.000015
     16          1           0       -4.582266   -1.250741    0.000020
     17          1           0       -2.392871   -2.479342    0.000048
     18          1           0        2.392998   -2.479241    0.000065
     19          1           0        4.582712   -1.250492    0.000026
     20          1           0        4.582138    1.250898   -0.000029
     21          1           0        2.392938    2.479305   -0.000085
     22          1           0       -2.392840    2.479292   -0.000031
 ---------------------------------------------------------------------

 SCF Done:  E(UB3LYP) =  -571.947905803     A.U. after   14 cycles

 The electronic state is 1-A.
 Alpha  occ. eigenvalues --  -14.22796 -14.22793 -10.16000 -10.15999 -10.15964
 Alpha  occ. eigenvalues --  -10.15964 -10.13111 -10.13110 -10.13054 -10.13054
 Alpha  occ. eigenvalues --  -10.12004 -10.12003 -10.11998 -10.11997  -0.89838
 Alpha  occ. eigenvalues --   -0.82820  -0.80498  -0.77621  -0.70464  -0.70299
 Alpha  occ. eigenvalues --   -0.67487  -0.63250  -0.58038  -0.55301  -0.54655
 Alpha  occ. eigenvalues --   -0.51258  -0.49147  -0.44326  -0.43693  -0.42637
 Alpha  occ. eigenvalues --   -0.41156  -0.38688  -0.37726  -0.37707  -0.37387
 Alpha  occ. eigenvalues --   -0.34131  -0.33005  -0.32544  -0.31089  -0.30580
 Alpha  occ. eigenvalues --   -0.28557  -0.27731  -0.24263  -0.21678  -0.21318
 Alpha  occ. eigenvalues --   -0.18966  -0.16991  -0.08807
 Alpha virt. eigenvalues --    0.00325   0.00766   0.01518   0.01597   0.02340
 Alpha virt. eigenvalues --    0.02655   0.02738   0.03807   0.04666   0.04782
 Alpha virt. eigenvalues --    0.04825   0.06198   0.06885   0.07073   0.07157

  Beta  occ. eigenvalues --  -14.22796 -14.22793 -10.16000 -10.15999 -10.15964
  Beta  occ. eigenvalues --  -10.15964 -10.13111 -10.13110 -10.13054 -10.13054
  Beta  occ. eigenvalues --  -10.12004 -10.12003 -10.11998 -10.11997  -0.89838
  Beta  occ. eigenvalues --   -0.82820  -0.80498  -0.77621  -0.70464  -0.70299
  Beta  occ. eigenvalues --   -0.67487  -0.63250  -0.58038  -0.55301  -0.54655
  Beta  occ. eigenvalues --   -0.51258  -0.49147  -0.44326  -0.43693  -0.42637
  Beta  occ. eigenvalues --   -0.41156  -0.38688  -0.37726  -0.37707  -0.37387
  Beta  occ. eigenvalues --   -0.34131  -0.33005  -0.32544  -0.31089  -0.30580
  Beta  occ. eigenvalues --   -0.28557  -0.27731  -0.24263  -0.21678  -0.21318
  Beta  occ. eigenvalues --   -0.18966  -0.16991  -0.08807
  Beta virt. eigenvalues --    0.00325   0.00766   0.01518   0.01597   0.02340
  Beta virt. eigenvalues --    0.02655   0.02738   0.03807   0.04666   0.04782
  Beta virt. eigenvalues --    0.04825   0.06198   0.06885   0.07073   0.07157

 Mulliken charges and spin densities:
               1          2
     1  C   -0.361303   0.000000
     2  C   -0.360207   0.000000
     3  C   -0.312036   0.000000
     4  C    0.093053  -0.000000
     5  N   -0.347481   0.000000
     6  C    0.094982  -0.000000
     7  C   -0.312501   0.000000
     8  C   -0.361447   0.000000
     9  C   -0.360039  -0.000000
    10  C   -0.311883   0.000000
    11  C    0.093141  -0.000000
    12  N   -0.347422   0.000000
    13  C    0.094950  -0.000000
    14  C   -0.312275   0.000000
    15  H    0.134414   0.000000
    16  H    0.134446  -0.000000
    17  H    0.118152   0.000000
    18  H    0.118209   0.000000
    19  H    0.134425  -0.000000
    20  H    0.134445   0.000000
    21  H    0.118166   0.000000
    22  H    0.118210   0.000000
 Sum of Mulliken charges =  -2.00000   0.00000

 Dipole moment (field-independent basis, Debye):
    X=              0.0018    Y=              0.0009    Z=              0.0000  Tot=              0.0020
 Quadrupole moment (field-independent basis, Debye-Ang):
   XX=           -133.0552   YY=           -111.3461   ZZ=            -97.9053
   XY=             -0.0021   XZ=             -0.0001   YZ=             -0.0011

 Normal termination of Gaussian 16 at Sat Jan 13 19:20:02 2024.
