 Gaussian 16, Revision A.03,
 Gaussian 16:  ES64L-G16RevA.03 25-Dec-2016

 --------------------------------------
 #P UB3LYP/6-311++G(d,p) nosym opt freq
 --------------------------------------

 -------
 Reduced
 -------
 Symbolic Z-matrix:
 Charge = -2 Multiplicity = 1

 SCF Done:  E(UB3LYP) =  -1300.77019298     A.U. after   29 cycles
 SCF Done:  E(UB3LYP) =  -1300.79927976     A.U. after   23 cycles
 SCF Done:  E(UB3LYP) =  -1300.80251117     A.U. after   21 cycles
 SCF Done:  E(UB3LYP) =  -1300.80272709     A.U. after   15 cycles
 SCF Done:  E(UB3LYP) =  -1300.80276116     A.U. after   19 cycles
 SCF Done:  E(UB3LYP) =  -1300.80276543     A.U. after   17 cycles
 Optimization completed.
    -- Stationary point found.
 Normal termination of Gaussian 16 at Sun Dec 17 21:00:37 2023.

 ----------------------------------------------------------------------
 #P Geom=AllCheck Guess=TCheck SCRF=Check GenChk UB3LYP/6-311++G(d,p) F
 req
 ----------------------------------------------------------------------

 Structure from the checkpoint file:  "009-an.chk"
 -------
 Reduced
 -------
 Charge = -2 Multiplicity = 1

                          Input orientation:
 ---------------------------------------------------------------------
 Center     Atomic      Atomic             Coordinates (Angstroms)
 Number     Number       Type             X           Y           Z
 ---------------------------------------------------------------------
      1         17           0        2.313512   -2.048356    0.054618
      2          6           0        0.941524   -0.888663    0.023338
      3          6           0        1.193124    0.501937    0.000396
      4         17           0        2.885449    1.107928    0.002618
      5          6           0        0.171692    1.507540   -0.025474
      6          8           0        0.377853    2.782635   -0.046968
      7          6           0       -1.132956    0.912136   -0.025159
      8          6           0       -1.381004   -0.456980   -0.002572
      9          6           0       -0.368110   -1.471952    0.023693
     10          8           0       -0.622391   -2.738318    0.044122
     11          1           0       -1.969281    1.611463   -0.044358
     12          1           0       -2.409413   -0.819369   -0.004254
 ---------------------------------------------------------------------

 SCF Done:  E(UB3LYP) =  -1300.80276543     A.U. after    3 cycles

 Alpha  occ. eigenvalues -- -101.26871-101.26863 -18.74450 -18.74449  -9.92664
 Alpha  occ. eigenvalues --   -9.92619  -9.91419  -9.91418  -9.86951  -9.86896
 Alpha  occ. eigenvalues --   -9.18291  -9.18281  -6.94687  -6.94677  -6.93846
 Alpha  occ. eigenvalues --   -6.93836  -6.93760  -6.93751  -0.66322  -0.65789
 Alpha  occ. eigenvalues --   -0.58683  -0.55108  -0.50866  -0.42031  -0.38664
 Alpha  occ. eigenvalues --   -0.29364  -0.27195  -0.18606  -0.16851  -0.15670
 Alpha  occ. eigenvalues --   -0.12547  -0.11599  -0.08824  -0.07419  -0.07330
 Alpha  occ. eigenvalues --   -0.06620  -0.05296  -0.03888  -0.02917  -0.01809
 Alpha  occ. eigenvalues --    0.04385   0.05172   0.07409   0.07545   0.14681
 Alpha virt. eigenvalues --    0.19961   0.21638   0.22186   0.24109   0.27446
 Alpha virt. eigenvalues --    0.27639   0.28540   0.28777   0.28908   0.30478
 Alpha virt. eigenvalues --    0.30565   0.30595   0.30803   0.32687   0.33183

  Beta  occ. eigenvalues -- -101.26871-101.26863 -18.74450 -18.74449  -9.92664
  Beta  occ. eigenvalues --   -9.92619  -9.91419  -9.91418  -9.86951  -9.86896
  Beta  occ. eigenvalues --   -9.18291  -9.18281  -6.94687  -6.94677  -6.93846
  Beta  occ. eigenvalues --   -6.93836  -6.93760  -6.93751  -0.66322  -0.65789
  Beta  occ. eigenvalues --   -0.58683  -0.55108  -0.50866  -0.42031  -0.38664
  Beta  occ. eigenvalues --   -0.29364  -0.27195  -0.18606  -0.16851  -0.15670
  Beta  occ. eigenvalues --   -0.12547  -0.11599  -0.08824  -0.07419  -0.07330
  Beta  occ. eigenvalues --   -0.06620  -0.05296  -0.03888  -0.02917  -0.01809
  Beta  occ. eigenvalues --    0.04385   0.05172   0.07409   0.07545   0.14681
  Beta virt. eigenvalues --    0.19961   0.21638   0.22186   0.24109   0.27446
  Beta virt. eigenvalues --    0.27639   0.28540   0.28777   0.28908   0.30478
  Beta virt. eigenvalues --    0.30565   0.30595   0.30803   0.32687   0.33183

 Mulliken charges and spin densities:
               1          2
     1  Cl   0.138693  -0.000000
     2  C    0.814989   0.000000
     3  C    0.815794   0.000000
     4  Cl   0.138204  -0.000000
     5  C   -1.590418  -0.000000
     6  O   -0.533017   0.000000
     7  C    0.111838   0.000000
     8  C    0.111929   0.000000
     9  C   -1.588993  -0.000000
    10  O   -0.533073   0.000000
    11  H    0.057022  -0.000000
    12  H    0.057031  -0.000000
 Sum of Mulliken charges =  -2.00000  -0.00000

 Dipole moment (field-independent basis, Debye):
    X=             -4.6413    Y=              0.8365    Z=             -0.0511  Tot=              4.7164
 Quadrupole moment (field-independent basis, Debye-Ang):
   XX=           -102.2890   YY=           -140.7927   ZZ=            -80.3391
   XY=             -7.2276   XZ=             -0.0411   YZ=              1.0265

  Exact polarizability: 167.931  -0.100 167.254   0.706  -1.610  77.340
 Approx polarizability: 252.410   1.787 261.760   1.066  -2.681 111.293

                      1                      2                      3
                      A                      A                      A
 Frequencies --     77.1155               129.3130               205.9450
 Red. masses --     21.3726                 7.9298                31.7152
 Frc consts  --      0.0749                 0.0781                 0.7925
 IR Inten    --      0.0000                12.3442                 1.9868

                      4                      5                      6
                      A                      A                      A
 Frequencies --    222.3351               243.0870               310.7781
 Red. masses --      7.1916                18.9962                10.3739
 Frc consts  --      0.2095                 0.6614                 0.5903
 IR Inten    --      0.1078                 3.6074                 0.0000

                      7                      8                      9
                      A                      A                      A
 Frequencies --    313.2366               341.3731               460.9515
 Red. masses --     19.4994                20.9020                 4.9398
 Frc consts  --      1.1272                 1.4351                 0.6184
 IR Inten    --      0.2526                 0.1742                 0.0000

                     10                     11                     12
                      A                      A                      A
 Frequencies --    465.1522               507.8523               582.0756
 Red. masses --     11.4144                11.9828                 5.0030
 Frc consts  --      1.4551                 1.8209                 0.9987
 IR Inten    --      0.3719                15.8484                 0.4964

                     13                     14                     15
                      A                      A                      A
 Frequencies --    605.9574               708.5008               734.3729
 Red. masses --      2.1361                 8.9760                 4.9706
 Frc consts  --      0.4621                 2.6547                 1.5794
 IR Inten    --     11.3724                 0.7878                 0.0001

                     16                     17                     18
                      A                      A                      A
 Frequencies --    787.7165               827.5930               863.1528
 Red. masses --      2.3197                10.7463                 1.3752
 Frc consts  --      0.8480                 4.3366                 0.6037
 IR Inten    --     29.4884               221.2036                 0.0000

                     19                     20                     21
                      A                      A                      A
 Frequencies --    902.7112              1044.7399              1081.0998
 Red. masses --      8.6240                 3.7543                 2.1565
 Frc consts  --      4.1405                 2.4143                 1.4850
 IR Inten    --     80.5982                34.1676                52.1425

                     22                     23                     24
                      A                      A                      A
 Frequencies --   1160.5488              1292.6733              1346.6879
 Red. masses --      2.1676                 2.0775                 7.6525
 Frc consts  --      1.7201                 2.0453                 8.1769
 IR Inten    --    135.4240               113.5220                 9.5567

                     25                     26                     27
                      A                      A                      A
 Frequencies --   1380.6213              1402.7568              1473.7663
 Red. masses --      7.6402                 9.5173                 4.1665
 Frc consts  --      8.5803                11.0339                 5.3319
 IR Inten    --      4.2472               461.4546               795.7324

                     28                     29                     30
                      A                      A                      A
 Frequencies --   1603.2251              3075.8125              3104.4067
 Red. masses --      7.9264                 1.0831                 1.0918
 Frc consts  --     12.0037                 6.0371                 6.1997
 IR Inten    --     53.1465                57.5015               134.1259

 - Thermochemistry -
 -------------------
 Temperature   298.150 Kelvin.  Pressure   1.00000 Atm.
 Atom     1 has atomic number 17 and mass  34.96885

 Molecular mass:   175.94318 amu.
 Principal axes and moments of inertia in atomic units:
                           1         2         3
     Eigenvalues --  1440.419331833.720783274.14011
           X            0.17851   0.98391  -0.00777
           Y            0.98381  -0.17835   0.01790
           Z           -0.01622   0.01084   0.99981
 This molecule is an asymmetric top.
 Rotational symmetry number  1.
 Warning -- assumption of classical behavior for rotation
           may cause significant error
 Rotational temperatures (Kelvin)      0.06013     0.04723     0.02645
 Rotational constants (GHZ):           1.25293     0.98420     0.55121
 Zero-point vibrational energy     163024.4 (Joules/Mol)
                                   38.96378 (Kcal/Mol)
 Warning -- explicit consideration of  13 degrees of freedom as
           vibrations may cause significant error
 Vibrational temperatures:    110.95   186.05   296.31   319.89   349.75
          (Kelvin)            447.14   450.68   491.16   663.21   669.25
                              730.69   837.48   871.84  1019.37  1056.60
                             1133.35  1190.72  1241.88  1298.80  1503.15
                             1555.46  1669.77  1859.87  1937.58  1986.41
                             2018.25  2120.42  2306.68  4425.41  4466.55

 Zero-point correction=                           0.062093 (Hartree/Particle)
 Thermal correction to Energy=                    0.070791
 Thermal correction to Enthalpy=                  0.071735
 Thermal correction to Gibbs Free Energy=         0.027447
 Sum of electronic and zero-point Energies=          -1300.740673
 Sum of electronic and thermal Energies=             -1300.731974
 Sum of electronic and thermal Enthalpies=           -1300.731030
 Sum of electronic and thermal Free Energies=        -1300.775318

                     E (Thermal)             CV                S
                      KCal/Mol        Cal/Mol-Kelvin    Cal/Mol-Kelvin
 Total                   44.422             31.537             93.211
 Electronic               0.000              0.000              0.000
 Translational            0.889              2.981             41.402
 Rotational               0.889              2.981             30.537
 Vibrational             42.645             25.575             21.272
 Vibration     1          0.599              1.964              3.963
 Vibration     2          0.612              1.924              2.956
 Vibration     3          0.640              1.831              2.079
 Vibration     4          0.648              1.807              1.940
 Vibration     5          0.659              1.774              1.780
 Vibration     6          0.700              1.653              1.358
 Vibration     7          0.701              1.648              1.345
 Vibration     8          0.721              1.593              1.206
 Vibration     9          0.819              1.337              0.763
 Vibration    10          0.823              1.327              0.751
 Vibration    11          0.863              1.233              0.639
 Vibration    12          0.939              1.070              0.482
 Vibration    13          0.965              1.019              0.440

                           ! Non-Optimized Parameters !
 Normal termination of Gaussian 16 at Sun Dec 17 21:07:22 2023.
