 Q-Chem 5.4, Q-Chem, Inc., Pleasanton, CA (2021)
 Q-Chem 5.4.0 for Intel X86 EM64T Linux

User input:
--------------------------------------------------------------
$molecule
0 1
C                  0.8264430000      1.0826010000     -1.5373460000
C                 -0.4140170000      0.3154500000     -1.7961890000
C                 -0.6689000000     -0.8283590000     -1.1547370000
C                  0.2738540000     -1.3769750000     -0.1562960000
C                  1.4917080000     -0.5604630000      0.2144930000
C                  1.7099270000      0.6019680000     -0.4294540000
O                  1.1176510000      2.0418070000     -2.2256150000
O                  0.0755840000     -2.4630000000      0.3538980000
S                  3.0998780000      1.7041280000      0.0328360000
C                  4.2274830000      1.6434200000     -1.3625790000
C                  5.0890830000      0.5524650000     -1.4779790000
C                  4.2337470000      2.6967960000     -2.2734370000
C                  5.1367200000      2.6529150000     -3.3324480000
C                  5.9785020000      0.5204550000     -2.5487280000
C                  6.0029530000      1.5681320000     -3.4698850000
O                  3.7480150000      1.0392630000      1.1699510000
O                  2.5655080000      3.0561170000      0.1796350000
H                 -1.0678220000      0.7258420000     -2.5575280000
H                 -1.5506190000     -1.4297360000     -1.3454100000
H                  5.0647220000     -0.2464190000     -0.7467610000
H                  3.5448020000      3.5212700000     -2.1478440000
H                  5.1621930000      3.4651270000     -4.0492970000
H                  6.6562940000     -0.3179560000     -2.6573830000
H                  6.7015550000      1.5391790000     -4.2984770000
C                  2.4471650000     -1.2800580000      1.1909940000
O                  3.2959790000     -1.9552880000      0.6582340000
C                  2.2197400000     -1.2539270000      2.7120960000
C                  1.2675310000     -0.1242900000      3.1363520000
C                  1.6238520000     -2.6281870000      3.1153290000
C                  3.5882540000     -1.0957970000      3.4090270000
H                  0.2782900000     -0.2243010000      2.6786590000
H                  1.6734580000      0.8575910000      2.8864270000
H                  1.1228670000     -0.1598880000      4.2193330000
H                  0.6395990000     -2.7960250000      2.6790330000
H                  1.5337920000     -2.6617600000      4.2046120000
H                  2.2808010000     -3.4403760000      2.7978640000
H                  4.0306950000     -0.1239000000      3.1956280000
H                  4.2796130000     -1.8734660000      3.0801950000
H                  3.4503140000     -1.1923460000      4.4895860000
$end

$rem
BASIS  =  6-311++G(d,p)
GUI  =  2
JOB_TYPE  =  SP
METHOD  =  B3LYP
SCF_CONVERGENCE  = 8
SOLVENT_METHOD = sm12
$end

$smx
solvent dimethylformamide
charges CM5
$end

--------------------------------------------------------------

             Standard Nuclear Orientation (Angstroms)
    I     Atom           X                Y                Z
 ----------------------------------------------------------------
    1      C       0.8264430000     1.0826010000    -1.5373460000
    2      C      -0.4140170000     0.3154500000    -1.7961890000
    3      C      -0.6689000000    -0.8283590000    -1.1547370000
    4      C       0.2738540000    -1.3769750000    -0.1562960000
    5      C       1.4917080000    -0.5604630000     0.2144930000
    6      C       1.7099270000     0.6019680000    -0.4294540000
    7      O       1.1176510000     2.0418070000    -2.2256150000
    8      O       0.0755840000    -2.4630000000     0.3538980000
    9      S       3.0998780000     1.7041280000     0.0328360000
   10      C       4.2274830000     1.6434200000    -1.3625790000
   11      C       5.0890830000     0.5524650000    -1.4779790000
   12      C       4.2337470000     2.6967960000    -2.2734370000
   13      C       5.1367200000     2.6529150000    -3.3324480000
   14      C       5.9785020000     0.5204550000    -2.5487280000
   15      C       6.0029530000     1.5681320000    -3.4698850000
   16      O       3.7480150000     1.0392630000     1.1699510000
   17      O       2.5655080000     3.0561170000     0.1796350000
   18      H      -1.0678220000     0.7258420000    -2.5575280000
   19      H      -1.5506190000    -1.4297360000    -1.3454100000
   20      H       5.0647220000    -0.2464190000    -0.7467610000
   21      H       3.5448020000     3.5212700000    -2.1478440000
   22      H       5.1621930000     3.4651270000    -4.0492970000
   23      H       6.6562940000    -0.3179560000    -2.6573830000
   24      H       6.7015550000     1.5391790000    -4.2984770000
   25      C       2.4471650000    -1.2800580000     1.1909940000
   26      O       3.2959790000    -1.9552880000     0.6582340000
   27      C       2.2197400000    -1.2539270000     2.7120960000
   28      C       1.2675310000    -0.1242900000     3.1363520000
   29      C       1.6238520000    -2.6281870000     3.1153290000
   30      C       3.5882540000    -1.0957970000     3.4090270000
   31      H       0.2782900000    -0.2243010000     2.6786590000
   32      H       1.6734580000     0.8575910000     2.8864270000
   33      H       1.1228670000    -0.1598880000     4.2193330000
   34      H       0.6395990000    -2.7960250000     2.6790330000
   35      H       1.5337920000    -2.6617600000     4.2046120000
   36      H       2.2808010000    -3.4403760000     2.7978640000
   37      H       4.0306950000    -0.1239000000     3.1956280000
   38      H       4.2796130000    -1.8734660000     3.0801950000
   39      H       3.4503140000    -1.1923460000     4.4895860000
 ----------------------------------------------------------------

   16   -1431.9452924903      4.76e-09  Convergence criterion met
 Total energy in the final basis set =    -1431.9726833820

                    Orbital Energies (a.u.)
 --------------------------------------------------------------

 Alpha MOs
 -- Occupied --
-89.0715 -19.1580 -19.1534 -19.1404 -19.1349 -19.1345 -10.3068 -10.3044
-10.2941 -10.2554 -10.2541 -10.2254 -10.2220 -10.2209 -10.2044 -10.2042
-10.2028 -10.1968 -10.1947 -10.1942 -10.1674 -10.1642 -10.1591  -8.1354
 -6.0979  -6.0974  -6.0964  -1.1323  -1.0926  -1.0865  -1.0765  -1.0280
 -0.8890  -0.8855  -0.8322  -0.8209  -0.7917  -0.7730  -0.7422  -0.7002
 -0.6964  -0.6908  -0.6716  -0.6420  -0.6320  -0.6181  -0.5984  -0.5586
 -0.5542  -0.5413  -0.5242  -0.5054  -0.4963  -0.4946  -0.4886  -0.4827
 -0.4694  -0.4660  -0.4638  -0.4614  -0.4547  -0.4465  -0.4425  -0.4399
 -0.4332  -0.4291  -0.4153  -0.3965  -0.3945  -0.3882  -0.3862  -0.3789
 -0.3726  -0.3697  -0.3588  -0.3490  -0.3415  -0.3366  -0.3338  -0.3285
 -0.3232  -0.3168  -0.3058  -0.2989  -0.2827  -0.2778  -0.2691

          Ground-State Mulliken Net Atomic Charges

     Atom                 Charge (a.u.)
  ----------------------------------------
      1 C                    -0.584287
      2 C                     1.054945
      3 C                     1.246867
      4 C                    -0.730007
      5 C                    -0.024737
      6 C                    -0.278979
      7 O                    -0.244662
      8 O                    -0.222810
      9 S                    -0.512992
     10 C                    -0.031296
     11 C                    -0.629471
     12 C                    -0.263853
     13 C                    -0.043785
     14 C                    -0.171593
     15 C                     0.328809
     16 O                    -0.089884
     17 O                    -0.143252
     18 H                     0.397290
     19 H                     0.403089
     20 H                     0.185262
     21 H                     0.233654
     22 H                     0.308669
     23 H                     0.306795
     24 H                     0.318383
     25 C                    -0.709686
     26 O                    -0.221546
     27 C                     0.222993
     28 C                    -0.357920
     29 C                    -0.447159
     30 C                    -0.692020
     31 H                     0.165691
     32 H                     0.152790
     33 H                     0.200793
     34 H                     0.148593
     35 H                     0.184357
     36 H                     0.141909
     37 H                     0.086000
     38 H                     0.128676
     39 H                     0.184374
  ----------------------------------------
  Sum of atomic charges =     0.000000

                    Cartesian Multipole Moments
 -----------------------------------------------------------------
    Charge (ESU x 10^10)
                 0.0000
    Dipole Moment (Debye)
         X      -1.6125      Y      -0.8915      Z      -3.7892
       Tot       4.2134
    Quadrupole Moments (Debye-Ang)
        XX    -130.1335     XY       0.8901     YY    -160.5659
        XZ     -17.6747     YZ      -5.6141     ZZ    -127.1243

 Total job time:  1758.29s(wall), 13280.14s(cpu)
        *  Thank you very much for using Q-Chem.  Have a nice day.  *
