 Gaussian 16, Revision A.03,
 Gaussian 16:  ES64L-G16RevA.03 25-Dec-2016

 --------------------------------------
 #P UB3LYP/6-311++G(d,p) nosym opt freq
 --------------------------------------

 --------
 Oxidized
 --------
 Symbolic Z-matrix:
 Charge =  0 Multiplicity = 1

 SCF Done:  E(UB3LYP) =  -1431.94738677     A.U. after   23 cycles
 SCF Done:  E(UB3LYP) =  -1431.94738673     A.U. after   11 cycles
 SCF Done:  E(UB3LYP) =  -1431.94738665     A.U. after   11 cycles
 SCF Done:  E(UB3LYP) =  -1431.94738674     A.U. after   11 cycles
 SCF Done:  E(UB3LYP) =  -1431.94738679     A.U. after   11 cycles
 Optimization completed.
    -- Stationary point found.
 Normal termination of Gaussian 16 at Wed Jan 10 05:55:15 2024.

 ----------------------------------------------------------------------
 #P Geom=AllCheck Guess=TCheck SCRF=Check GenChk UB3LYP/6-311++G(d,p) F
 req
 ----------------------------------------------------------------------

 Structure from the checkpoint file:  "068.chk"
 --------
 Oxidized
 --------
 Charge =  0 Multiplicity = 1

                          Input orientation:
 ---------------------------------------------------------------------
 Center     Atomic      Atomic             Coordinates (Angstroms)
 Number     Number       Type             X           Y           Z
 ---------------------------------------------------------------------
      1          6           0        0.826443    1.082601   -1.537346
      2          6           0       -0.414017    0.315450   -1.796189
      3          6           0       -0.668900   -0.828359   -1.154737
      4          6           0        0.273854   -1.376975   -0.156296
      5          6           0        1.491708   -0.560463    0.214493
      6          6           0        1.709927    0.601968   -0.429454
      7          8           0        1.117651    2.041807   -2.225615
      8          8           0        0.075584   -2.463000    0.353898
      9         16           0        3.099878    1.704128    0.032836
     10          6           0        4.227483    1.643420   -1.362579
     11          6           0        5.089083    0.552465   -1.477979
     12          6           0        4.233747    2.696796   -2.273437
     13          6           0        5.136720    2.652915   -3.332448
     14          6           0        5.978502    0.520455   -2.548728
     15          6           0        6.002953    1.568132   -3.469885
     16          8           0        3.748015    1.039263    1.169951
     17          8           0        2.565508    3.056117    0.179635
     18          1           0       -1.067822    0.725842   -2.557528
     19          1           0       -1.550619   -1.429736   -1.345410
     20          1           0        5.064722   -0.246419   -0.746761
     21          1           0        3.544802    3.521270   -2.147844
     22          1           0        5.162193    3.465127   -4.049297
     23          1           0        6.656294   -0.317956   -2.657383
     24          1           0        6.701555    1.539179   -4.298477
     25          6           0        2.447165   -1.280058    1.190994
     26          8           0        3.295979   -1.955288    0.658234
     27          6           0        2.219740   -1.253927    2.712096
     28          6           0        1.267531   -0.124290    3.136352
     29          6           0        1.623852   -2.628187    3.115329
     30          6           0        3.588254   -1.095797    3.409027
     31          1           0        0.278290   -0.224301    2.678659
     32          1           0        1.673458    0.857591    2.886427
     33          1           0        1.122867   -0.159888    4.219333
     34          1           0        0.639599   -2.796025    2.679033
     35          1           0        1.533792   -2.661760    4.204612
     36          1           0        2.280801   -3.440376    2.797864
     37          1           0        4.030695   -0.123900    3.195628
     38          1           0        4.279613   -1.873466    3.080195
     39          1           0        3.450314   -1.192346    4.489586
 ---------------------------------------------------------------------

 SCF Done:  E(UB3LYP) =  -1431.94738679     A.U. after    2 cycles

 Alpha  occ. eigenvalues --  -89.07055 -19.16543 -19.16064 -19.13950 -19.13245
 Alpha  occ. eigenvalues --  -19.13214 -10.31429 -10.31175 -10.29325 -10.25820
 Alpha  occ. eigenvalues --  -10.25736 -10.23783 -10.23674 -10.22820 -10.20877
 Alpha  occ. eigenvalues --  -10.20729 -10.20498 -10.20324 -10.20184 -10.20151
 Alpha  occ. eigenvalues --  -10.16774 -10.16330 -10.15569  -8.13422  -6.09668
 Alpha  occ. eigenvalues --   -6.09625  -6.09531  -1.13001  -1.09921  -1.09334
 Alpha  occ. eigenvalues --   -1.07585  -1.02469  -0.89539  -0.89163  -0.83697
 Alpha  occ. eigenvalues --   -0.82487  -0.79639  -0.77884  -0.74729  -0.70776
 Alpha  occ. eigenvalues --   -0.69626  -0.68891  -0.67657  -0.64850  -0.63799
 Alpha  occ. eigenvalues --   -0.62115  -0.60366  -0.56193  -0.55921  -0.54827
 Alpha  occ. eigenvalues --   -0.52829  -0.51669  -0.49973  -0.49656  -0.49115
 Alpha  occ. eigenvalues --   -0.48536  -0.47429  -0.47045  -0.46636  -0.46579
 Alpha  occ. eigenvalues --   -0.46125  -0.45257  -0.44690  -0.44436  -0.44192
 Alpha  occ. eigenvalues --   -0.43051  -0.41488  -0.40135  -0.39682  -0.39364
 Alpha  occ. eigenvalues --   -0.38598  -0.37808  -0.37530  -0.37043  -0.35636
 Alpha  occ. eigenvalues --   -0.34604  -0.34027  -0.33652  -0.33398  -0.33317
 Alpha  occ. eigenvalues --   -0.32713  -0.31967  -0.31184  -0.30170  -0.28763
 Alpha  occ. eigenvalues --   -0.28304  -0.26975
 Alpha virt. eigenvalues --   -0.15875  -0.07460  -0.05247  -0.04624  -0.03767
 Alpha virt. eigenvalues --   -0.03046  -0.01393  -0.00923  -0.00107   0.00954
 Alpha virt. eigenvalues --    0.01321   0.01556   0.02000   0.02212   0.02940

  Beta  occ. eigenvalues --  -89.07055 -19.16543 -19.16064 -19.13950 -19.13245
  Beta  occ. eigenvalues --  -19.13214 -10.31429 -10.31175 -10.29325 -10.25820
  Beta  occ. eigenvalues --  -10.25736 -10.23783 -10.23674 -10.22820 -10.20877
  Beta  occ. eigenvalues --  -10.20729 -10.20498 -10.20324 -10.20184 -10.20151
  Beta  occ. eigenvalues --  -10.16774 -10.16330 -10.15569  -8.13422  -6.09668
  Beta  occ. eigenvalues --   -6.09625  -6.09531  -1.13001  -1.09921  -1.09334
  Beta  occ. eigenvalues --   -1.07585  -1.02469  -0.89539  -0.89163  -0.83697
  Beta  occ. eigenvalues --   -0.82487  -0.79639  -0.77884  -0.74729  -0.70776
  Beta  occ. eigenvalues --   -0.69626  -0.68891  -0.67657  -0.64850  -0.63799
  Beta  occ. eigenvalues --   -0.62115  -0.60366  -0.56193  -0.55921  -0.54827
  Beta  occ. eigenvalues --   -0.52829  -0.51669  -0.49973  -0.49656  -0.49115
  Beta  occ. eigenvalues --   -0.48536  -0.47429  -0.47045  -0.46636  -0.46579
  Beta  occ. eigenvalues --   -0.46125  -0.45257  -0.44690  -0.44436  -0.44192
  Beta  occ. eigenvalues --   -0.43051  -0.41488  -0.40135  -0.39682  -0.39364
  Beta  occ. eigenvalues --   -0.38598  -0.37808  -0.37530  -0.37043  -0.35636
  Beta  occ. eigenvalues --   -0.34604  -0.34027  -0.33652  -0.33398  -0.33317
  Beta  occ. eigenvalues --   -0.32713  -0.31967  -0.31184  -0.30170  -0.28763
  Beta  occ. eigenvalues --   -0.28304  -0.26975
  Beta virt. eigenvalues --   -0.15875  -0.07460  -0.05247  -0.04624  -0.03767
  Beta virt. eigenvalues --   -0.03046  -0.01393  -0.00923  -0.00107   0.00954
  Beta virt. eigenvalues --    0.01321   0.01556   0.02000   0.02212   0.02940

 Mulliken charges and spin densities:
               1          2
     1  C   -0.232060  -0.000000
     2  C   -0.087764  -0.000000
     3  C   -0.043030  -0.000000
     4  C   -0.487596   0.000000
     5  C    0.511170  -0.000000
     6  C   -0.026963   0.000000
     7  O   -0.150233   0.000000
     8  O   -0.134736   0.000000
     9  S    0.214433  -0.000000
    10  C    0.874971   0.000000
    11  C   -0.356732   0.000000
    12  C   -0.072816  -0.000000
    13  C   -0.433898   0.000000
    14  C   -0.536719  -0.000000
    15  C   -0.317959   0.000000
    16  O   -0.043186  -0.000000
    17  O   -0.020543   0.000000
    18  H    0.237244  -0.000000
    19  H    0.232428   0.000000
    20  H    0.226212   0.000000
    21  H    0.269721   0.000000
    22  H    0.193376  -0.000000
    23  H    0.201411  -0.000000
    24  H    0.169809   0.000000
    25  C   -0.203668   0.000000
    26  O   -0.136212   0.000000
    27  C    0.179954  -0.000000
    28  C   -0.483905   0.000000
    29  C   -0.515978  -0.000000
    30  C   -0.545600   0.000000
    31  H    0.123552  -0.000000
    32  H    0.218732   0.000000
    33  H    0.173237  -0.000000
    34  H    0.172131  -0.000000
    35  H    0.149261  -0.000000
    36  H    0.183780  -0.000000
    37  H    0.168369  -0.000000
    38  H    0.173175  -0.000000
    39  H    0.156630   0.000000
 Sum of Mulliken charges =  -0.00000   0.00000

 Dipole moment (field-independent basis, Debye):
    X=             -1.2337    Y=             -0.7554    Z=             -2.9451  Tot=              3.2812
 Quadrupole moment (field-independent basis, Debye-Ang):
   XX=           -132.5704   YY=           -159.2343   ZZ=           -129.8653
   XY=              0.4155   XZ=            -14.4453   YZ=             -5.0329

  Exact polarizability: 224.765  15.783 233.279 -26.212 -54.551 238.417
 Approx polarizability: 324.743   2.412 443.965 -38.570 -98.337 356.272

                      1                      2                      3
                      A                      A                      A
 Frequencies --     22.1234                32.8453                38.7326
 Red. masses --      5.1803                 4.2458                 6.0667
 Frc consts  --      0.0015                 0.0027                 0.0054
 IR Inten    --      1.7549                 0.5937                 0.6097

                      4                      5                      6
                      A                      A                      A
 Frequencies --     45.6211                57.0175                79.4349
 Red. masses --      3.3171                 5.5194                 6.7718
 Frc consts  --      0.0041                 0.0106                 0.0252
 IR Inten    --      0.4670                 4.1524                 2.0041

                      7                      8                      9
                      A                      A                      A
 Frequencies --    107.0977               130.9079               139.8097
 Red. masses --      5.1594                 6.4704                 8.2822
 Frc consts  --      0.0349                 0.0653                 0.0954
 IR Inten    --      4.1519                 2.3579                 0.7938

                     10                     11                     12
                      A                      A                      A
 Frequencies --    167.8811               175.6075               191.5692
 Red. masses --      8.1653                 6.3193                 6.3386
 Frc consts  --      0.1356                 0.1148                 0.1371
 IR Inten    --      0.7015                 1.9660                 4.2903

                     13                     14                     15
                      A                      A                      A
 Frequencies --    210.9836               219.6492               237.3112
 Red. masses --      1.1169                 5.2256                 2.1297
 Frc consts  --      0.0293                 0.1485                 0.0707
 IR Inten    --      0.1896                 2.0241                 0.3571

                     16                     17                     18
                      A                      A                      A
 Frequencies --    242.0014               252.7597               269.1717
 Red. masses --      2.6697                 2.5098                 3.1229
 Frc consts  --      0.0921                 0.0945                 0.1333
 IR Inten    --      0.1761                 3.5151                 0.5795

                     19                     20                     21
                      A                      A                      A
 Frequencies --    275.8060               279.5739               300.8838
 Red. masses --      1.3014                 8.1272                 2.2676
 Frc consts  --      0.0583                 0.3743                 0.1210
 IR Inten    --      0.6202                 0.2151                 7.3645

                     22                     23                     24
                      A                      A                      A
 Frequencies --    305.8394               347.3922               360.2249
 Red. masses --      8.5612                 5.2618                 2.8410
 Frc consts  --      0.4718                 0.3741                 0.2172
 IR Inten    --      2.9104                 3.4660                 1.0618

                     25                     26                     27
                      A                      A                      A
 Frequencies --    372.1600               404.7895               410.2455
 Red. masses --      2.4273                 4.7572                 2.9539
 Frc consts  --      0.1981                 0.4593                 0.2929
 IR Inten    --      3.3809                 7.1390                 0.6415

                     28                     29                     30
                      A                      A                      A
 Frequencies --    428.9643               446.4907               453.9904
 Red. masses --      4.0298                 9.4036                 5.2328
 Frc consts  --      0.4369                 1.1045                 0.6354
 IR Inten    --      2.6938                11.2535                13.0327

                     31                     32                     33
                      A                      A                      A
 Frequencies --    490.4459               509.2540               542.2179
 Red. masses --      7.4405                 6.8025                 5.3837
 Frc consts  --      1.0545                 1.0394                 0.9326
 IR Inten    --     26.7669                26.5933                35.2083

                     34                     35                     36
                      A                      A                      A
 Frequencies --    587.5055               594.6797               604.0362
 Red. masses --      5.2856                 7.3806                 3.9305
 Frc consts  --      1.0749                 1.5378                 0.8449
 IR Inten    --     25.3147                94.0287                16.9260

                     37                     38                     39
                      A                      A                      A
 Frequencies --    625.7788               640.2233               677.8433
 Red. masses --      6.4341                 3.4119                 7.0453
 Frc consts  --      1.4845                 0.8240                 1.9073
 IR Inten    --      0.0644                 8.5389                12.7678

                     40                     41                     42
                      A                      A                      A
 Frequencies --    699.4596               708.9047               723.2423
 Red. masses --      2.1425                 5.9995                 7.0060
 Frc consts  --      0.6176                 1.7764                 2.1592
 IR Inten    --     37.4163                 3.6633                60.3597

                     43                     44                     45
                      A                      A                      A
 Frequencies --    765.6674               790.5108               817.8762
 Red. masses --      1.5853                 4.9625                 5.7412
 Frc consts  --      0.5476                 1.8271                 2.2627
 IR Inten    --     25.1164                 9.8862                 8.7887

                     46                     47                     48
                      A                      A                      A
 Frequencies --    851.6527               856.5061               865.5128
 Red. masses --      2.9852                 1.2447                 3.5250
 Frc consts  --      1.2757                 0.5380                 1.5558
 IR Inten    --     24.5429                 0.2546                50.7271

                     49                     50                     51
                      A                      A                      A
 Frequencies --    876.4356               932.2979               948.6087
 Red. masses --      5.1708                 1.8740                 1.5778
 Frc consts  --      2.3402                 0.9597                 0.8365
 IR Inten    --     10.3058                 2.2828                 2.5383

                     52                     53                     54
                      A                      A                      A
 Frequencies --    948.9756               973.0150               992.7452
 Red. masses --      1.3736                 1.2106                 4.0713
 Frc consts  --      0.7288                 0.6753                 2.3641
 IR Inten    --      0.2832                 0.1271               101.1619

                     55                     56                     57
                      A                      A                      A
 Frequencies --    996.7878              1012.9353              1014.4595
 Red. masses --      1.3792                 2.1247                 2.2132
 Frc consts  --      0.8074                 1.2844                 1.3420
 IR Inten    --      0.2560                 2.1459                 3.2926

                     58                     59                     60
                      A                      A                      A
 Frequencies --   1019.1486              1037.8557              1041.5253
 Red. masses --      1.2728                 1.9279                 2.3210
 Frc consts  --      0.7789                 1.2235                 1.4834
 IR Inten    --      0.5282                16.1182                 1.6983

                     61                     62                     63
                      A                      A                      A
 Frequencies --   1049.4804              1072.3951              1098.1656
 Red. masses --      1.6132                 3.1351                 2.6204
 Frc consts  --      1.0469                 2.1243                 1.8619
 IR Inten    --     12.7984                51.7047                20.7546

                     64                     65                     66
                      A                      A                      A
 Frequencies --   1103.3779              1115.5510              1120.5285
 Red. masses --      1.5884                 1.8492                 5.5215
 Frc consts  --      1.1394                 1.3559                 4.0846
 IR Inten    --      9.5829               155.2051               137.7321

                     67                     68                     69
                      A                      A                      A
 Frequencies --   1186.0995              1203.1498              1208.8226
 Red. masses --      1.1221                 1.1580                 2.4952
 Frc consts  --      0.9301                 0.9876                 2.1482
 IR Inten    --      0.2483                 5.5794                 3.9330

                     70                     71                     72
                      A                      A                      A
 Frequencies --   1243.6731              1255.2892              1267.7542
 Red. masses --      2.9855                 3.3376                 3.1036
 Frc consts  --      2.7207                 3.0986                 2.9389
 IR Inten    --     15.7060                14.6946                 8.2975

                     73                     74                     75
                      A                      A                      A
 Frequencies --   1276.1779              1280.1832              1333.6310
 Red. masses --      2.8065                16.8255                 3.0078
 Frc consts  --      2.6930                16.2466                 3.1519
 IR Inten    --    147.1481               148.6118                 0.0377

                     76                     77                     78
                      A                      A                      A
 Frequencies --   1350.7027              1386.8015              1394.7246
 Red. masses --      1.7451                 1.8326                 1.1925
 Frc consts  --      1.8758                 2.0765                 1.3668
 IR Inten    --      2.7030                 1.1156                 5.9281

                     79                     80                     81
                      A                      A                      A
 Frequencies --   1398.7822              1428.9911              1477.2681
 Red. masses --      1.2116                 1.2181                 1.5859
 Frc consts  --      1.3967                 1.4655                 2.0391
 IR Inten    --     14.8155                14.9880                 8.9447

                     82                     83                     84
                      A                      A                      A
 Frequencies --   1477.4657              1490.4275              1495.8547
 Red. masses --      1.2660                 1.0454                 1.0470
 Frc consts  --      1.6283                 1.3683                 1.3803
 IR Inten    --      9.4052                 3.5748                 2.0352

                     85                     86                     87
                      A                      A                      A
 Frequencies --   1501.8351              1507.4848              1509.4361
 Red. masses --      1.0517                 1.9926                 1.0472
 Frc consts  --      1.3976                 2.6680                 1.4058
 IR Inten    --      4.0459                 4.1944                11.5481

                     88                     89                     90
                      A                      A                      A
 Frequencies --   1527.0290              1610.8711              1621.1210
 Red. masses --      1.0601                11.4793                 5.2462
 Frc consts  --      1.4565                17.5503                 8.1232
 IR Inten    --     27.5844                12.0724                 3.7147

                     91                     92                     93
                      A                      A                      A
 Frequencies --   1624.6207              1680.3093              1723.0711
 Red. masses --      5.7590                 8.1112                11.0885
 Frc consts  --      8.9558                13.4932                19.3968
 IR Inten    --      0.2080                 7.7180                46.0821

                     94                     95                     96
                      A                      A                      A
 Frequencies --   1729.0894              1763.3193              3025.6864
 Red. masses --     11.9910                12.5550                 1.0375
 Frc consts  --     21.1222                23.0001                 5.5961
 IR Inten    --    343.5048               115.0584                22.0278

                     97                     98                     99
                      A                      A                      A
 Frequencies --   3034.6663              3040.7214              3083.3907
 Red. masses --      1.0379                 1.0388                 1.0991
 Frc consts  --      5.6316                 5.6591                 6.1564
 IR Inten    --     11.3020                47.3443                32.9784

                    100                    101                    102
                      A                      A                      A
 Frequencies --   3101.1070              3106.4289              3111.0793
 Red. masses --      1.0999                 1.0988                 1.1013
 Frc consts  --      6.2322                 6.2471                 6.2800
 IR Inten    --      3.6011                26.5167                14.3843

                    103                    104                    105
                      A                      A                      A
 Frequencies --   3131.4690              3141.0495              3170.3672
 Red. masses --      1.1006                 1.1010                 1.0866
 Frc consts  --      6.3590                 6.4000                 6.4348
 IR Inten    --     13.0133                 6.7840                 1.1083

                    106                    107                    108
                      A                      A                      A
 Frequencies --   3180.4340              3183.1943              3191.0080
 Red. masses --      1.0875                 1.0898                 1.0941
 Frc consts  --      6.4810                 6.5061                 6.5639
 IR Inten    --      0.1458                 9.7327                 6.4168

                    109                    110                    111
                      A                      A                      A
 Frequencies --   3197.6462              3200.1119              3216.2836
 Red. masses --      1.1000                 1.0960                 1.0936
 Frc consts  --      6.6267                 6.6128                 6.6654
 IR Inten    --      1.0786                 9.8769                 4.3299

 - Thermochemistry -
 -------------------
 Temperature   298.150 Kelvin.  Pressure   1.00000 Atm.
 Atom     1 has atomic number  6 and mass  12.00000

 Molecular mass:   332.07185 amu.
 Principal axes and moments of inertia in atomic units:
                           1         2         3
     Eigenvalues --  4663.642519004.68987**********
           X           -0.50428   0.83027  -0.23740
           Y           -0.55606  -0.10187   0.82487
           Z            0.66068   0.54797   0.51305
 This molecule is an asymmetric top.
 Rotational symmetry number  1.
 Warning -- assumption of classical behavior for rotation
           may cause significant error
 Rotational temperatures (Kelvin)      0.01857     0.00962     0.00809
 Rotational constants (GHZ):           0.38698     0.20042     0.16862
 Zero-point vibrational energy     776263.5 (Joules/Mol)
                                  185.53143 (Kcal/Mol)
 Warning -- explicit consideration of  36 degrees of freedom as
           vibrations may cause significant error
 Vibrational temperatures:     31.83    47.26    55.73    65.64    82.04
          (Kelvin)            114.29   154.09   188.35   201.15   241.54
                              252.66   275.63   303.56   316.03   341.44
                              348.19   363.66   387.28   396.82   402.24
                              432.90   440.03   499.82   518.28   535.46
                              582.40   590.25   617.18   642.40   653.19
                              705.64   732.70   780.13   845.29   855.61
                              869.07   900.36   921.14   975.27  1006.37
                             1019.96  1040.58  1101.62  1137.37  1176.74
                             1225.34  1232.32  1245.28  1261.00  1341.37
                             1364.84  1365.36  1399.95  1428.34  1434.16
                             1457.39  1459.58  1466.33  1493.24  1498.52
                             1509.97  1542.94  1580.02  1587.51  1605.03
                             1612.19  1706.53  1731.06  1739.23  1789.37
                             1806.08  1824.02  1836.14  1841.90  1918.80
                             1943.36  1995.30  2006.70  2012.54  2056.00
                             2125.46  2125.74  2144.39  2152.20  2160.81
                             2168.93  2171.74  2197.05  2317.68  2332.43
                             2337.47  2417.59  2479.12  2487.77  2537.02
                             4353.29  4366.21  4374.92  4436.31  4461.80
                             4469.46  4476.15  4505.49  4519.27  4561.45
                             4575.94  4579.91  4591.15  4600.70  4604.25
                             4627.51

 Zero-point correction=                           0.295663 (Hartree/Particle)
 Thermal correction to Energy=                    0.317772
 Thermal correction to Enthalpy=                  0.318716
 Thermal correction to Gibbs Free Energy=         0.243747
 Sum of electronic and zero-point Energies=          -1431.651724
 Sum of electronic and thermal Energies=             -1431.629615
 Sum of electronic and thermal Enthalpies=           -1431.628671
 Sum of electronic and thermal Free Energies=        -1431.703640

                     E (Thermal)             CV                S
                      KCal/Mol        Cal/Mol-Kelvin    Cal/Mol-Kelvin
 Total                  199.405             83.570            157.785
 Electronic               0.000              0.000              0.000
 Translational            0.889              2.981             43.296
 Rotational               0.889              2.981             34.463
 Vibrational            197.627             77.608             80.027
 Vibration     1          0.593              1.985              6.434
 Vibration     2          0.594              1.983              5.650
 Vibration     3          0.594              1.981              5.323
 Vibration     4          0.595              1.979              4.999
 Vibration     5          0.596              1.975              4.558
 Vibration     6          0.600              1.963              3.905
 Vibration     7          0.606              1.944              3.321
 Vibration     8          0.612              1.922              2.933
 Vibration     9          0.615              1.914              2.806
 Vibration    10          0.625              1.882              2.459
 Vibration    11          0.628              1.872              2.375
 Vibration    12          0.634              1.852              2.213
 Vibration    13          0.643              1.824              2.035
 Vibration    14          0.647              1.811              1.962
 Vibration    15          0.656              1.784              1.823
 Vibration    16          0.658              1.776              1.788
 Vibration    17          0.664              1.758              1.711
 Vibration    18          0.674              1.730              1.602
 Vibration    19          0.677              1.718              1.560
 Vibration    20          0.680              1.711              1.536
 Vibration    21          0.693              1.672              1.412
 Vibration    22          0.696              1.663              1.385
 Vibration    23          0.725              1.581              1.178
 Vibration    24          0.735              1.554              1.121
 Vibration    25          0.744              1.529              1.071
 Vibration    26          0.770              1.460              0.945
 Vibration    27          0.774              1.448              0.926
 Vibration    28          0.790              1.407              0.862
 Vibration    29          0.806              1.369              0.806
 Vibration    30          0.812              1.352              0.784
 Vibration    31          0.846              1.271              0.682
 Vibration    32          0.864              1.229              0.635
 Vibration    33          0.897              1.157              0.561
 Vibration    34          0.945              1.058              0.472
 Vibration    35          0.952              1.043              0.459
 Vibration    36          0.963              1.023              0.443

 Optimization completed.
    -- Stationary point found.
 Normal termination of Gaussian 16 at Wed Jan 10 10:21:22 2024.
