 Q-Chem 5.4, Q-Chem, Inc., Pleasanton, CA (2021)
 Q-Chem 5.4.0 for Intel X86 EM64T Linux

User input:
--------------------------------------------------------------
$molecule
0 1
C                 -1.4501230000     -2.6074110000      0.9637230000
C                 -2.2887670000     -2.1473870000     -0.2019070000
C                 -1.9865880000     -0.9651080000     -0.7834070000
C                 -0.8719370000     -0.1041010000     -0.3438820000
C                 -0.0680470000     -0.5635220000      0.8146380000
C                 -0.3467790000     -1.7233570000      1.4198200000
O                 -1.6410820000     -3.6745180000      1.5201260000
O                 -0.6242220000      0.9531760000     -0.9052570000
C                 -3.3930650000     -3.0013170000     -0.6906320000
C                 -4.2643220000     -3.6572560000      0.1935080000
C                 -3.6051770000     -3.1422450000     -2.0715010000
C                 -4.6620380000     -3.9058850000     -2.5557700000
C                 -5.3270390000     -4.4111150000     -0.2945350000
C                 -5.5295490000     -4.5399520000     -1.6676970000
H                 -2.5714890000     -0.5740730000     -1.6085340000
H                  0.7405460000      0.0867380000      1.1297250000
H                  0.2185400000     -2.0941750000      2.2677340000
H                 -4.1142590000     -3.5717570000      1.2607270000
H                 -2.9215640000     -2.6702370000     -2.7679430000
H                 -4.8030330000     -4.0119920000     -3.6253530000
H                 -5.9972290000     -4.9025450000      0.4015030000
H                 -6.3536970000     -5.1357000000     -2.0433660000
$end
$rem
MAX_SCF_CYCLES=200
BASIS  =  6-311++G(d,p)
GUI  =  2
JOB_TYPE  =  SP
METHOD  =  B3LYP
SOLVENT_METHOD = COSMO
$end
$solvent
dielectric 37.219
opticaldielectric 1.43
$end

--------------------------------------------------------------

             Standard Nuclear Orientation (Angstroms)
    I     Atom           X                Y                Z
 ----------------------------------------------------------------
    1      C      -1.0440238471    -1.3489591526     0.2391191806
    2      C      -0.3898769093    -0.0142900788    -0.0146314518
    3      C      -1.1830214919     1.0613559191    -0.2174747163
    4      C      -2.6570436562     1.0007787471    -0.1939971330
    5      C      -3.2839140998    -0.3227630270     0.0399814916
    6      C      -2.5283642182    -1.4093717927     0.2338365278
    7      O      -0.3972299301    -2.3575752079     0.4607455989
    8      O      -3.3384337504     2.0002768675    -0.3702081243
    9      C       1.0854965944     0.0895678196    -0.0115975067
   10      C       1.8936102070    -0.8755094266    -0.6333905344
   11      C       1.7043301843     1.1928330203     0.5979123636
   12      C       3.0878310781     1.3347505691     0.5778531156
   13      C       3.2764506293    -0.7243806512    -0.6611257747
   14      C       3.8786450430     0.3776076728    -0.0560086184
   15      H      -0.7666851496     2.0399925206    -0.4291030923
   16      H      -4.3679771016    -0.3498137202     0.0440055400
   17      H      -2.9488427956    -2.3933699683     0.4098906913
   18      H       1.4400122320    -1.7387925099    -1.1000559093
   19      H       1.0972522016     1.9294375543     1.1117409621
   20      H       3.5480430105     2.1876697853     1.0635277674
   21      H       3.8856578030    -1.4729561783    -1.1547129281
   22      H       4.9571321617     0.4865015251    -0.0724544915
 ----------------------------------------------------------------

    9    -612.6735294725      4.10e-06  Convergence criterion met
 Total energy in the final basis set =     -612.6735294725
    5    -612.6892652521      5.58e-06  Convergence criterion met
 Total energy in the final basis set =     -612.6892652521

                    Orbital Energies (a.u.)
 --------------------------------------------------------------

 Alpha MOs
 -- Occupied --
-19.1482 -19.1436 -10.2940 -10.2877 -10.2267 -10.2119 -10.2110 -10.2072
-10.2028 -10.1876 -10.1864 -10.1846 -10.1831 -10.1825  -1.0801  -1.0731
 -0.8831  -0.8591  -0.8088  -0.7600  -0.7537  -0.7098  -0.6527  -0.6291
 -0.6095  -0.5897  -0.5329  -0.5259  -0.5107  -0.4894  -0.4714  -0.4666
 -0.4551  -0.4497  -0.4415  -0.4323  -0.4308  -0.4235  -0.4079  -0.3845
 -0.3655  -0.3563  -0.3194  -0.3098  -0.2960  -0.2839  -0.2676  -0.2579

          Ground-State Mulliken Net Atomic Charges

     Atom                 Charge (a.u.)
  ----------------------------------------
      1 C                    -1.009713
      2 C                     1.599889
      3 C                    -0.612693
      4 C                    -0.502343
      5 C                     0.135053
      6 C                    -0.009024
      7 O                    -0.266803
      8 O                    -0.324820
      9 C                     1.325780
     10 C                    -0.546916
     11 C                    -0.648181
     12 C                    -0.297546
     13 C                    -0.206381
     14 C                    -0.484900
     15 H                     0.245772
     16 H                     0.265337
     17 H                     0.266245
     18 H                     0.206599
     19 H                     0.211773
     20 H                     0.219063
     21 H                     0.223103
     22 H                     0.210706
  ----------------------------------------
  Sum of atomic charges =     0.000000

                    Cartesian Multipole Moments
 -----------------------------------------------------------------
    Charge (ESU x 10^10)
                 0.0000
    Dipole Moment (Debye)
         X       1.5432      Y      -0.4317      Z      -0.0621
       Tot       1.6036
    Quadrupole Moments (Debye-Ang)
        XX     -73.0830     XY      15.4916     YY     -88.9018
        XZ      -3.1745     YZ       6.7677     ZZ     -81.7162

 Total job time:  57.27s(wall), 246.44s(cpu)
        *  Thank you very much for using Q-Chem.  Have a nice day.  *
