 Gaussian 16, Revision A.03,
 Gaussian 16:  ES64L-G16RevA.03 25-Dec-2016

 ----------------------------------------------------------------------
 #P UB3LYP/6-311++G(d,p) nosym opt freq SCRF=(PCM,Solvent=n,n-DiMethylF
 ormamide)
 ----------------------------------------------------------------------

 --------
 Oxidized
 --------
 Symbolic Z-matrix:
 Charge =  0 Multiplicity = 1

 SCF Done:  E(UB3LYP) =  -610.528140639     A.U. after   15 cycles
 SCF Done:  E(UB3LYP) =  -610.528233830     A.U. after   11 cycles
 SCF Done:  E(UB3LYP) =  -610.528240642     A.U. after   11 cycles
 SCF Done:  E(UB3LYP) =  -610.528246340     A.U. after   10 cycles
 SCF Done:  E(UB3LYP) =  -610.528246671     A.U. after    8 cycles
 Optimization completed.
    -- Stationary point found.
 Normal termination of Gaussian 16 at Sun Feb 11 00:27:37 2024.

 ----------------------------------------------------------------------
 #P Geom=AllCheck Guess=TCheck SCRF=Check GenChk UB3LYP/6-311++G(d,p) F
 req
 ----------------------------------------------------------------------

 Structure from the checkpoint file:  "279.chk"
 --------
 Oxidized
 --------
 Charge =  0 Multiplicity = 1

                          Input orientation:
 ---------------------------------------------------------------------
 Center     Atomic      Atomic             Coordinates (Angstroms)
 Number     Number       Type             X           Y           Z
 ---------------------------------------------------------------------
      1          8           0       -1.287233    2.465408    0.332162
      2          6           0       -1.246427    1.243037    0.214802
      3          6           0       -2.472188    0.449667    0.192552
      4          6           0       -2.434053   -0.892929    0.066117
      5          8           0       -3.531099   -1.653724    0.041963
      6          6           0       -1.142949   -1.647550   -0.058938
      7          8           0       -1.208387   -2.865374   -0.170454
      8          6           0        0.110841   -0.875180   -0.040628
      9          6           0        1.339113   -1.532011   -0.155272
     10          6           0        2.522212   -0.799021   -0.137668
     11          6           0        2.479751    0.589760   -0.005670
     12          6           0        1.256433    1.249620    0.108705
     13          6           0        0.065771    0.526230    0.092161
     14          1           0       -3.412883    0.979301    0.282096
     15          1           0        1.355238   -2.609895   -0.257069
     16          1           0        3.474665   -1.307446   -0.226574
     17          1           0        3.401169    1.159820    0.008009
     18          1           0        1.215136    2.326527    0.211022
     19          1           0       -3.235638   -2.579113   -0.055488
 ---------------------------------------------------------------------

 SCF Done:  E(UB3LYP) =  -610.528246671     A.U. after    1 cycles

 Alpha  occ. eigenvalues --  -19.18801 -19.15615 -19.13143 -10.30025 -10.28506
 Alpha  occ. eigenvalues --  -10.27946 -10.21613 -10.21447 -10.20584 -10.20374
 Alpha  occ. eigenvalues --  -10.20184 -10.20170 -10.20028  -1.11712  -1.07539
 Alpha  occ. eigenvalues --   -1.06172  -0.89695  -0.84024  -0.78530  -0.77928
 Alpha  occ. eigenvalues --   -0.70624  -0.66487  -0.64652  -0.61015  -0.58009
 Alpha  occ. eigenvalues --   -0.54992  -0.53077  -0.49915  -0.48822  -0.47592
 Alpha  occ. eigenvalues --   -0.47256  -0.45709  -0.45097  -0.44136  -0.42769
 Alpha  occ. eigenvalues --   -0.41469  -0.41264  -0.38690  -0.38115  -0.37467
 Alpha  occ. eigenvalues --   -0.30832  -0.29521  -0.28415  -0.28377  -0.27158
 Alpha virt. eigenvalues --   -0.13155  -0.06063  -0.03214  -0.00790   0.00334
 Alpha virt. eigenvalues --    0.01109   0.01974   0.02327   0.02725   0.04285
 Alpha virt. eigenvalues --    0.04416   0.05102   0.05664   0.06533   0.07119

  Beta  occ. eigenvalues --  -19.18801 -19.15615 -19.13143 -10.30025 -10.28506
  Beta  occ. eigenvalues --  -10.27946 -10.21613 -10.21447 -10.20584 -10.20374
  Beta  occ. eigenvalues --  -10.20184 -10.20170 -10.20028  -1.11712  -1.07539
  Beta  occ. eigenvalues --   -1.06172  -0.89695  -0.84024  -0.78530  -0.77928
  Beta  occ. eigenvalues --   -0.70624  -0.66487  -0.64652  -0.61015  -0.58009
  Beta  occ. eigenvalues --   -0.54992  -0.53077  -0.49915  -0.48822  -0.47592
  Beta  occ. eigenvalues --   -0.47256  -0.45709  -0.45097  -0.44136  -0.42769
  Beta  occ. eigenvalues --   -0.41469  -0.41264  -0.38690  -0.38115  -0.37467
  Beta  occ. eigenvalues --   -0.30832  -0.29521  -0.28415  -0.28377  -0.27158
  Beta virt. eigenvalues --   -0.13155  -0.06063  -0.03214  -0.00790   0.00334
  Beta virt. eigenvalues --    0.01109   0.01974   0.02327   0.02725   0.04285
  Beta virt. eigenvalues --    0.04416   0.05102   0.05664   0.06533   0.07119

 Mulliken charges and spin densities:
               1          2
     1  O   -0.316354   0.000000
     2  C   -0.442083  -0.000000
     3  C    0.390814   0.000000
     4  C   -0.220349  -0.000000
     5  O   -0.224634  -0.000000
     6  C   -0.540165   0.000000
     7  O   -0.299887  -0.000000
     8  C    0.259159  -0.000000
     9  C    0.279770  -0.000000
    10  C   -0.369496   0.000000
    11  C   -0.330468  -0.000000
    12  C    0.293554   0.000000
    13  C    0.171187   0.000000
    14  H    0.238335   0.000000
    15  H    0.189810   0.000000
    16  H    0.214272  -0.000000
    17  H    0.214311   0.000000
    18  H    0.183763  -0.000000
    19  H    0.308461   0.000000
 Sum of Mulliken charges =  -0.00000   0.00000

 Dipole moment (field-independent basis, Debye):
    X=              3.5468    Y=             -2.2341    Z=             -0.3608  Tot=              4.2073
 Quadrupole moment (field-independent basis, Debye-Ang):
   XX=            -66.2269   YY=            -84.4931   ZZ=            -75.6195
   XY=              4.1536   XZ=              0.1414   YZ=             -1.1362

  Exact polarizability: 216.672  13.012 236.609  -4.571  13.895  83.444
 Approx polarizability: 241.150  17.780 321.079  -4.549  20.251  98.567

                      1                      2                      3
                      A                      A                      A
 Frequencies --     68.1377               118.2931               156.3463
 Red. masses --      9.7575                 4.6716                 7.3815
 Frc consts  --      0.0267                 0.0385                 0.1063
 IR Inten    --      7.7654                 0.0460                 2.3149

                      4                      5                      6
                      A                      A                      A
 Frequencies --    202.7581               259.7243               323.1161
 Red. masses --      5.0690                 5.7597                 5.7244
 Frc consts  --      0.1228                 0.2289                 0.3521
 IR Inten    --      0.0687                 2.5040                20.2980

                      7                      8                      9
                      A                      A                      A
 Frequencies --    379.5835               391.2881               404.9157
 Red. masses --     10.3361                 3.8875                10.8216
 Frc consts  --      0.8774                 0.3507                 1.0454
 IR Inten    --     38.2080                 0.4448                11.1405

                     10                     11                     12
                      A                      A                      A
 Frequencies --    441.0807               461.5425               483.7592
 Red. masses --      4.4371                 9.3133                 3.8790
 Frc consts  --      0.5086                 1.1689                 0.5349
 IR Inten    --      6.2835                16.3230                 3.0909

                     13                     14                     15
                      A                      A                      A
 Frequencies --    526.5522               602.6942               661.5934
 Red. masses --      9.2697                 1.1017                 6.7811
 Frc consts  --      1.5143                 0.2358                 1.7488
 IR Inten    --      4.2245               139.6405                19.5886

                     16                     17                     18
                      A                      A                      A
 Frequencies --    682.2884               685.4488               721.2896
 Red. masses --      3.7811                 5.2091                 6.6787
 Frc consts  --      1.0371                 1.4420                 2.0472
 IR Inten    --     15.2565                 7.0331                 2.7459

                     19                     20                     21
                      A                      A                      A
 Frequencies --    732.2288               759.3226               799.0301
 Red. masses --      2.6727                 6.4444                 1.6583
 Frc consts  --      0.8443                 2.1892                 0.6238
 IR Inten    --     89.6916                 1.4868                48.1757

                     22                     23                     24
                      A                      A                      A
 Frequencies --    815.1270               870.5732               911.0960
 Red. masses --      4.4180                 1.4781                 1.3372
 Frc consts  --      1.7295                 0.6600                 0.6540
 IR Inten    --     22.6991                38.6543                 0.1619

                     25                     26                     27
                      A                      A                      A
 Frequencies --    995.6386               998.4072              1024.0832
 Red. masses --      6.7459                 1.3859                 1.3373
 Frc consts  --      3.9400                 0.8139                 0.8263
 IR Inten    --    115.9403                 1.4464                 0.1894

                     28                     29                     30
                      A                      A                      A
 Frequencies --   1053.0343              1095.4487              1132.1518
 Red. masses --      2.2446                 2.9928                 1.7921
 Frc consts  --      1.4665                 2.1160                 1.3534
 IR Inten    --      0.8663                13.5408                22.1196

                     31                     32                     33
                      A                      A                      A
 Frequencies --   1179.8815              1219.0824              1234.2367
 Red. masses --      1.1183                 1.4025                 2.4402
 Frc consts  --      0.9172                 1.2281                 2.1901
 IR Inten    --     12.5552                54.1149               418.5796

                     34                     35                     36
                      A                      A                      A
 Frequencies --   1256.3038              1304.3070              1319.2475
 Red. masses --      2.6142                 2.0011                 5.5940
 Frc consts  --      2.4309                 2.0058                 5.7362
 IR Inten    --    256.1888               174.8374               307.8663

                     37                     38                     39
                      A                      A                      A
 Frequencies --   1365.1198              1410.0364              1483.5656
 Red. masses --      7.0442                 2.1495                 2.4103
 Frc consts  --      7.7343                 2.5180                 3.1256
 IR Inten    --     96.0326               490.7947                 4.0604

                     40                     41                     42
                      A                      A                      A
 Frequencies --   1503.2128              1608.0766              1619.0274
 Red. masses --      2.7015                 6.4603                 5.9956
 Frc consts  --      3.5966                 9.8427                 9.2595
 IR Inten    --      4.4422                54.2843               304.8723

                     43                     44                     45
                      A                      A                      A
 Frequencies --   1675.0465              1686.5729              1701.3737
 Red. masses --     10.2334                 7.3889                10.8876
 Frc consts  --     16.9171                12.3833                18.5687
 IR Inten    --    662.4669               440.5990               175.5616

                     46                     47                     48
                      A                      A                      A
 Frequencies --   3181.5359              3193.1246              3196.7732
 Red. masses --      1.0875                 1.0909                 1.0926
 Frc consts  --      6.4856                 6.5532                 6.5789
 IR Inten    --      2.8449                 6.8922                 2.3718

                     49                     50                     51
                      A                      A                      A
 Frequencies --   3203.4238              3206.9406              3620.7100
 Red. masses --      1.0930                 1.0961                 1.0646
 Frc consts  --      6.6083                 6.6418                 8.2226
 IR Inten    --      2.9874                14.3585               262.9862

 - Thermochemistry -
 -------------------
 Temperature   298.150 Kelvin.  Pressure   1.00000 Atm.
 Atom     1 has atomic number  8 and mass  15.99491

 Molecular mass:   174.03169 amu.
 Principal axes and moments of inertia in atomic units:
                           1         2         3
     Eigenvalues --  1396.099702318.999433715.09883
           X            0.95099  -0.30628   0.04262
           Y            0.30900   0.94650  -0.09306
           Z           -0.01184   0.10167   0.99475
 This molecule is an asymmetric top.
 Rotational symmetry number  1.
 Warning -- assumption of classical behavior for rotation
           may cause significant error
 Rotational temperatures (Kelvin)      0.06204     0.03735     0.02331
 Rotational constants (GHZ):           1.29270     0.77824     0.48579
 Zero-point vibrational energy     358426.0 (Joules/Mol)
                                   85.66588 (Kcal/Mol)
 Warning -- explicit consideration of  14 degrees of freedom as
           vibrations may cause significant error
 Vibrational temperatures:     98.03   170.20   224.95   291.72   373.69
          (Kelvin)            464.89   546.14   562.98   582.58   634.62
                              664.06   696.02   757.59   867.14   951.89
                              981.66   986.21  1037.77  1053.51  1092.50
                             1149.63  1172.79  1252.56  1310.86  1432.50
                             1436.49  1473.43  1515.08  1576.11  1628.91
                             1697.59  1753.99  1775.79  1807.54  1876.61
                             1898.10  1964.10  2028.73  2134.52  2162.79
                             2313.66  2329.42  2410.02  2426.60  2447.90
                             4577.52  4594.19  4599.44  4609.01  4614.07
                             5209.39

 Zero-point correction=                           0.136517 (Hartree/Particle)
 Thermal correction to Energy=                    0.146215
 Thermal correction to Enthalpy=                  0.147159
 Thermal correction to Gibbs Free Energy=         0.101169
 Sum of electronic and zero-point Energies=           -610.391729
 Sum of electronic and thermal Energies=              -610.382032
 Sum of electronic and thermal Enthalpies=            -610.381088
 Sum of electronic and thermal Free Energies=         -610.427078

                     E (Thermal)             CV                S
                      KCal/Mol        Cal/Mol-Kelvin    Cal/Mol-Kelvin
 Total                   91.751             38.475             96.794
 Electronic               0.000              0.000              0.000
 Translational            0.889              2.981             41.370
 Rotational               0.889              2.981             30.865
 Vibrational             89.974             32.514             24.559
 Vibration     1          0.598              1.969              4.206
 Vibration     2          0.608              1.934              3.128
 Vibration     3          0.620              1.896              2.594
 Vibration     4          0.639              1.836              2.108
 Vibration     5          0.668              1.746              1.664
 Vibration     6          0.708              1.629              1.294
 Vibration     7          0.750              1.514              1.041
 Vibration     8          0.759              1.489              0.995
 Vibration     9          0.770              1.460              0.945
 Vibration    10          0.801              1.381              0.823
 Vibration    11          0.819              1.335              0.762
 Vibration    12          0.840              1.286              0.700
 Vibration    13          0.882              1.191              0.595
 Vibration    14          0.961              1.026              0.445

 Optimization completed.
    -- Stationary point found.
 Normal termination of Gaussian 16 at Sun Feb 11 00:46:45 2024.
