 Q-Chem 5.4, Q-Chem, Inc., Pleasanton, CA (2021)
 Q-Chem 5.4.0 for Intel X86 EM64T Linux

User input:
--------------------------------------------------------------
$molecule
0 1
C                  2.9471410000      0.2561640000     -0.0776200000
C                  1.4632430000      0.0712620000     -0.0065830000
C                  0.8599420000     -0.9773010000      0.5790910000
C                 -0.6089700000     -1.1330590000      0.6337150000
O                 -1.1162930000     -2.1026870000      1.1762240000
C                 -1.4632480000     -0.0712410000      0.0065630000
C                 -0.8599440000      0.9773400000     -0.5790600000
C                  0.6089620000      1.1330490000     -0.6337310000
O                  1.1162810000      2.1027110000     -1.1762030000
C                 -2.9471580000     -0.2561890000      0.0776010000
H                  3.4692630000     -0.5698250000      0.4066250000
H                  3.2402880000      1.1951830000      0.3999900000
H                  3.2757530000      0.3275460000     -1.1181600000
H                  1.4246430000     -1.7761170000      1.0491540000
H                 -1.4246170000      1.7761950000     -1.0490850000
H                 -3.2757910000     -0.3273790000      1.1181460000
H                 -3.4692850000      0.5696780000     -0.4068370000
H                 -3.2402100000     -1.1953290000     -0.3998300000
$end
$rem
MAX_SCF_CYCLES=200
BASIS  =  6-311++G(d,p)
GUI  =  2
JOB_TYPE  =  SP
METHOD  =  B3LYP
SOLVENT_METHOD = COSMO
$end
$solvent
dielectric 37.219
opticaldielectric 1.43
$end

--------------------------------------------------------------

             Standard Nuclear Orientation (Angstroms)
    I     Atom           X                Y                Z
 ----------------------------------------------------------------
    1      C       2.7978905723     0.9639041538     0.0000457821
    2      C       1.3628748677     0.5373854476     0.0000440638
    3      C       0.3221378898     1.3878776665    -0.0001114470
    4      C      -1.0855532526     0.9369315051    -0.0000281550
    5      O      -2.0019596374     1.7444402860     0.0000521417
    6      C      -1.3628647167    -0.5374043960    -0.0000323877
    7      C      -0.3221279662    -1.3878861030     0.0000699870
    8      C       1.0855486598    -0.9369253909     0.0000516839
    9      O       2.0019568474    -1.7444455764    -0.0000776810
   10      C      -2.7979082701    -0.9638912628    -0.0000123876
   11      H       2.8842719047     2.0510566881     0.0002979689
   12      H       3.3175607891     0.5629026024    -0.8745648625
   13      H       3.3177077983     0.5625028119     0.8743865293
   14      H       0.4599011874     2.4644345463    -0.0001723749
   15      H      -0.4598586193    -2.4644448222     0.0000791466
   16      H      -3.3176758609    -0.5626475763    -0.8744531903
   17      H      -2.8843025132    -2.0510385002    -0.0000366199
   18      H      -3.3175690697    -0.5626731491     0.8745048808
 ----------------------------------------------------------------

    9    -460.2266608525      1.56e-06  Convergence criterion met
 Total energy in the final basis set =     -460.2266608525
    4    -460.2398407635      6.03e-06  Convergence criterion met
 Total energy in the final basis set =     -460.2398407635

                    Orbital Energies (a.u.)
 --------------------------------------------------------------

 Alpha MOs
 -- Occupied --
-19.1417 -19.1417 -10.2848 -10.2848 -10.2187 -10.2186 -10.2005 -10.2005
-10.1747 -10.1747  -1.0732  -1.0715  -0.8660  -0.8170  -0.7366  -0.7247
 -0.6642  -0.6256  -0.5784  -0.5313  -0.4973  -0.4824  -0.4621  -0.4483
 -0.4373  -0.4362  -0.4251  -0.4089  -0.4038  -0.4004  -0.3946  -0.3856
 -0.3048  -0.2923  -0.2830  -0.2789

          Ground-State Mulliken Net Atomic Charges

     Atom                 Charge (a.u.)
  ----------------------------------------
      1 C                    -0.392634
      2 C                     1.226641
      3 C                    -0.637690
      4 C                    -0.692534
      5 O                    -0.302141
      6 C                     1.226411
      7 C                    -0.637861
      8 C                    -0.693061
      9 O                    -0.302090
     10 C                    -0.392508
     11 H                     0.177984
     12 H                     0.197729
     13 H                     0.197687
     14 H                     0.225348
     15 H                     0.225360
     16 H                     0.197703
     17 H                     0.177955
     18 H                     0.197700
  ----------------------------------------
  Sum of atomic charges =     0.000000

                    Cartesian Multipole Moments
 -----------------------------------------------------------------
    Charge (ESU x 10^10)
                 0.0000
    Dipole Moment (Debye)
         X      -0.0003      Y       0.0005      Z      -0.0001
       Tot       0.0006
    Quadrupole Moments (Debye-Ang)
        XX     -62.2421     XY      17.2244     YY     -63.9762
        XZ       0.0012     YZ      -0.0008     ZZ     -58.2427

 Total job time:  17.21s(wall), 123.52s(cpu)
        *  Thank you very much for using Q-Chem.  Have a nice day.  *
