 Gaussian 16, Revision A.03,
 Gaussian 16:  ES64L-G16RevA.03 25-Dec-2016

 --------------------------------------
 #P UB3LYP/6-311++G(d,p) nosym opt freq
 --------------------------------------

 --------
 Oxidized
 --------
 Symbolic Z-matrix:
 Charge =  0 Multiplicity = 1

 SCF Done:  E(UB3LYP) =  -460.226575905     A.U. after   14 cycles
 Optimization completed.
    -- Stationary point found.
 Normal termination of Gaussian 16 at Sat Jan  6 05:38:31 2024.

 ----------------------------------------------------------------------
 #P Geom=AllCheck Guess=TCheck SCRF=Check GenChk UB3LYP/6-311++G(d,p) F
 req
 ----------------------------------------------------------------------

 Structure from the checkpoint file:  "038.chk"
 --------
 Oxidized
 --------
 Charge =  0 Multiplicity = 1

                          Input orientation:
 ---------------------------------------------------------------------
 Center     Atomic      Atomic             Coordinates (Angstroms)
 Number     Number       Type             X           Y           Z
 ---------------------------------------------------------------------
      1          6           0        2.947141    0.256164   -0.077620
      2          6           0        1.463243    0.071262   -0.006583
      3          6           0        0.859942   -0.977301    0.579091
      4          6           0       -0.608970   -1.133059    0.633715
      5          8           0       -1.116293   -2.102687    1.176224
      6          6           0       -1.463248   -0.071241    0.006563
      7          6           0       -0.859944    0.977340   -0.579060
      8          6           0        0.608962    1.133049   -0.633731
      9          8           0        1.116281    2.102711   -1.176203
     10          6           0       -2.947158   -0.256189    0.077601
     11          1           0        3.469263   -0.569825    0.406625
     12          1           0        3.240288    1.195183    0.399990
     13          1           0        3.275753    0.327546   -1.118160
     14          1           0        1.424643   -1.776117    1.049154
     15          1           0       -1.424617    1.776195   -1.049085
     16          1           0       -3.275791   -0.327379    1.118146
     17          1           0       -3.469285    0.569678   -0.406837
     18          1           0       -3.240210   -1.195329   -0.399830
 ---------------------------------------------------------------------

 SCF Done:  E(UB3LYP) =  -460.226575905     A.U. after    1 cycles

 Alpha  occ. eigenvalues --  -19.13850 -19.13849 -10.28361 -10.28360 -10.22402
 Alpha  occ. eigenvalues --  -10.22401 -10.20735 -10.20734 -10.18699 -10.18699
 Alpha  occ. eigenvalues --   -1.06960  -1.06762  -0.87143  -0.82486  -0.74612
 Alpha  occ. eigenvalues --   -0.73038  -0.67104  -0.63128  -0.58281  -0.53483
 Alpha  occ. eigenvalues --   -0.49711  -0.48209  -0.46674  -0.44995  -0.44343
 Alpha  occ. eigenvalues --   -0.44249  -0.43292  -0.41080  -0.41008  -0.40605
 Alpha  occ. eigenvalues --   -0.40518  -0.39335  -0.30636  -0.29101  -0.28776
 Alpha  occ. eigenvalues --   -0.27638
 Alpha virt. eigenvalues --   -0.13281  -0.03006  -0.01159  -0.00383  -0.00295
 Alpha virt. eigenvalues --    0.01333   0.02271   0.02592   0.02975   0.03866
 Alpha virt. eigenvalues --    0.05162   0.05529   0.05995   0.06515   0.07926

  Beta  occ. eigenvalues --  -19.13850 -19.13849 -10.28361 -10.28360 -10.22402
  Beta  occ. eigenvalues --  -10.22401 -10.20735 -10.20734 -10.18699 -10.18699
  Beta  occ. eigenvalues --   -1.06960  -1.06762  -0.87143  -0.82486  -0.74612
  Beta  occ. eigenvalues --   -0.73038  -0.67104  -0.63128  -0.58281  -0.53483
  Beta  occ. eigenvalues --   -0.49711  -0.48209  -0.46674  -0.44995  -0.44343
  Beta  occ. eigenvalues --   -0.44249  -0.43292  -0.41080  -0.41008  -0.40605
  Beta  occ. eigenvalues --   -0.40518  -0.39335  -0.30636  -0.29101  -0.28776
  Beta  occ. eigenvalues --   -0.27638
  Beta virt. eigenvalues --   -0.13281  -0.03006  -0.01159  -0.00383  -0.00295
  Beta virt. eigenvalues --    0.01333   0.02271   0.02592   0.02975   0.03866
  Beta virt. eigenvalues --    0.05162   0.05529   0.05995   0.06515   0.07926

 Mulliken charges and spin densities:
               1          2
     1  C   -0.342007  -0.000000
     2  C    1.216407  -0.000000
     3  C   -0.569533   0.000000
     4  C   -0.802696   0.000000
     5  O   -0.215365  -0.000000
     6  C    1.216398  -0.000000
     7  C   -0.569583  -0.000000
     8  C   -0.802734   0.000000
     9  O   -0.215372  -0.000000
    10  C   -0.341990   0.000000
    11  H    0.152700   0.000000
    12  H    0.185433  -0.000000
    13  H    0.185420  -0.000000
    14  H    0.189685   0.000000
    15  H    0.189687   0.000000
    16  H    0.185428  -0.000000
    17  H    0.152698   0.000000
    18  H    0.185424  -0.000000
 Sum of Mulliken charges =  -0.00000   0.00000

 Dipole moment (field-independent basis, Debye):
    X=              0.0000    Y=             -0.0001    Z=              0.0000  Tot=              0.0001
 Quadrupole moment (field-independent basis, Debye-Ang):
   XX=            -51.3637   YY=            -69.7820   ZZ=            -61.9586
   XY=             -7.1971   XZ=              4.2810   YZ=              6.3099

  Exact polarizability: 118.920  21.747 109.040 -11.029 -28.258  74.638
 Approx polarizability: 161.812  60.700 210.056 -33.032 -67.219 127.694

                      1                      2                      3
                      A                      A                      A
 Frequencies --     68.7887               126.0797               129.4129
 Red. masses --      5.9566                 1.2657                 1.3334
 Frc consts  --      0.0166                 0.0119                 0.0132
 IR Inten    --     10.8613                 0.0000                 0.0006

                      4                      5                      6
                      A                      A                      A
 Frequencies --    159.4946               184.7222               278.4947
 Red. masses --      2.0222                 2.5164                 2.6707
 Frc consts  --      0.0303                 0.0506                 0.1220
 IR Inten    --      1.3285                 0.0000                 1.7408

                      7                      8                      9
                      A                      A                      A
 Frequencies --    292.9646               350.3382               392.8173
 Red. masses --      3.6270                 3.7586                 2.9329
 Frc consts  --      0.1834                 0.2718                 0.2666
 IR Inten    --      0.0000                 0.0000                 1.3883

                     10                     11                     12
                      A                      A                      A
 Frequencies --    401.7281               403.0429               493.6261
 Red. masses --      5.6737                 9.8831                 9.1145
 Frc consts  --      0.5395                 0.9459                 1.3085
 IR Inten    --      0.0000                24.7889                 0.0000

                     13                     14                     15
                      A                      A                      A
 Frequencies --    615.6634               664.9958               668.6212
 Red. masses --      3.6967                 6.2104                 3.1195
 Frc consts  --      0.8256                 1.6181                 0.8217
 IR Inten    --      0.0000                 0.0000                 4.3218

                     16                     17                     18
                      A                      A                      A
 Frequencies --    709.3162               779.6674               801.1292
 Red. masses --      5.3304                 6.5251                 2.7219
 Frc consts  --      1.5801                 2.3370                 1.0293
 IR Inten    --      3.5959                 0.0000                 7.0994

                     19                     20                     21
                      A                      A                      A
 Frequencies --    863.6133               931.2337              1015.7132
 Red. masses --      1.2213                 1.5749                 1.7006
 Frc consts  --      0.5367                 0.8047                 1.0337
 IR Inten    --      0.0000                41.6481                37.4282

                     22                     23                     24
                      A                      A                      A
 Frequencies --   1024.7009              1052.1572              1060.9526
 Red. masses --      1.5814                 1.4975                 1.5456
 Frc consts  --      0.9783                 0.9768                 1.0250
 IR Inten    --      0.0000                 0.0000                 4.3488

                     25                     26                     27
                      A                      A                      A
 Frequencies --   1097.2616              1170.4543              1236.0122
 Red. masses --      4.3888                 2.4464                 1.4777
 Frc consts  --      3.1133                 1.9746                 1.3301
 IR Inten    --      0.0000                56.4499                 0.0000

                     28                     29                     30
                      A                      A                      A
 Frequencies --   1258.8563              1360.6509              1369.8414
 Red. masses --      4.1063                 2.1053                 3.0915
 Frc consts  --      3.8340                 2.2965                 3.4179
 IR Inten    --     93.2206                37.8477                 0.0002

                     31                     32                     33
                      A                      A                      A
 Frequencies --   1414.8574              1417.1009              1466.8472
 Red. masses --      1.2717                 1.3369                 1.0433
 Frc consts  --      1.4999                 1.5818                 1.3226
 IR Inten    --     22.1533                 0.0006                 0.0020

                     34                     35                     36
                      A                      A                      A
 Frequencies --   1467.0897              1479.0168              1479.2471
 Red. masses --      1.0431                 1.0641                 1.0743
 Frc consts  --      1.3227                 1.3714                 1.3850
 IR Inten    --     18.0744                 0.0014                21.5100

                     37                     38                     39
                      A                      A                      A
 Frequencies --   1662.8139              1691.8926              1715.5945
 Red. masses --      7.3141                 9.9321                11.7476
 Frc consts  --     11.9151                16.7508                20.3718
 IR Inten    --     78.5025                 0.0001               488.3291

                     40                     41                     42
                      A                      A                      A
 Frequencies --   1721.7322              3036.2455              3036.2848
 Red. masses --      8.4840                 1.0357                 1.0357
 Frc consts  --     14.8178                 5.6254                 5.6255
 IR Inten    --      0.0028                15.5430                 0.1470

                     43                     44                     45
                      A                      A                      A
 Frequencies --   3087.0668              3087.1361              3121.2844
 Red. masses --      1.0987                 1.0987                 1.1033
 Frc consts  --      6.1690                 6.1693                 6.3328
 IR Inten    --      0.0567                11.5444                21.5323

                     46                     47                     48
                      A                      A                      A
 Frequencies --   3121.3993              3169.9524              3171.7453
 Red. masses --      1.1033                 1.0919                 1.0921
 Frc consts  --      6.3336                 6.4644                 6.4730
 IR Inten    --      0.6000                10.0176                 0.0003

 - Thermochemistry -
 -------------------
 Temperature   298.150 Kelvin.  Pressure   1.00000 Atm.
 Atom     1 has atomic number  6 and mass  12.00000

 Molecular mass:   136.05243 amu.
 Principal axes and moments of inertia in atomic units:
                           1         2         3
     Eigenvalues --   775.085161635.532732388.60028
           X            0.87296  -0.48736  -0.02029
           Y            0.43196   0.75306   0.49630
           Z           -0.22659  -0.44202   0.86791
 This molecule is an asymmetric top.
 Rotational symmetry number  1.
 Warning -- assumption of classical behavior for rotation
           may cause significant error
 Rotational temperatures (Kelvin)      0.11175     0.05296     0.03626
 Rotational constants (GHZ):           2.32844     1.10346     0.75556
 Zero-point vibrational energy     366713.2 (Joules/Mol)
                                   87.64656 (Kcal/Mol)
 Warning -- explicit consideration of  13 degrees of freedom as
           vibrations may cause significant error
 Vibrational temperatures:     98.97   181.40   186.20   229.48   265.77
          (Kelvin)            400.69   421.51   504.06   565.18   578.00
                              579.89   710.22   885.80   956.78   962.00
                             1020.55  1121.77  1152.65  1242.55  1339.84
                             1461.38  1474.32  1513.82  1526.47  1578.71
                             1684.02  1778.35  1811.21  1957.67  1970.90
                             2035.66  2038.89  2110.47  2110.81  2127.98
                             2128.31  2392.42  2434.26  2468.36  2477.19
                             4368.48  4368.54  4441.60  4441.70  4490.83
                             4491.00  4560.85  4563.43

 Zero-point correction=                           0.139674 (Hartree/Particle)
 Thermal correction to Energy=                    0.149324
 Thermal correction to Enthalpy=                  0.150269
 Thermal correction to Gibbs Free Energy=         0.104833
 Sum of electronic and zero-point Energies=           -460.086902
 Sum of electronic and thermal Energies=              -460.077252
 Sum of electronic and thermal Enthalpies=            -460.076307
 Sum of electronic and thermal Free Energies=         -460.121743

                     E (Thermal)             CV                S
                      KCal/Mol        Cal/Mol-Kelvin    Cal/Mol-Kelvin
 Total                   93.702             35.257             95.627
 Electronic               0.000              0.000              0.000
 Translational            0.889              2.981             40.636
 Rotational               0.889              2.981             29.494
 Vibrational             91.925             29.295             25.497
 Vibration     1          0.598              1.969              4.188
 Vibration     2          0.611              1.927              3.005
 Vibration     3          0.612              1.924              2.955
 Vibration     4          0.621              1.892              2.556
 Vibration     5          0.631              1.861              2.280
 Vibration     6          0.679              1.713              1.543
 Vibration     7          0.688              1.687              1.457
 Vibration     8          0.727              1.575              1.165
 Vibration     9          0.760              1.486              0.989
 Vibration    10          0.767              1.466              0.956
 Vibration    11          0.768              1.464              0.952
 Vibration    12          0.849              1.264              0.674
 Vibration    13          0.975              0.999              0.423

 Optimization completed.
    -- Stationary point found.
 Normal termination of Gaussian 16 at Sat Jan  6 05:51:58 2024.
