 Q-Chem 5.4, Q-Chem, Inc., Pleasanton, CA (2021)
 Q-Chem 5.4.0 for Intel X86 EM64T Linux

User input:
--------------------------------------------------------------
$molecule
-1 2
O                  0.0022440000     -2.5336490000     -0.4294580000
C                  0.0324690000     -1.2932110000     -0.2186530000
C                  1.3208560000     -0.6374100000     -0.0649950000
C                  2.4484120000     -1.5187760000     -0.1687140000
C                  3.7505330000     -1.1039780000     -0.0541700000
C                  4.0416220000      0.2674520000      0.1794540000
C                  2.9879240000      1.1483540000      0.2847370000
C                  1.6239410000      0.7627630000      0.1734000000
C                  0.6776180000      1.8182710000      0.3086270000
C                 -0.6877130000      1.8234660000      0.2633360000
C                 -1.6415800000      0.7520550000      0.0653220000
C                 -3.0049760000      1.1362410000      0.0886560000
C                 -4.0495740000      0.2311820000     -0.0845360000
C                 -3.7532590000     -1.1089980000     -0.2900540000
C                 -2.4124060000     -1.5122820000     -0.3181480000
C                 -1.3403060000     -0.6256960000     -0.1469580000
H                  2.2199570000     -2.5612440000     -0.3468780000
H                  4.5576480000     -1.8259690000     -0.1424540000
H                  5.0658430000      0.6142200000      0.2726050000
H                  3.1924000000      2.2015230000      0.4628270000
H                  1.1297760000      2.7942700000      0.4787540000
H                 -1.1529120000      2.7969780000      0.4020590000
H                 -3.2332460000      2.1859370000      0.2496930000
H                 -5.0787150000      0.5784550000     -0.0576870000
H                 -4.5439290000     -1.8399710000     -0.4286420000
H                 -2.1526300000     -2.5499850000     -0.4781230000
$end
$rem
MAX_SCF_CYCLES=200
BASIS  =  6-311++G(d,p)
GUI  =  2
JOB_TYPE  =  SP
METHOD  =  B3LYP
SOLVENT_METHOD = COSMO
$end
$solvent
dielectric 37.219
opticaldielectric 1.43
$end

--------------------------------------------------------------

             Standard Nuclear Orientation (Angstroms)
    I     Atom           X                Y                Z
 ----------------------------------------------------------------
    1      O       0.0164500713    -2.4096148006     0.0164913418
    2      C      -0.0236209114    -1.1516943376     0.0081753554
    3      C      -1.3179086313    -0.4895704834     0.0020033158
    4      C      -2.4393521518    -1.3847230498    -0.0015326467
    5      C      -3.7455099603    -0.9668529678    -0.0072929754
    6      C      -4.0473686597     0.4220357093    -0.0089639993
    7      C      -2.9997938624     1.3164189869    -0.0047312805
    8      C      -1.6319819510     0.9283622088     0.0006056859
    9      C      -0.6931231824     1.9990715999     0.0066316675
   10      C       0.6729409687     2.0073325939     0.0093690290
   11      C       1.6353421752     0.9253255532     0.0032037628
   12      C       2.9963237080     1.3186494584    -0.0009895527
   13      C       4.0481970711     0.4055077516    -0.0078375573
   14      C       3.7619759525    -0.9525029710    -0.0104849265
   15      C       2.4237262133    -1.3652685319    -0.0053612136
   16      C       1.3444754504    -0.4708906924     0.0013643075
   17      H      -2.2026958861    -2.4404999340     0.0000834385
   18      H      -4.5475716462    -1.6997827287    -0.0105655225
   19      H      -5.0749140518     0.7714439726    -0.0132236025
   20      H      -3.2125078322     2.3829291161    -0.0053113961
   21      H      -1.1529424697     2.9862510030     0.0093056819
   22      H       1.1310174348     2.9940064775     0.0138849010
   23      H       3.2166875703     2.3822927426     0.0011394951
   24      H       5.0750762011     0.7604165217    -0.0109392436
   25      H       4.5585079744    -1.6902003948    -0.0156286866
   26      H       2.1718087622    -2.4171433404    -0.0056296307
 ----------------------------------------------------------------

   12    -653.0319138660      7.73e-06  Convergence criterion met
 Total energy in the final basis set =     -653.0319138660
    6    -653.1118535483      7.20e-06  Convergence criterion met
 Total energy in the final basis set =     -653.1118535483

                    Orbital Energies (a.u.)
 --------------------------------------------------------------

 Alpha MOs
 -- Occupied --
-19.0559 -10.2127 -10.1835 -10.1753 -10.1708 -10.1665 -10.1657 -10.1641
-10.1636 -10.1633 -10.1625 -10.1616 -10.1608 -10.1557 -10.1555 -10.1527
 -0.9905  -0.8551  -0.8438  -0.7922  -0.7526  -0.7470  -0.7380  -0.7072
 -0.6397  -0.6302  -0.5897  -0.5815  -0.5529  -0.5426  -0.4932  -0.4795
 -0.4685  -0.4539  -0.4417  -0.4241  -0.4125  -0.4067  -0.4032  -0.4026
 -0.3925  -0.3704  -0.3656  -0.3507  -0.3460  -0.3364  -0.3288  -0.3195
 -0.3107  -0.2654  -0.2507  -0.2465  -0.2298  -0.2098  -0.1080

 Beta MOs
 -- Occupied --
-19.0520 -10.2093 -10.1840 -10.1756 -10.1683 -10.1675 -10.1654 -10.1637
-10.1636 -10.1630 -10.1621 -10.1613 -10.1592 -10.1548 -10.1527 -10.1514
 -0.9828  -0.8530  -0.8412  -0.7898  -0.7503  -0.7434  -0.7349  -0.7049
 -0.6339  -0.6276  -0.5876  -0.5802  -0.5508  -0.5393  -0.4912  -0.4784
 -0.4673  -0.4525  -0.4401  -0.4228  -0.4112  -0.4058  -0.4008  -0.3910
 -0.3905  -0.3697  -0.3593  -0.3448  -0.3351  -0.3350  -0.3276  -0.3185
 -0.3037  -0.2584  -0.2442  -0.2336  -0.2262  -0.2005

          Ground-State Mulliken Net Atomic Charges

     Atom                 Charge (a.u.)    Spin (a.u.)
  --------------------------------------------------------
      1 O                    -0.506579       0.161224
      2 C                    -0.332270       0.213688
      3 C                     0.366931       0.027150
      4 C                     0.028455       0.153517
      5 C                    -0.377754      -0.043428
      6 C                    -0.465175       0.227414
      7 C                    -0.239655      -0.112687
      8 C                    -0.159521       0.159985
      9 C                    -0.229812      -0.094007
     10 C                    -0.304623       0.192683
     11 C                    -0.013705      -0.059386
     12 C                    -0.253097       0.075159
     13 C                    -0.413850       0.026959
     14 C                    -0.391125       0.044649
     15 C                     0.118271       0.093319
     16 C                     0.397796      -0.024087
     17 H                     0.171993      -0.008245
     18 H                     0.189088       0.001835
     19 H                     0.183737      -0.015890
     20 H                     0.159942       0.006174
     21 H                     0.168155       0.005468
     22 H                     0.168283      -0.012429
     23 H                     0.165684      -0.006310
     24 H                     0.192769      -0.001635
     25 H                     0.194445      -0.003295
     26 H                     0.181615      -0.007825
  --------------------------------------------------------
  Sum of atomic charges =    -1.000000

                    Cartesian Multipole Moments
 -----------------------------------------------------------------
    Charge (ESU x 10^10)
                -4.8032
    Dipole Moment (Debye)
         X       1.3568      Y       6.4204      Z      -0.0454
       Tot       6.5624
    Quadrupole Moments (Debye-Ang)
        XX    -102.4769     XY      -0.1153     YY    -108.2685
        XZ      -0.0060     YZ       0.1531     ZZ    -104.7407

 Total job time:  90.29s(wall), 685.82s(cpu)
        *  Thank you very much for using Q-Chem.  Have a nice day.  *
