 Gaussian 16, Revision A.03,
 Gaussian 16:  ES64L-G16RevA.03 25-Dec-2016

 ----------------------------------------------------------------------
 #P UB3LYP/6-311++G(d,p) nosym opt freq SCRF=(PCM,Solvent=n,n-DiMethylF
 ormamide)
 ----------------------------------------------------------------------

 -------
 Radical
 -------
 Symbolic Z-matrix:
 Charge = -1 Multiplicity = 2

 SCF Done:  E(UB3LYP) =  -798.882656943     A.U. after   21 cycles
 SCF Done:  E(UB3LYP) =  -798.883643453     A.U. after   17 cycles
 SCF Done:  E(UB3LYP) =  -798.883940507     A.U. after   16 cycles
 SCF Done:  E(UB3LYP) =  -798.884000218     A.U. after   15 cycles
 SCF Done:  E(UB3LYP) =  -798.884117563     A.U. after   14 cycles
 SCF Done:  E(UB3LYP) =  -798.884204148     A.U. after   14 cycles
 SCF Done:  E(UB3LYP) =  -798.884230571     A.U. after   15 cycles
 SCF Done:  E(UB3LYP) =  -798.884244610     A.U. after   12 cycles
 SCF Done:  E(UB3LYP) =  -798.884258950     A.U. after   12 cycles
 SCF Done:  E(UB3LYP) =  -798.884268608     A.U. after   12 cycles
 SCF Done:  E(UB3LYP) =  -798.884275006     A.U. after   13 cycles
 SCF Done:  E(UB3LYP) =  -798.884279314     A.U. after   12 cycles
 SCF Done:  E(UB3LYP) =  -798.884282587     A.U. after   12 cycles
 SCF Done:  E(UB3LYP) =  -798.884284261     A.U. after   12 cycles
 SCF Done:  E(UB3LYP) =  -798.884284430     A.U. after   10 cycles
 SCF Done:  E(UB3LYP) =  -798.884284452     A.U. after   10 cycles
 SCF Done:  E(UB3LYP) =  -798.884284499     A.U. after   10 cycles
 SCF Done:  E(UB3LYP) =  -798.884284505     A.U. after    7 cycles
 SCF Done:  E(UB3LYP) =  -798.884284510     A.U. after    8 cycles
 Optimization completed.
    -- Stationary point found.
 Normal termination of Gaussian 16 at Sun Feb 11 02:16:11 2024.

 ----------------------------------------------------------------------
 #P Geom=AllCheck Guess=TCheck SCRF=Check GenChk UB3LYP/6-311++G(d,p) F
 req
 ----------------------------------------------------------------------

 Structure from the checkpoint file:  "275-rad.chk"
 -------
 Radical
 -------
 Charge = -1 Multiplicity = 2

                          Input orientation:
 ---------------------------------------------------------------------
 Center     Atomic      Atomic             Coordinates (Angstroms)
 Number     Number       Type             X           Y           Z
 ---------------------------------------------------------------------
      1          6           0        0.265598   -0.514857   -0.098799
      2          6           0       -0.307668   -1.683454   -0.567852
      3          6           0       -1.724555   -1.867958   -0.634451
      4          8           0       -2.238481   -2.942238   -1.069062
      5          6           0       -2.569420   -0.751132   -0.174314
      6          6           0       -3.972149   -0.860015   -0.206295
      7          6           0       -4.781698    0.179384    0.221132
      8          6           0       -4.200053    1.369490    0.697848
      9          6           0       -2.823571    1.499268    0.739364
     10          6           0       -1.981316    0.450837    0.308346
     11          6           0       -0.534634    0.608352    0.362125
     12          8           0        0.033163    1.664698    0.786942
     13          1           0        0.321696   -2.496145   -0.899580
     14          1           0       -4.404014   -1.782544   -0.575569
     15          1           0       -5.861076    0.078167    0.189360
     16          1           0       -4.832414    2.184748    1.032738
     17          1           0       -2.364504    2.410157    1.104475
     18          7           0        1.633528   -0.255374   -0.005439
     19          6           0        2.709089   -1.055055   -0.333532
     20          7           0        3.925195   -0.473811   -0.093135
     21          6           0        5.163409   -1.122297   -0.498165
     22          8           0        2.606254   -2.197923   -0.784658
     23          1           0        1.798790    0.670959    0.379884
     24          1           0        3.963936    0.509203    0.127473
     25          1           0        5.219989   -2.128600   -0.081088
     26          1           0        5.997517   -0.537864   -0.111398
     27          1           0        5.256537   -1.193143   -1.586834
 ---------------------------------------------------------------------

 SCF Done:  E(UB3LYP) =  -798.884284510     A.U. after    1 cycles

 Alpha  occ. eigenvalues --  -19.09043 -19.08284 -19.07236 -14.34454 -14.33730
 Alpha  occ. eigenvalues --  -10.30389 -10.22462 -10.22227 -10.21482 -10.20000
 Alpha  occ. eigenvalues --  -10.17570 -10.17322 -10.17319 -10.17231 -10.17114
 Alpha  occ. eigenvalues --  -10.17047 -10.15380  -1.05575  -1.00732  -0.99307
 Alpha  occ. eigenvalues --   -0.94216  -0.91487  -0.85837  -0.80022  -0.75094
 Alpha  occ. eigenvalues --   -0.74487  -0.71044  -0.67535  -0.63041  -0.62093
 Alpha  occ. eigenvalues --   -0.58731  -0.57168  -0.56028  -0.52644  -0.49545
 Alpha  occ. eigenvalues --   -0.48654  -0.46667  -0.46387  -0.45016  -0.43723
 Alpha  occ. eigenvalues --   -0.43211  -0.42819  -0.42284  -0.41309  -0.40421
 Alpha  occ. eigenvalues --   -0.40386  -0.39511  -0.38799  -0.37802  -0.35577
 Alpha  occ. eigenvalues --   -0.35545  -0.33843  -0.31880  -0.27917  -0.26944
 Alpha  occ. eigenvalues --   -0.26264  -0.25741  -0.25406  -0.23858  -0.22765
 Alpha  occ. eigenvalues --   -0.15152
 Alpha virt. eigenvalues --   -0.03482  -0.01624  -0.00647   0.00170   0.01166
 Alpha virt. eigenvalues --    0.01651   0.02177   0.03421   0.03590   0.03740
 Alpha virt. eigenvalues --    0.04026   0.04802   0.04934   0.05471   0.05676

  Beta  occ. eigenvalues --  -19.09021 -19.07648 -19.06684 -14.34420 -14.33718
  Beta  occ. eigenvalues --  -10.30388 -10.22200 -10.22102 -10.21353 -10.20001
  Beta  occ. eigenvalues --  -10.17552 -10.17315 -10.17225 -10.17162 -10.17073
  Beta  occ. eigenvalues --  -10.17065 -10.15299  -1.05526  -0.99677  -0.98335
  Beta  occ. eigenvalues --   -0.94062  -0.91375  -0.85630  -0.79577  -0.74892
  Beta  occ. eigenvalues --   -0.74323  -0.70886  -0.66794  -0.62815  -0.61928
  Beta  occ. eigenvalues --   -0.58629  -0.57021  -0.55833  -0.52451  -0.49376
  Beta  occ. eigenvalues --   -0.48353  -0.46519  -0.46234  -0.44953  -0.43668
  Beta  occ. eigenvalues --   -0.43033  -0.42216  -0.41943  -0.40945  -0.39985
  Beta  occ. eigenvalues --   -0.39733  -0.39488  -0.38524  -0.35608  -0.35440
  Beta  occ. eigenvalues --   -0.34706  -0.33712  -0.30602  -0.27864  -0.26539
  Beta  occ. eigenvalues --   -0.25089  -0.24829  -0.24698  -0.23338  -0.21835
  Beta virt. eigenvalues --   -0.08686  -0.02708  -0.00683  -0.00589   0.00176
  Beta virt. eigenvalues --    0.01184   0.01669   0.02181   0.03431   0.03613
  Beta virt. eigenvalues --    0.03927   0.04437   0.04954   0.04992   0.05679

 Mulliken charges and spin densities:
               1          2
     1  C    0.461992   0.087667
     2  C    0.193135   0.053739
     3  C   -0.229038   0.074378
     4  O   -0.503745   0.198335
     5  C    0.659666   0.072145
     6  C    0.138454   0.001371
     7  C   -0.340200   0.060431
     8  C   -0.433914   0.004417
     9  C    0.085507   0.073122
    10  C   -0.280746  -0.031787
    11  C   -1.260681   0.164658
    12  O   -0.473186   0.240396
    13  H    0.235345  -0.006713
    14  H    0.158385  -0.000729
    15  H    0.182527  -0.004232
    16  H    0.181009  -0.000807
    17  H    0.170055  -0.003826
    18  N   -0.273307   0.009581
    19  C    0.127626  -0.000134
    20  N   -0.222009   0.004010
    21  C   -0.254905  -0.000700
    22  O   -0.472785   0.007173
    23  H    0.361743  -0.003245
    24  H    0.283600   0.000004
    25  H    0.174419   0.000224
    26  H    0.153016  -0.000036
    27  H    0.178036   0.000558
 Sum of Mulliken charges =  -1.00000   1.00000

 Dipole moment (field-independent basis, Debye):
    X=              7.3976    Y=              8.5351    Z=              2.4034  Tot=             11.5477
 Quadrupole moment (field-independent basis, Debye-Ang):
   XX=            -95.6147   YY=           -140.3756   ZZ=           -110.5144
   XY=             -6.0347   XZ=             -3.7012   YZ=            -13.3038

  Exact polarizability: 392.997   0.630 292.604  -2.889  66.099 157.484
 Approx polarizability: 393.802  19.604 345.311   5.639  80.336 180.101

                      1                      2                      3
                      A                      A                      A
 Frequencies --     30.0757                42.1384                77.7141
 Red. masses --      4.9787                 4.7597                 1.7540
 Frc consts  --      0.0027                 0.0050                 0.0062
 IR Inten    --      3.6293                18.4954                 4.6273

                      4                      5                      6
                      A                      A                      A
 Frequencies --     95.0550                98.5697               129.2476
 Red. masses --      4.0717                 2.8785                 3.4701
 Frc consts  --      0.0217                 0.0165                 0.0342
 IR Inten    --     11.4852                15.0746                17.1891

                      7                      8                      9
                      A                      A                      A
 Frequencies --    130.9957               180.2873               236.7802
 Red. masses --      3.4455                 7.2776                 4.5843
 Frc consts  --      0.0348                 0.1394                 0.1514
 IR Inten    --      8.1537                 0.9394                 5.0096

                     10                     11                     12
                      A                      A                      A
 Frequencies --    240.8610               253.8906               281.0455
 Red. masses --      5.3986                 5.9067                 4.3979
 Frc consts  --      0.1845                 0.2243                 0.2047
 IR Inten    --      0.1205                 5.5339                32.0829

                     13                     14                     15
                      A                      A                      A
 Frequencies --    316.3778               359.5499               379.7476
 Red. masses --      1.5568                 3.7053                 9.7346
 Frc consts  --      0.0918                 0.2822                 0.8271
 IR Inten    --     86.4917                34.9443                23.1381

                     16                     17                     18
                      A                      A                      A
 Frequencies --    400.8254               445.9492               472.4841
 Red. masses --      4.6287                 4.0787                 9.8837
 Frc consts  --      0.4381                 0.4779                 1.3000
 IR Inten    --      2.3058                 2.4798                 5.6582

                     19                     20                     21
                      A                      A                      A
 Frequencies --    490.3028               511.6130               578.5432
 Red. masses --      8.1218                 3.7958                 6.8951
 Frc consts  --      1.1504                 0.5854                 1.3598
 IR Inten    --      2.2332                 0.8877                25.8446

                     22                     23                     24
                      A                      A                      A
 Frequencies --    641.9599               650.4891               664.7623
 Red. masses --      1.3241                 4.1907                 3.4168
 Frc consts  --      0.3215                 1.0448                 0.8896
 IR Inten    --    155.4039                28.8595                13.9603

                     25                     26                     27
                      A                      A                      A
 Frequencies --    694.2124               714.8073               726.5971
 Red. masses --      5.9542                 3.3421                 6.5781
 Frc consts  --      1.6907                 1.0061                 2.0462
 IR Inten    --     21.6205                46.1523                43.5748

                     28                     29                     30
                      A                      A                      A
 Frequencies --    758.1597               767.4694               780.5051
 Red. masses --      5.5103                 4.9149                 2.2211
 Frc consts  --      1.8662                 1.7056                 0.7972
 IR Inten    --      4.8611                 0.7029                48.7164

                     31                     32                     33
                      A                      A                      A
 Frequencies --    789.3751               841.4917               869.2207
 Red. masses --      2.8475                 4.2724                 1.4783
 Frc consts  --      1.0454                 1.7825                 0.6581
 IR Inten    --     28.1377                 6.7274                53.1313

                     34                     35                     36
                      A                      A                      A
 Frequencies --    884.1415               960.2904               983.0814
 Red. masses --      1.4360                 4.0986                 1.3699
 Frc consts  --      0.6614                 2.2268                 0.7800
 IR Inten    --      0.0795                19.6920                 2.5051

                     37                     38                     39
                      A                      A                      A
 Frequencies --    999.5056              1003.2010              1041.1424
 Red. masses --      1.2877                 4.8741                 2.1163
 Frc consts  --      0.7580                 2.8902                 1.3516
 IR Inten    --      0.0853                21.9573                23.8580

                     40                     41                     42
                      A                      A                      A
 Frequencies --   1097.6184              1122.9431              1143.6746
 Red. masses --      2.9732                 3.4386                 1.7276
 Frc consts  --      2.1104                 2.5548                 1.3313
 IR Inten    --     11.7330                19.3784                74.5921

                     43                     44                     45
                      A                      A                      A
 Frequencies --   1146.5390              1162.3262              1173.2995
 Red. masses --      1.2996                 1.2836                 1.6488
 Frc consts  --      1.0065                 1.0217                 1.3373
 IR Inten    --     33.1576                 0.0994               138.3416

                     46                     47                     48
                      A                      A                      A
 Frequencies --   1212.6429              1232.6325              1248.0100
 Red. masses --      2.0904                 2.0615                 2.3469
 Frc consts  --      1.8111                 1.8454                 2.1537
 IR Inten    --    204.5461               431.5804                68.2206

                     49                     50                     51
                      A                      A                      A
 Frequencies --   1256.5070              1291.5317              1351.0317
 Red. masses --      3.6268                 1.9857                 9.9810
 Frc consts  --      3.3736                 1.9516                10.7338
 IR Inten    --     49.1601               145.2483                 8.3587

                     52                     53                     54
                      A                      A                      A
 Frequencies --   1395.3513              1449.0300              1456.6331
 Red. masses --      3.1906                 1.2600                 3.3238
 Frc consts  --      3.6600                 1.5588                 4.1551
 IR Inten    --     50.4942               305.4263               883.2307

                     55                     56                     57
                      A                      A                      A
 Frequencies --   1466.2760              1473.3643              1500.2874
 Red. masses --      2.8441                 1.0592                 1.2252
 Frc consts  --      3.6027                 1.3548                 1.6248
 IR Inten    --     96.1300                66.4569                39.3217

                     58                     59                     60
                      A                      A                      A
 Frequencies --   1501.0669              1513.9597              1531.1906
 Red. masses --      4.3541                 4.1886                 2.4414
 Frc consts  --      5.7803                 5.6565                 3.3725
 IR Inten    --    869.6231               535.1993              1594.7087

                     61                     62                     63
                      A                      A                      A
 Frequencies --   1546.5352              1560.2587              1617.0970
 Red. masses --      1.6322                 4.0248                 6.1586
 Frc consts  --      2.3001                 5.7728                 9.4886
 IR Inten    --    142.1165               178.7518                11.0514

                     64                     65                     66
                      A                      A                      A
 Frequencies --   1628.1877              1685.2372              3021.1676
 Red. masses --      5.8945                 5.9030                 1.0449
 Frc consts  --      9.2067                 9.8775                 5.6191
 IR Inten    --      2.5629               446.8552                94.1918

                     67                     68                     69
                      A                      A                      A
 Frequencies --   3089.6282              3132.5743              3159.0353
 Red. masses --      1.0918                 1.1028                 1.0859
 Frc consts  --      6.1407                 6.3760                 6.3848
 IR Inten    --     38.6607                23.0491                 9.1523

                     70                     71                     72
                      A                      A                      A
 Frequencies --   3172.5933              3186.1421              3190.5346
 Red. masses --      1.0898                 1.0924                 1.0949
 Frc consts  --      6.4631                 6.5338                 6.5667
 IR Inten    --     18.7587                19.7643                37.9529

                     73                     74                     75
                      A                      A                      A
 Frequencies --   3221.1523              3498.3188              3629.8104
 Red. masses --      1.0898                 1.0759                 1.0782
 Frc consts  --      6.6624                 7.7582                 8.3698
 IR Inten    --      4.1500               137.5322                71.3910

 - Thermochemistry -
 -------------------
 Temperature   298.150 Kelvin.  Pressure   1.00000 Atm.
 Atom     1 has atomic number  6 and mass  12.00000

 Molecular mass:   230.06914 amu.
 Principal axes and moments of inertia in atomic units:
                           1         2         3
     Eigenvalues --  1585.972137122.510248695.93894
           X            0.98584   0.16732   0.01124
           Y           -0.15093   0.91454  -0.37528
           Z           -0.07307   0.36827   0.92684
 This molecule is an asymmetric top.
 Rotational symmetry number  1.
 Warning -- assumption of classical behavior for rotation
           may cause significant error
 Rotational temperatures (Kelvin)      0.05461     0.01216     0.00996
 Rotational constants (GHZ):           1.13794     0.25339     0.20754
 Zero-point vibrational energy     529865.9 (Joules/Mol)
                                  126.64098 (Kcal/Mol)
 Warning -- explicit consideration of  21 degrees of freedom as
           vibrations may cause significant error
 Vibrational temperatures:     43.27    60.63   111.81   136.76   141.82
          (Kelvin)            185.96   188.47   259.39   340.67   346.55
                              365.29   404.36   455.20   517.31   546.37
                              576.70   641.62   679.80   705.44   736.10
                              832.39   923.64   935.91   956.44   998.82
                             1028.45  1045.41  1090.82  1104.22  1122.97
                             1135.73  1210.72  1250.61  1272.08  1381.64
                             1414.43  1438.07  1443.38  1497.97  1579.23
                             1615.66  1645.49  1649.61  1672.33  1688.12
                             1744.72  1773.48  1795.61  1807.83  1858.23
                             1943.83  2007.60  2084.83  2095.77  2109.64
                             2119.84  2158.58  2159.70  2178.25  2203.04
                             2225.12  2244.86  2326.64  2342.60  2424.68
                             4346.79  4445.29  4507.08  4545.15  4564.65
                             4584.15  4590.47  4634.52  5033.30  5222.49

 Zero-point correction=                           0.201815 (Hartree/Particle)
 Thermal correction to Energy=                    0.216750
 Thermal correction to Enthalpy=                  0.217695
 Thermal correction to Gibbs Free Energy=         0.157884
 Sum of electronic and zero-point Energies=           -798.682469
 Sum of electronic and thermal Energies=              -798.667534
 Sum of electronic and thermal Enthalpies=            -798.666590
 Sum of electronic and thermal Free Energies=         -798.726400

                     E (Thermal)             CV                S
                      KCal/Mol        Cal/Mol-Kelvin    Cal/Mol-Kelvin
 Total                  136.013             55.979            125.881
 Electronic               0.000              0.000              1.377
 Translational            0.889              2.981             42.202
 Rotational               0.889              2.981             32.952
 Vibrational            134.235             50.017             49.350
 Vibration     1          0.594              1.984              5.824
 Vibration     2          0.595              1.980              5.156
 Vibration     3          0.599              1.964              3.948
 Vibration     4          0.603              1.953              3.553
 Vibration     5          0.604              1.950              3.482
 Vibration     6          0.612              1.924              2.957
 Vibration     7          0.612              1.922              2.931
 Vibration     8          0.629              1.866              2.325
 Vibration     9          0.656              1.784              1.827
 Vibration    10          0.658              1.778              1.797
 Vibration    11          0.665              1.756              1.703
 Vibration    12          0.681              1.709              1.527
 Vibration    13          0.703              1.642              1.329
 Vibration    14          0.734              1.556              1.124
 Vibration    15          0.750              1.513              1.040
 Vibration    16          0.767              1.468              0.960
 Vibration    17          0.805              1.370              0.808
 Vibration    18          0.829              1.311              0.731
 Vibration    19          0.846              1.272              0.683
 Vibration    20          0.867              1.224              0.630
 Vibration    21          0.935              1.078              0.488

                           ! Non-Optimized Parameters !
 Normal termination of Gaussian 16 at Sun Feb 11 02:45:44 2024.
