 Gaussian 16, Revision A.03,
 Gaussian 16:  ES64L-G16RevA.03 25-Dec-2016

 --------------------------------------
 #P UB3LYP/6-311++G(d,p) nosym opt freq
 --------------------------------------

 -------
 Reduced
 -------
 Symbolic Z-matrix:
 Charge = -2 Multiplicity = 1

 SCF Done:  E(UB3LYP) =  -991.064928140     A.U. after   50 cycles
 SCF Done:  E(UB3LYP) =  -991.106798129     A.U. after   38 cycles
 SCF Done:  E(UB3LYP) =  -991.126787011     A.U. after   35 cycles
 SCF Done:  E(UB3LYP) =  -991.131862434     A.U. after   42 cycles
 SCF Done:  E(UB3LYP) =  -991.136491862     A.U. after   20 cycles
 SCF Done:  E(UB3LYP) =  -991.136157331     A.U. after   18 cycles
 SCF Done:  E(UB3LYP) =  -991.138062923     A.U. after   19 cycles
 SCF Done:  E(UB3LYP) =  -991.135111780     A.U. after   18 cycles
 SCF Done:  E(UB3LYP) =  -991.139943295     A.U. after   17 cycles
 SCF Done:  E(UB3LYP) =  -991.137360466     A.U. after   16 cycles
 SCF Done:  E(UB3LYP) =  -991.152145597     A.U. after   12 cycles
 SCF Done:  E(UB3LYP) =  -991.152169735     A.U. after   11 cycles
 SCF Done:  E(UB3LYP) =  -991.152187779     A.U. after   11 cycles
 SCF Done:  E(UB3LYP) =  -991.152203392     A.U. after   11 cycles
 SCF Done:  E(UB3LYP) =  -991.152210054     A.U. after   11 cycles
 SCF Done:  E(UB3LYP) =  -991.152213063     A.U. after   10 cycles
 SCF Done:  E(UB3LYP) =  -991.152213904     A.U. after   10 cycles
 SCF Done:  E(UB3LYP) =  -991.152214573     A.U. after    9 cycles
 SCF Done:  E(UB3LYP) =  -991.152214757     A.U. after    9 cycles
 Optimization completed.
    -- Stationary point found.
 Normal termination of Gaussian 16 at Tue Dec 26 23:36:02 2023.

 ----------------------------------------------------------------------
 #P Geom=AllCheck Guess=TCheck SCRF=Check GenChk UB3LYP/6-311++G(d,p) F
 req
 ----------------------------------------------------------------------

 Structure from the checkpoint file:  "264-an.chk"
 -------
 Reduced
 -------
 Charge = -2 Multiplicity = 1

                          Input orientation:
 ---------------------------------------------------------------------
 Center     Atomic      Atomic             Coordinates (Angstroms)
 Number     Number       Type             X           Y           Z
 ---------------------------------------------------------------------
      1          6           0        4.810776   -0.621812    0.186141
      2          6           0        3.472831   -0.368897   -0.525643
      3          8           0        3.452243   -0.214872   -1.761472
      4          8           0        2.602256   -1.563677   -0.011167
      5          6           0        1.261640   -1.394243   -0.121916
      6          6           0        0.408530   -2.469574   -0.301635
      7          6           0       -0.997438   -2.290428   -0.344218
      8          6           0       -1.561615   -1.030684   -0.238834
      9          8           0       -2.899849   -0.841740   -0.347585
     10          6           0       -3.472588    0.369170    0.461541
     11          6           0       -4.810834    0.621725   -0.249847
     12          8           0       -3.451625    0.215486    1.697397
     13          6           0       -0.705304    0.090649   -0.060370
     14          6           0       -1.261593    1.394203    0.057501
     15          8           0       -2.602353    1.563595   -0.053564
     16          6           0       -0.408597    2.469539    0.237305
     17          6           0        0.997407    2.290384    0.280031
     18          6           0        1.561559    1.030646    0.174628
     19          8           0        2.899750    0.841748    0.283637
     20          6           0        0.705275   -0.090730   -0.004025
     21          1           0        5.253787   -1.529161   -0.233352
     22          1           0        5.470938    0.225593   -0.017926
     23          1           0        4.684834   -0.738667    1.264864
     24          1           0        0.836994   -3.462854   -0.399492
     25          1           0       -1.654596   -3.145734   -0.472100
     26          1           0       -4.685465    0.736843   -1.328821
     27          1           0       -5.253085    1.529998    0.168480
     28          1           0       -5.471353   -0.224970   -0.044039
     29          1           0       -0.837094    3.462797    0.335180
     30          1           0        1.654568    3.145666    0.408038
 ---------------------------------------------------------------------

 SCF Done:  E(UB3LYP) =  -991.152214757     A.U. after    1 cycles

 Alpha  occ. eigenvalues --  -18.87550 -18.87547 -18.87547 -18.87546 -18.80079
 Alpha  occ. eigenvalues --  -18.80074 -10.05383 -10.05379  -9.97784  -9.97783
 Alpha  occ. eigenvalues --   -9.97782  -9.97781  -9.93514  -9.93511  -9.93247
 Alpha  occ. eigenvalues --   -9.93202  -9.92804  -9.92803  -9.92758  -9.92757
 Alpha  occ. eigenvalues --   -0.81887  -0.81783  -0.75902  -0.75785  -0.72412
 Alpha  occ. eigenvalues --   -0.72251  -0.61497  -0.56653  -0.52342  -0.50224
 Alpha  occ. eigenvalues --   -0.50012  -0.47412  -0.45417  -0.39586  -0.37730
 Alpha  occ. eigenvalues --   -0.36941  -0.32597  -0.30263  -0.28946  -0.27052
 Alpha  occ. eigenvalues --   -0.25686  -0.25215  -0.21579  -0.21207  -0.20563
 Alpha  occ. eigenvalues --   -0.20412  -0.18971  -0.18677  -0.17960  -0.17552
 Alpha  occ. eigenvalues --   -0.16870  -0.16111  -0.15794  -0.14992  -0.14406
 Alpha  occ. eigenvalues --   -0.14021  -0.13751  -0.12782  -0.12654  -0.11517
 Alpha  occ. eigenvalues --   -0.09754  -0.07433  -0.05591  -0.05328  -0.02201
 Alpha  occ. eigenvalues --   -0.01048  -0.00763   0.00233   0.00848   0.01122
 Alpha  occ. eigenvalues --    0.02563   0.07688
 Alpha virt. eigenvalues --    0.16522   0.16555   0.17632   0.17874   0.19207
 Alpha virt. eigenvalues --    0.20261   0.20284   0.20447   0.20619   0.21608
 Alpha virt. eigenvalues --    0.21795   0.21911   0.23559   0.24706   0.25679

  Beta  occ. eigenvalues --  -18.87550 -18.87547 -18.87547 -18.87546 -18.80079
  Beta  occ. eigenvalues --  -18.80074 -10.05383 -10.05379  -9.97784  -9.97783
  Beta  occ. eigenvalues --   -9.97782  -9.97781  -9.93514  -9.93511  -9.93247
  Beta  occ. eigenvalues --   -9.93202  -9.92804  -9.92803  -9.92758  -9.92757
  Beta  occ. eigenvalues --   -0.81887  -0.81783  -0.75902  -0.75785  -0.72412
  Beta  occ. eigenvalues --   -0.72251  -0.61497  -0.56653  -0.52342  -0.50224
  Beta  occ. eigenvalues --   -0.50012  -0.47412  -0.45417  -0.39586  -0.37730
  Beta  occ. eigenvalues --   -0.36941  -0.32597  -0.30263  -0.28946  -0.27052
  Beta  occ. eigenvalues --   -0.25686  -0.25215  -0.21579  -0.21207  -0.20563
  Beta  occ. eigenvalues --   -0.20412  -0.18971  -0.18677  -0.17960  -0.17552
  Beta  occ. eigenvalues --   -0.16870  -0.16111  -0.15794  -0.14992  -0.14406
  Beta  occ. eigenvalues --   -0.14021  -0.13751  -0.12782  -0.12654  -0.11517
  Beta  occ. eigenvalues --   -0.09754  -0.07433  -0.05591  -0.05328  -0.02201
  Beta  occ. eigenvalues --   -0.01048  -0.00763   0.00233   0.00848   0.01122
  Beta  occ. eigenvalues --    0.02563   0.07688
  Beta virt. eigenvalues --    0.16522   0.16555   0.17632   0.17874   0.19207
  Beta virt. eigenvalues --    0.20261   0.20284   0.20447   0.20619   0.21608
  Beta virt. eigenvalues --    0.21795   0.21911   0.23559   0.24706   0.25679

 Mulliken charges and spin densities:
               1          2
     1  C   -0.361633  -0.000000
     2  C   -0.642723   0.000000
     3  O   -0.339710  -0.000000
     4  O   -0.133611  -0.000000
     5  C   -0.178733   0.000000
     6  C   -0.198906  -0.000000
     7  C   -0.198255  -0.000000
     8  C   -0.179034   0.000000
     9  O   -0.133490  -0.000000
    10  C   -0.643016   0.000000
    11  C   -0.361673  -0.000000
    12  O   -0.339753  -0.000000
    13  C    0.749043  -0.000000
    14  C   -0.178767   0.000000
    15  O   -0.133551  -0.000000
    16  C   -0.198455  -0.000000
    17  C   -0.198453   0.000000
    18  C   -0.179157  -0.000000
    19  O   -0.133458  -0.000000
    20  C    0.749376  -0.000000
    21  H    0.130060   0.000000
    22  H    0.130024  -0.000000
    23  H    0.144477   0.000000
    24  H    0.106211   0.000000
    25  H    0.106224   0.000000
    26  H    0.144438  -0.000000
    27  H    0.130074   0.000000
    28  H    0.129987  -0.000000
    29  H    0.106237  -0.000000
    30  H    0.106228   0.000000
 Sum of Mulliken charges =  -2.00000   0.00000

 Dipole moment (field-independent basis, Debye):
    X=              0.0018    Y=             -0.0008    Z=              0.3084  Tot=              0.3084
 Quadrupole moment (field-independent basis, Debye-Ang):
   XX=           -219.1342   YY=           -139.4760   ZZ=           -146.1137
   XY=              6.7987   XZ=             25.5390   YZ=             -2.2775

  Exact polarizability: 299.603  -6.676 239.741  -5.196  12.653 142.114
 Approx polarizability: 406.555   1.324 415.185   0.945  23.118 227.909

                      1                      2                      3
                      A                      A                      A
 Frequencies --     54.6932                81.0662                89.5091
 Red. masses --      5.0715                 9.8833                 7.5543
 Frc consts  --      0.0089                 0.0383                 0.0357
 IR Inten    --      4.1291                 0.7846                 0.0000

                      4                      5                      6
                      A                      A                      A
 Frequencies --    109.6987               147.7960               180.3612
 Red. masses --      6.8694                 4.8063                 2.0952
 Frc consts  --      0.0487                 0.0619                 0.0402
 IR Inten    --      0.0001                 4.7244                21.7589

                      7                      8                      9
                      A                      A                      A
 Frequencies --    191.7212               200.4942               207.3632
 Red. masses --      1.0605                 1.4705                 7.5497
 Frc consts  --      0.0230                 0.0348                 0.1913
 IR Inten    --      0.0001                16.0255                 1.5715

                     10                     11                     12
                      A                      A                      A
 Frequencies --    237.9770               263.0517               268.7768
 Red. masses --      8.8477                 3.5493                 2.9011
 Frc consts  --      0.2952                 0.1447                 0.1235
 IR Inten    --      0.0002                14.5048                 0.0000

                     13                     14                     15
                      A                      A                      A
 Frequencies --    268.9924               343.7072               368.3386
 Red. masses --      4.4224                 3.9573                 7.6377
 Frc consts  --      0.1885                 0.2754                 0.6105
 IR Inten    --      0.0003                 6.7232                 0.0000

                     16                     17                     18
                      A                      A                      A
 Frequencies --    380.5381               422.7706               443.4149
 Red. masses --      6.5525                 8.0090                 8.2458
 Frc consts  --      0.5591                 0.8434                 0.9552
 IR Inten    --      2.0680                94.1668                 0.0000

                     19                     20                     21
                      A                      A                      A
 Frequencies --    467.1182               480.1973               497.6981
 Red. masses --      3.7798                 5.1044                 9.2072
 Frc consts  --      0.4859                 0.6935                 1.3437
 IR Inten    --      0.0000                 0.0001                 0.0012

                     22                     23                     24
                      A                      A                      A
 Frequencies --    501.0860               519.4736               519.5535
 Red. masses --      8.4516                 6.0205                 4.1439
 Frc consts  --      1.2503                 0.9572                 0.6590
 IR Inten    --     80.0395                97.7461                 0.1509

                     25                     26                     27
                      A                      A                      A
 Frequencies --    548.5118               555.5804               556.4504
 Red. masses --      7.1888                 8.3955                 5.7483
 Frc consts  --      1.2743                 1.5268                 1.0487
 IR Inten    --      0.0004                13.1125                 0.0109

                     28                     29                     30
                      A                      A                      A
 Frequencies --    595.2337               596.6758               602.6861
 Red. masses --      4.1621                 6.5880                 4.3574
 Frc consts  --      0.8688                 1.3819                 0.9325
 IR Inten    --     65.2865               105.6790                 0.0005

                     31                     32                     33
                      A                      A                      A
 Frequencies --    647.8778               664.7138               696.9778
 Red. masses --      5.7799                 3.8879                 3.3035
 Frc consts  --      1.4294                 1.0121                 0.9455
 IR Inten    --      0.0000                 0.1811               122.6548

                     34                     35                     36
                      A                      A                      A
 Frequencies --    706.2617               721.0873               760.8388
 Red. masses --      7.9434                 3.5733                 5.8110
 Frc consts  --      2.3345                 1.0947                 1.9819
 IR Inten    --      0.0001               206.1475                 0.0000

                     37                     38                     39
                      A                      A                      A
 Frequencies --    786.0573               799.4069               807.9399
 Red. masses --      5.5558                 1.6524                 7.2031
 Frc consts  --      2.0226                 0.6222                 2.7703
 IR Inten    --    114.0596                 0.0000                 0.0000

                     40                     41                     42
                      A                      A                      A
 Frequencies --    814.6678               864.9350               872.3483
 Red. masses --      2.0900                 1.4157                 1.3939
 Frc consts  --      0.8173                 0.6240                 0.6250
 IR Inten    --     92.7579                 0.2038                 0.0000

                     43                     44                     45
                      A                      A                      A
 Frequencies --    947.4933               957.7119               972.8498
 Red. masses --      4.5787                 2.9810                 2.3857
 Frc consts  --      2.4219                 1.6109                 1.3303
 IR Inten    --     22.7252                 6.7909                 0.0029

                     46                     47                     48
                      A                      A                      A
 Frequencies --    979.2903              1029.1359              1054.6886
 Red. masses --      3.4430                 1.6008                 1.7094
 Frc consts  --      1.9454                 0.9989                 1.1203
 IR Inten    --    832.0148                 0.0001                96.9418

                     49                     50                     51
                      A                      A                      A
 Frequencies --   1083.4668              1095.5399              1108.8900
 Red. masses --      1.3952                 2.3704                 2.2882
 Frc consts  --      0.9650                 1.6762                 1.6577
 IR Inten    --      0.0000               938.0637                 0.0002

                     52                     53                     54
                      A                      A                      A
 Frequencies --   1143.2764              1169.3296              1246.3072
 Red. masses --      1.6369                 2.3407                 3.3787
 Frc consts  --      1.2606                 1.8857                 3.0921
 IR Inten    --     10.7876                 0.0000                 0.0026

                     55                     56                     57
                      A                      A                      A
 Frequencies --   1256.4033              1263.7593              1275.3911
 Red. masses --      4.9063                10.6879                 1.6547
 Frc consts  --      4.5631                10.0571                 1.5858
 IR Inten    --     50.0001                 0.0113               231.5907

                     58                     59                     60
                      A                      A                      A
 Frequencies --   1333.3035              1351.3782              1351.4127
 Red. masses --      9.5094                 1.3036                 1.2925
 Frc consts  --      9.9601                 1.4027                 1.3908
 IR Inten    --     11.7511                12.4360                95.4565

                     61                     62                     63
                      A                      A                      A
 Frequencies --   1375.8087              1401.6926              1428.1372
 Red. masses --      3.4331                11.5757                 6.1616
 Frc consts  --      3.8287                13.4000                 7.4043
 IR Inten    --      0.0000                 0.0002               761.8801

                     64                     65                     66
                      A                      A                      A
 Frequencies --   1463.0666              1465.6799              1465.9257
 Red. masses --      3.0110                 1.0852                 1.0778
 Frc consts  --      3.7974                 1.3735                 1.3647
 IR Inten    --      0.0016                 0.0011                32.0890

                     67                     68                     69
                      A                      A                      A
 Frequencies --   1477.1653              1478.0823              1526.1388
 Red. masses --      1.0518                 1.0831                 5.6539
 Frc consts  --      1.3522                 1.3942                 7.7586
 IR Inten    --      3.7627                 0.0002                12.3161

                     70                     71                     72
                      A                      A                      A
 Frequencies --   1533.3711              1544.9426              1602.9343
 Red. masses --      8.8043                 9.2347                 6.0964
 Frc consts  --     12.1966                12.9866                 9.2290
 IR Inten    --      0.0012               707.4346               262.1115

                     73                     74                     75
                      A                      A                      A
 Frequencies --   1630.0169              1637.8912              3020.8052
 Red. masses --      9.0417                 8.7423                 1.0319
 Frc consts  --     14.1542                13.8180                 5.5479
 IR Inten    --      0.0005                 0.0001               126.2768

                     76                     77                     78
                      A                      A                      A
 Frequencies --   3021.0015              3091.1169              3091.1957
 Red. masses --      1.0318                 1.1019                 1.1019
 Frc consts  --      5.5484                 6.2035                 6.2037
 IR Inten    --      0.1372                 1.8932                75.9962

                     79                     80                     81
                      A                      A                      A
 Frequencies --   3096.6913              3096.7247              3134.4528
 Red. masses --      1.1034                 1.1034                 1.0853
 Frc consts  --      6.2340                 6.2341                 6.2823
 IR Inten    --      0.0505               107.5462                70.8165

                     82                     83                     84
                      A                      A                      A
 Frequencies --   3134.5245              3154.3051              3155.1640
 Red. masses --      1.0857                 1.0927                 1.0921
 Frc consts  --      6.2852                 6.4056                 6.4058
 IR Inten    --     10.7144               133.6902                 0.0828

 - Thermochemistry -
 -------------------
 Temperature   298.150 Kelvin.  Pressure   1.00000 Atm.
 Atom     1 has atomic number  6 and mass  12.00000

 Molecular mass:   274.04774 amu.
 Principal axes and moments of inertia in atomic units:
                           1         2         3
     Eigenvalues --  2116.829307654.844309085.44606
           X            0.99020   0.12183   0.06823
           Y           -0.11231   0.98522  -0.12930
           Z           -0.08297   0.12037   0.98926
 This molecule is an asymmetric top.
 Rotational symmetry number  1.
 Warning -- assumption of classical behavior for rotation
           may cause significant error
 Rotational temperatures (Kelvin)      0.04092     0.01131     0.00953
 Rotational constants (GHZ):           0.85257     0.23576     0.19864
 Zero-point vibrational energy     553213.7 (Joules/Mol)
                                  132.22125 (Kcal/Mol)
 Warning -- explicit consideration of  30 degrees of freedom as
           vibrations may cause significant error
 Vibrational temperatures:     78.69   116.64   128.78   157.83   212.65
          (Kelvin)            259.50   275.84   288.47   298.35   342.40
                              378.47   386.71   387.02   494.52   529.96
                              547.51   608.27   637.98   672.08   690.90
                              716.08   720.95   747.41   747.52   789.19
                              799.36   800.61   856.41   858.48   867.13
                              932.15   956.37  1002.80  1016.15  1037.48
                             1094.68  1130.96  1150.17  1162.45  1172.13
                             1244.45  1255.11  1363.23  1377.93  1399.71
                             1408.98  1480.70  1517.46  1558.87  1576.24
                             1595.45  1644.92  1682.40  1793.16  1807.68
                             1818.27  1835.00  1918.33  1944.33  1944.38
                             1979.48  2016.72  2054.77  2105.03  2108.79
                             2109.14  2125.31  2126.63  2195.77  2206.18
                             2222.83  2306.26  2345.23  2356.56  4346.26
                             4346.55  4447.43  4447.54  4455.45  4455.50
                             4509.78  4509.88  4538.34  4539.58

 Zero-point correction=                           0.210708 (Hartree/Particle)
 Thermal correction to Energy=                    0.227038
 Thermal correction to Enthalpy=                  0.227982
 Thermal correction to Gibbs Free Energy=         0.168185
 Sum of electronic and zero-point Energies=           -990.941507
 Sum of electronic and thermal Energies=              -990.925177
 Sum of electronic and thermal Enthalpies=            -990.924233
 Sum of electronic and thermal Free Energies=         -990.984029

                     E (Thermal)             CV                S
                      KCal/Mol        Cal/Mol-Kelvin    Cal/Mol-Kelvin
 Total                  142.469             66.006            125.853
 Electronic               0.000              0.000              0.000
 Translational            0.889              2.981             42.723
 Rotational               0.889              2.981             33.354
 Vibrational            140.691             60.044             49.776
 Vibration     1          0.596              1.976              4.640
 Vibration     2          0.600              1.962              3.865
 Vibration     3          0.602              1.957              3.671
 Vibration     4          0.606              1.941              3.274
 Vibration     5          0.617              1.905              2.700
 Vibration     6          0.629              1.866              2.325
 Vibration     7          0.634              1.851              2.211
 Vibration     8          0.638              1.839              2.129
 Vibration     9          0.641              1.829              2.067
 Vibration    10          0.656              1.782              1.818
 Vibration    11          0.670              1.741              1.641
 Vibration    12          0.673              1.731              1.604
 Vibration    13          0.673              1.730              1.603
 Vibration    14          0.722              1.588              1.195
 Vibration    15          0.741              1.537              1.087
 Vibration    16          0.750              1.512              1.037
 Vibration    17          0.785              1.421              0.883
 Vibration    18          0.803              1.375              0.816
 Vibration    19          0.824              1.323              0.746
 Vibration    20          0.837              1.294              0.710
 Vibration    21          0.853              1.255              0.664
 Vibration    22          0.856              1.248              0.655
 Vibration    23          0.874              1.207              0.611
 Vibration    24          0.875              1.207              0.611
 Vibration    25          0.904              1.143              0.547
 Vibration    26          0.911              1.127              0.533
 Vibration    27          0.912              1.126              0.531
 Vibration    28          0.953              1.042              0.458
 Vibration    29          0.955              1.039              0.455
 Vibration    30          0.961              1.026              0.445

                           ! Non-Optimized Parameters !
 Normal termination of Gaussian 16 at Wed Dec 27 00:13:30 2023.
