 Q-Chem 5.4, Q-Chem, Inc., Pleasanton, CA (2021)
 Q-Chem 5.4.0 for Intel X86 EM64T Linux

User input:
--------------------------------------------------------------
$molecule
-1 1
C                 -3.4922130000      2.4023360000      1.1174340000
C                 -4.2239260000      2.2805180000      2.2864620000
C                 -3.8238750000      1.3453960000      3.2449080000
C                 -2.3615490000      1.6025730000      0.8865000000
C                 -1.9509940000      0.6610180000      1.8404930000
C                 -2.7063050000      0.5522640000      3.0202910000
C                 -1.6275000000      1.7975810000     -0.4024770000
C                 -0.4359580000      0.9573880000     -0.6400590000
C                 -0.0116220000      0.0066630000      0.3062810000
C                 -0.7281890000     -0.2361780000      1.6389580000
C                  0.2693290000      1.1322660000     -1.8472480000
C                  1.3912790000      0.3740760000     -2.1264260000
C                  1.8180330000     -0.5753040000     -1.1939200000
C                  1.1270250000     -0.7516830000     -0.0033340000
O                 -2.0209670000      2.6290620000     -1.2103180000
S                  2.3634780000      0.6197400000     -3.6599900000
O                  1.4362390000      1.3210380000     -4.5782910000
O                  3.5213080000      1.4327310000     -3.2085060000
O                  2.7214450000     -0.7631440000     -4.0674740000
C                  0.2727210000      0.0319340000      2.7978770000
C                 -1.1949170000     -1.7181820000      1.6916970000
H                 -3.7657870000      3.1137700000      0.3476920000
H                 -5.0959600000      2.9025700000      2.4566580000
H                 -4.3841500000      1.2350670000      4.1676980000
H                 -2.4182350000     -0.1648330000      3.7800190000
H                 -0.0815810000      1.8625450000     -2.5652390000
H                  2.6876620000     -1.1800140000     -1.4237510000
H                  1.4862010000     -1.5003070000      0.6943050000
H                  0.6080760000      1.0714720000      2.7802180000
H                  1.1524390000     -0.6073020000      2.7050670000
H                 -0.1855640000     -0.1642660000      3.7704040000
H                 -0.3469860000     -2.3954790000      1.5757300000
H                 -1.9038450000     -1.9243830000      0.8864770000
H                 -1.6811530000     -1.9464930000      2.6434310000
$end
$rem
MAX_SCF_CYCLES=200
BASIS  =  6-311++G(d,p)
GUI  =  2
JOB_TYPE  =  SP
METHOD  =  B3LYP
SOLVENT_METHOD = COSMO
$end
$solvent
dielectric 37.219
opticaldielectric 1.43
$end

--------------------------------------------------------------

             Standard Nuclear Orientation (Angstroms)
    I     Atom           X                Y                Z
 ----------------------------------------------------------------
    1      C       3.4307887197    -2.0419555934     0.0022179958
    2      C       4.7777206133    -1.7218940211     0.0165382011
    3      C       5.1571184099    -0.3768702721     0.0255448072
    4      C       2.4498273588    -1.0374479211    -0.0034028736
    5      C       2.8184671549     0.3150365594     0.0052169211
    6      C       4.1900359963     0.6197200841     0.0197882338
    7      C       1.0174207031    -1.4690546537    -0.0190413522
    8      C      -0.0118572722    -0.4094668666    -0.0205882288
    9      C       0.3412665548     0.9524272881    -0.0137811687
   10      C       1.7910931231     1.4487398522    -0.0017493828
   11      C      -1.3657663341    -0.7995333889    -0.0303713540
   12      C      -2.3738086735     0.1467244373    -0.0336883801
   13      C      -2.0324898618     1.5019001846    -0.0306944442
   14      C      -0.7005270886     1.8916180675    -0.0211145911
   15      O       0.7381648292    -2.6609859764    -0.0290360300
   16      S      -4.1426186157    -0.3290886286     0.0137832221
   17      O      -4.1594729292    -1.7390228601    -0.4408255872
   18      O      -4.5150878299    -0.1326935736     1.4378822861
   19      O      -4.7851065974     0.6359070843    -0.9149493597
   20      C       2.0094069534     2.3157704853     1.2700191000
   21      C       2.0312070545     2.3186057173    -1.2676999983
   22      H       3.0915204372    -3.0707069750    -0.0049544329
   23      H       5.5287875254    -2.5043500832     0.0209733744
   24      H       6.2078096040    -0.1056901040     0.0370025161
   25      H       4.5118137170     1.6545182083     0.0269301370
   26      H      -1.6138035967    -1.8531893361    -0.0459592766
   27      H      -2.8250846655     2.2409088643    -0.0509606437
   28      H      -0.4744743828     2.9522989137    -0.0224500174
   29      H       1.8500847397     1.7191040715     2.1711404529
   30      H       1.3095919420     3.1529668110     1.2924106471
   31      H       3.0231406052     2.7227112743     1.3027547738
   32      H       1.3324493262     3.1563761584    -1.3000245575
   33      H       1.8870128192     1.7240546115    -2.1727933720
   34      H       3.0456495297     2.7248584963    -1.2823325394
 ----------------------------------------------------------------

   10   -1316.9347759346      7.84e-06  Convergence criterion met
 Total energy in the final basis set =    -1316.9347759346
    5   -1317.0413952004      6.65e-06  Convergence criterion met
 Total energy in the final basis set =    -1317.0413952004

                    Orbital Energies (a.u.)
 --------------------------------------------------------------

 Alpha MOs
 -- Occupied --
-89.0535 -19.1168 -19.1005 -19.0988 -19.0988 -10.2704 -10.2108 -10.2060
-10.2029 -10.2006 -10.1968 -10.1936 -10.1922 -10.1906 -10.1865 -10.1862
-10.1830 -10.1816 -10.1806 -10.1651 -10.1651  -8.1124  -6.0751  -6.0750
 -6.0741  -1.1195  -1.0528  -0.9854  -0.9823  -0.8929  -0.8716  -0.8275
 -0.7871  -0.7674  -0.7612  -0.7405  -0.6932  -0.6654  -0.6572  -0.6350
 -0.6114  -0.5963  -0.5746  -0.5466  -0.5368  -0.5052  -0.4900  -0.4811
 -0.4737  -0.4625  -0.4576  -0.4525  -0.4476  -0.4453  -0.4390  -0.4340
 -0.4285  -0.4173  -0.4152  -0.4057  -0.3844  -0.3778  -0.3767  -0.3680
 -0.3658  -0.3507  -0.3462  -0.3452  -0.3427  -0.3290  -0.3143  -0.3074
 -0.2966  -0.2732  -0.2690  -0.2675  -0.2666  -0.2618  -0.2578

          Ground-State Mulliken Net Atomic Charges

     Atom                 Charge (a.u.)
  ----------------------------------------
      1 C                     0.088075
      2 C                    -0.456050
      3 C                    -0.470032
      4 C                     0.456148
      5 C                     0.391770
      6 C                    -0.203804
      7 C                    -0.730643
      8 C                     0.835690
      9 C                     0.373069
     10 C                     0.260813
     11 C                     0.340967
     12 C                    -0.959406
     13 C                    -0.677884
     14 C                    -0.372281
     15 O                    -0.338593
     16 S                     0.810746
     17 O                    -0.407628
     18 O                    -0.379718
     19 O                    -0.408829
     20 C                    -0.846241
     21 C                    -0.844240
     22 H                     0.214540
     23 H                     0.212667
     24 H                     0.222511
     25 H                     0.169080
     26 H                     0.234975
     27 H                     0.243380
     28 H                     0.177767
     29 H                     0.190642
     30 H                     0.172192
     31 H                     0.169974
     32 H                     0.171293
     33 H                     0.190010
     34 H                     0.169040
  ----------------------------------------
  Sum of atomic charges =    -1.000000

                    Cartesian Multipole Moments
 -----------------------------------------------------------------
    Charge (ESU x 10^10)
                -4.8032
    Dipole Moment (Debye)
         X      25.7344      Y       8.5863      Z      -0.1959
       Tot      27.1297
    Quadrupole Moments (Debye-Ang)
        XX    -222.8991     XY      -6.3263     YY    -139.5821
        XZ       0.9575     YZ      -0.1624     ZZ    -143.7826

 Total job time:  107.61s(wall), 823.55s(cpu)
        *  Thank you very much for using Q-Chem.  Have a nice day.  *
