 Gaussian 16, Revision A.03,
 Gaussian 16:  ES64L-G16RevA.03 25-Dec-2016

 --------------------------------------
 #P UB3LYP/6-311++G(d,p) nosym opt freq
 --------------------------------------

 --------
 Oxidized
 --------
 Symbolic Z-matrix:
 Charge = -1 Multiplicity = 1

 SCF Done:  E(UB3LYP) =  -1316.93471107     A.U. after   17 cycles
 Optimization completed.
    -- Stationary point found.
 Normal termination of Gaussian 16 at Tue Jan  9 22:01:48 2024.

 ----------------------------------------------------------------------
 #P Geom=AllCheck Guess=TCheck SCRF=Check GenChk UB3LYP/6-311++G(d,p) F
 req
 ----------------------------------------------------------------------

 Structure from the checkpoint file:  "342.chk"
 --------
 Oxidized
 --------
 Charge = -1 Multiplicity = 1

                          Input orientation:
 ---------------------------------------------------------------------
 Center     Atomic      Atomic             Coordinates (Angstroms)
 Number     Number       Type             X           Y           Z
 ---------------------------------------------------------------------
      1          6           0       -3.492213    2.402336    1.117434
      2          6           0       -4.223926    2.280518    2.286462
      3          6           0       -3.823875    1.345396    3.244908
      4          6           0       -2.361549    1.602573    0.886500
      5          6           0       -1.950994    0.661018    1.840493
      6          6           0       -2.706305    0.552264    3.020291
      7          6           0       -1.627500    1.797581   -0.402477
      8          6           0       -0.435958    0.957388   -0.640059
      9          6           0       -0.011622    0.006663    0.306281
     10          6           0       -0.728189   -0.236178    1.638958
     11          6           0        0.269329    1.132266   -1.847248
     12          6           0        1.391279    0.374076   -2.126426
     13          6           0        1.818033   -0.575304   -1.193920
     14          6           0        1.127025   -0.751683   -0.003334
     15          8           0       -2.020967    2.629062   -1.210318
     16         16           0        2.363478    0.619740   -3.659990
     17          8           0        1.436239    1.321038   -4.578291
     18          8           0        3.521308    1.432731   -3.208506
     19          8           0        2.721445   -0.763144   -4.067474
     20          6           0        0.272721    0.031934    2.797877
     21          6           0       -1.194917   -1.718182    1.691697
     22          1           0       -3.765787    3.113770    0.347692
     23          1           0       -5.095960    2.902570    2.456658
     24          1           0       -4.384150    1.235067    4.167698
     25          1           0       -2.418235   -0.164833    3.780019
     26          1           0       -0.081581    1.862545   -2.565239
     27          1           0        2.687662   -1.180014   -1.423751
     28          1           0        1.486201   -1.500307    0.694305
     29          1           0        0.608076    1.071472    2.780218
     30          1           0        1.152439   -0.607302    2.705067
     31          1           0       -0.185564   -0.164266    3.770404
     32          1           0       -0.346986   -2.395479    1.575730
     33          1           0       -1.903845   -1.924383    0.886477
     34          1           0       -1.681153   -1.946493    2.643431
 ---------------------------------------------------------------------

 SCF Done:  E(UB3LYP) =  -1316.93471107     A.U. after    2 cycles

 Alpha  occ. eigenvalues --  -88.89275 -19.01685 -18.93490 -18.93465 -18.93388
 Alpha  occ. eigenvalues --  -10.17148 -10.13477 -10.12604 -10.12045 -10.11501
 Alpha  occ. eigenvalues --  -10.11421 -10.11281 -10.10974 -10.10593 -10.09926
 Alpha  occ. eigenvalues --  -10.09905 -10.09238 -10.08658 -10.08386 -10.07991
 Alpha  occ. eigenvalues --  -10.07632  -7.95117  -5.91367  -5.91360  -5.91350
 Alpha  occ. eigenvalues --   -0.95447  -0.95155  -0.81876  -0.81577  -0.81061
 Alpha  occ. eigenvalues --   -0.77953  -0.74236  -0.70208  -0.68157  -0.66713
 Alpha  occ. eigenvalues --   -0.65056  -0.62648  -0.57637  -0.56744  -0.54326
 Alpha  occ. eigenvalues --   -0.52187  -0.48998  -0.47858  -0.46202  -0.42782
 Alpha  occ. eigenvalues --   -0.41463  -0.39273  -0.38252  -0.37786  -0.36831
 Alpha  occ. eigenvalues --   -0.36763  -0.36550  -0.34615  -0.33877  -0.33685
 Alpha  occ. eigenvalues --   -0.33590  -0.32746  -0.32141  -0.31200  -0.29919
 Alpha  occ. eigenvalues --   -0.29752  -0.29309  -0.29093  -0.28659  -0.27262
 Alpha  occ. eigenvalues --   -0.26138  -0.25871  -0.24541  -0.19259  -0.18976
 Alpha  occ. eigenvalues --   -0.17831  -0.17602  -0.17240  -0.17116  -0.16349
 Alpha  occ. eigenvalues --   -0.14158  -0.13900  -0.12619  -0.09657
 Alpha virt. eigenvalues --    0.00643   0.04540   0.04563   0.05936   0.06352
 Alpha virt. eigenvalues --    0.07245   0.07670   0.08025   0.08666   0.09146
 Alpha virt. eigenvalues --    0.10281   0.11199   0.11646   0.11726   0.12473

  Beta  occ. eigenvalues --  -88.89275 -19.01685 -18.93490 -18.93465 -18.93388
  Beta  occ. eigenvalues --  -10.17148 -10.13477 -10.12604 -10.12045 -10.11501
  Beta  occ. eigenvalues --  -10.11421 -10.11281 -10.10974 -10.10593 -10.09926
  Beta  occ. eigenvalues --  -10.09905 -10.09238 -10.08658 -10.08386 -10.07991
  Beta  occ. eigenvalues --  -10.07632  -7.95117  -5.91367  -5.91360  -5.91350
  Beta  occ. eigenvalues --   -0.95447  -0.95155  -0.81876  -0.81577  -0.81061
  Beta  occ. eigenvalues --   -0.77953  -0.74236  -0.70208  -0.68157  -0.66713
  Beta  occ. eigenvalues --   -0.65056  -0.62648  -0.57637  -0.56744  -0.54326
  Beta  occ. eigenvalues --   -0.52187  -0.48998  -0.47858  -0.46202  -0.42782
  Beta  occ. eigenvalues --   -0.41463  -0.39273  -0.38252  -0.37786  -0.36831
  Beta  occ. eigenvalues --   -0.36763  -0.36550  -0.34615  -0.33877  -0.33685
  Beta  occ. eigenvalues --   -0.33590  -0.32746  -0.32141  -0.31200  -0.29919
  Beta  occ. eigenvalues --   -0.29752  -0.29309  -0.29093  -0.28659  -0.27262
  Beta  occ. eigenvalues --   -0.26138  -0.25871  -0.24541  -0.19259  -0.18976
  Beta  occ. eigenvalues --   -0.17831  -0.17602  -0.17240  -0.17116  -0.16349
  Beta  occ. eigenvalues --   -0.14158  -0.13900  -0.12619  -0.09657
  Beta virt. eigenvalues --    0.00643   0.04540   0.04563   0.05936   0.06352
  Beta virt. eigenvalues --    0.07245   0.07670   0.08025   0.08666   0.09146
  Beta virt. eigenvalues --    0.10281   0.11199   0.11646   0.11726   0.12473

 Mulliken charges and spin densities:
               1          2
     1  C    0.045651   0.000000
     2  C   -0.363667  -0.000000
     3  C   -0.434873   0.000000
     4  C    0.502246  -0.000000
     5  C    0.483527  -0.000000
     6  C   -0.244597   0.000000
     7  C   -0.824492  -0.000000
     8  C    0.832213  -0.000000
     9  C    0.489491  -0.000000
    10  C    0.194287  -0.000000
    11  C    0.300315   0.000000
    12  C   -0.958001   0.000000
    13  C   -0.692912   0.000000
    14  C   -0.359959   0.000000
    15  O   -0.244198   0.000000
    16  S    0.695379  -0.000000
    17  O   -0.308186   0.000000
    18  O   -0.276158   0.000000
    19  O   -0.314498  -0.000000
    20  C   -0.794521  -0.000000
    21  C   -0.791356   0.000000
    22  H    0.200235   0.000000
    23  H    0.148987   0.000000
    24  H    0.153437  -0.000000
    25  H    0.099826   0.000000
    26  H    0.250953   0.000000
    27  H    0.203695   0.000000
    28  H    0.086850   0.000000
    29  H    0.176828   0.000000
    30  H    0.155891   0.000000
    31  H    0.128722  -0.000000
    32  H    0.154724   0.000000
    33  H    0.175727   0.000000
    34  H    0.128439  -0.000000
 Sum of Mulliken charges =  -1.00000  -0.00000

 Dipole moment (field-independent basis, Debye):
    X=             -9.2020    Y=             -5.9623    Z=             19.2933  Tot=             22.1914
 Quadrupole moment (field-independent basis, Debye-Ang):
   XX=           -171.3303   YY=           -148.9797   ZZ=           -208.2152
   XY=             -5.2989   XZ=             39.8912   YZ=             13.0083

  Exact polarizability: 245.360 -45.525 189.826 -66.593 -20.163 256.377
 Approx polarizability: 365.026 -81.741 328.462 -52.781 -55.349 380.004

                      1                      2                      3
                      A                      A                      A
 Frequencies --     10.6311                31.1170                52.0419
 Red. masses --     11.9740                 7.5738                 4.4840
 Frc consts  --      0.0008                 0.0043                 0.0072
 IR Inten    --      0.3078                 0.0047                 1.4224

                      4                      5                      6
                      A                      A                      A
 Frequencies --     96.7473               101.1938               127.1778
 Red. masses --      3.6944                 8.9682                 6.1295
 Frc consts  --      0.0204                 0.0541                 0.0584
 IR Inten    --      0.8521                 1.4960                 1.5505

                      7                      8                      9
                      A                      A                      A
 Frequencies --    150.8955               186.9320               200.0226
 Red. masses --      5.7481                 1.9864                 8.0266
 Frc consts  --      0.0771                 0.0409                 0.1892
 IR Inten    --      0.0749                 0.0672                 2.9455

                     10                     11                     12
                      A                      A                      A
 Frequencies --    219.5481               243.4918               264.3391
 Red. masses --      6.1971                 1.7802                 1.0485
 Frc consts  --      0.1760                 0.0622                 0.0432
 IR Inten    --      0.6783                 0.2648                 0.2273

                     13                     14                     15
                      A                      A                      A
 Frequencies --    285.1260               293.2838               307.7168
 Red. masses --      4.0109                 3.2642                 3.1747
 Frc consts  --      0.1921                 0.1654                 0.1771
 IR Inten    --      1.8689                 0.7828                 1.0349

                     16                     17                     18
                      A                      A                      A
 Frequencies --    344.7599               356.1280               382.7255
 Red. masses --      3.1688                 4.5685                 7.0548
 Frc consts  --      0.2219                 0.3414                 0.6089
 IR Inten    --      0.0108                 7.7790                 8.2534

                     19                     20                     21
                      A                      A                      A
 Frequencies --    406.5264               407.8388               419.8923
 Red. masses --      3.9131                 6.3191                 4.8153
 Frc consts  --      0.3810                 0.6193                 0.5002
 IR Inten    --      0.5381                 8.8387                 1.0452

                     22                     23                     24
                      A                      A                      A
 Frequencies --    442.0715               469.4668               500.5222
 Red. masses --      7.1387                 3.9759                 7.3154
 Frc consts  --      0.8220                 0.5163                 1.0798
 IR Inten    --     10.8780                 0.5647                 7.5540

                     25                     26                     27
                      A                      A                      A
 Frequencies --    509.3612               520.7703               564.7019
 Red. masses --      4.7240                12.9241                 3.6274
 Frc consts  --      0.7221                 2.0651                 0.6815
 IR Inten    --      3.8885                 9.5017                 0.4360

                     28                     29                     30
                      A                      A                      A
 Frequencies --    593.5331               601.9134               626.1361
 Red. masses --      3.5778                11.0710                 5.2916
 Frc consts  --      0.7426                 2.3632                 1.2223
 IR Inten    --     44.6675               172.1283                 3.6339

                     31                     32                     33
                      A                      A                      A
 Frequencies --    654.8815               669.6429               699.7589
 Red. masses --      6.8789                 5.0875                 6.6272
 Frc consts  --      1.7382                 1.3441                 1.9120
 IR Inten    --     47.8643                 3.0486                15.3481

                     34                     35                     36
                      A                      A                      A
 Frequencies --    711.4067               755.1339               775.2465
 Red. masses --      3.5200                 3.6614                 1.6271
 Frc consts  --      1.0496                 1.2301                 0.5762
 IR Inten    --     19.3069                 5.8580                36.1538

                     37                     38                     39
                      A                      A                      A
 Frequencies --    798.5778               822.8272               830.2448
 Red. masses --      5.4446                 3.5512                 3.1188
 Frc consts  --      2.0457                 1.4166                 1.2666
 IR Inten    --      0.4928                 0.0011                 0.5447

                     40                     41                     42
                      A                      A                      A
 Frequencies --    844.9538               893.4782               919.8560
 Red. masses --      1.4303                 1.5037                 2.7840
 Frc consts  --      0.6017                 0.7072                 1.3879
 IR Inten    --     14.1296                 0.0112                 1.9381

                     43                     44                     45
                      A                      A                      A
 Frequencies --    933.3714               950.0254               961.9826
 Red. masses --      1.5863                 1.3884                 8.9043
 Frc consts  --      0.8142                 0.7383                 4.8550
 IR Inten    --      0.0767                 2.3732                20.0087

                     46                     47                     48
                      A                      A                      A
 Frequencies --    977.9338               988.9183               990.8288
 Red. masses --      1.3557                 8.0021                 1.3739
 Frc consts  --      0.7639                 4.6108                 0.7947
 IR Inten    --      0.9624               282.8749                 5.8387

                     49                     50                     51
                      A                      A                      A
 Frequencies --   1002.4648              1035.6150              1057.0521
 Red. masses --      1.3183                 1.2813                 2.5051
 Frc consts  --      0.7806                 0.8096                 1.6492
 IR Inten    --      0.7100                 0.0029                15.5210

                     52                     53                     54
                      A                      A                      A
 Frequencies --   1083.5022              1105.7649              1114.5465
 Red. masses --      2.7230                 2.3784                 1.6997
 Frc consts  --      1.8835                 1.7134                 1.2440
 IR Inten    --     24.9391                 5.0326                30.9176

                     55                     56                     57
                      A                      A                      A
 Frequencies --   1129.7349              1133.0062              1158.2644
 Red. masses --      2.0244                 3.4038                 2.4572
 Frc consts  --      1.5223                 2.5744                 1.9422
 IR Inten    --     16.2594                 2.1212                51.7639

                     58                     59                     60
                      A                      A                      A
 Frequencies --   1165.0379              1182.2224              1183.9368
 Red. masses --      9.7446                 2.4874                 1.8406
 Frc consts  --      7.7928                 2.0483                 1.5201
 IR Inten    --    265.0835               152.1749                92.4291

                     61                     62                     63
                      A                      A                      A
 Frequencies --   1191.2162              1221.5997              1235.9238
 Red. masses --      1.9698                 2.9609                 1.6236
 Frc consts  --      1.6468                 2.6034                 1.4612
 IR Inten    --      9.0244                 3.2182                 1.1317

                     64                     65                     66
                      A                      A                      A
 Frequencies --   1282.9792              1301.5019              1315.4048
 Red. masses --      1.5429                 3.9253                 2.0531
 Frc consts  --      1.4963                 3.9175                 2.0930
 IR Inten    --     31.0925               211.5428                28.3130

                     67                     68                     69
                      A                      A                      A
 Frequencies --   1336.9544              1352.2567              1395.7569
 Red. masses --      8.3199                 8.5028                 1.1885
 Frc consts  --      8.7620                 9.1607                 1.3642
 IR Inten    --      5.3052                20.9091                 7.8317

                     70                     71                     72
                      A                      A                      A
 Frequencies --   1416.9200              1423.5835              1472.8833
 Red. masses --      1.7181                 2.0864                 2.2370
 Frc consts  --      2.0324                 2.4913                 2.8592
 IR Inten    --     22.0313                34.0954                14.1694

                     73                     74                     75
                      A                      A                      A
 Frequencies --   1484.5728              1490.5683              1494.9181
 Red. masses --      1.0467                 1.0485                 1.6264
 Frc consts  --      1.3592                 1.3725                 2.1415
 IR Inten    --      0.0573                 2.2081                 0.9235

                     76                     77                     78
                      A                      A                      A
 Frequencies --   1503.7741              1511.2518              1514.7449
 Red. masses --      1.0644                 2.2305                 1.5033
 Frc consts  --      1.4181                 3.0015                 2.0323
 IR Inten    --     10.4684                 4.5388                14.4517

                     79                     80                     81
                      A                      A                      A
 Frequencies --   1592.3766              1615.3247              1621.4572
 Red. masses --      7.0966                 6.9796                 6.2775
 Frc consts  --     10.6022                10.7300                 9.7241
 IR Inten    --     13.7597                 3.5233                55.3031

                     82                     83                     84
                      A                      A                      A
 Frequencies --   1637.7902              1708.4035              3031.3059
 Red. masses --      5.7282                11.9899                 1.0340
 Frc consts  --      9.0529                20.6180                 5.5980
 IR Inten    --     23.8319               249.8314                24.5286

                     85                     86                     87
                      A                      A                      A
 Frequencies --   3034.9923              3095.6022              3099.0127
 Red. masses --      1.0347                 1.1016                 1.1015
 Frc consts  --      5.6155                 6.2194                 6.2326
 IR Inten    --     38.1164                 4.4182                61.2782

                     88                     89                     90
                      A                      A                      A
 Frequencies --   3107.0768              3109.4504              3152.1929
 Red. masses --      1.1025                 1.1017                 1.0853
 Frc consts  --      6.2707                 6.2758                 6.3536
 IR Inten    --      6.2860                36.5430                 2.7830

                     91                     92                     93
                      A                      A                      A
 Frequencies --   3159.2712              3168.8443              3179.7973
 Red. masses --      1.0871                 1.0899                 1.0940
 Frc consts  --      6.3928                 6.4480                 6.5172
 IR Inten    --     20.7657                26.2660                30.2867

                     94                     95                     96
                      A                      A                      A
 Frequencies --   3189.1818              3195.1787              3208.6038
 Red. masses --      1.0928                 1.0931                 1.0901
 Frc consts  --      6.5484                 6.5753                 6.6123
 IR Inten    --      7.2955                13.2332                 4.9612

 - Thermochemistry -
 -------------------
 Temperature   298.150 Kelvin.  Pressure   1.00000 Atm.
 Atom     1 has atomic number  6 and mass  12.00000

 Molecular mass:   301.05346 amu.
 Principal axes and moments of inertia in atomic units:
                           1         2         3
     Eigenvalues --  2604.64630********************
           X           -0.66590  -0.47780   0.57296
           Y            0.07664   0.72013   0.68959
           Z            0.74210  -0.50311   0.44292
 This molecule is an asymmetric top.
 Rotational symmetry number  1.
 Warning -- assumption of classical behavior for rotation
           may cause significant error
 Rotational temperatures (Kelvin)      0.03325     0.00764     0.00656
 Rotational constants (GHZ):           0.69289     0.15909     0.13671
 Zero-point vibrational energy     670503.9 (Joules/Mol)
                                  160.25428 (Kcal/Mol)
 Warning -- explicit consideration of  29 degrees of freedom as
           vibrations may cause significant error
 Vibrational temperatures:     15.30    44.77    74.88   139.20   145.60
          (Kelvin)            182.98   217.10   268.95   287.79   315.88
                              350.33   380.32   410.23   421.97   442.74
                              496.03   512.39   550.66   584.90   586.79
                              604.13   636.04   675.46   720.14   732.86
                              749.27   812.48   853.96   866.02   900.87
                              942.23   963.47  1006.80  1023.56  1086.47
                             1115.41  1148.98  1183.86  1194.54  1215.70
                             1285.52  1323.47  1342.91  1366.87  1384.08
                             1407.03  1422.83  1425.58  1442.32  1490.02
                             1520.86  1558.92  1590.95  1603.58  1625.44
                             1630.14  1666.48  1676.23  1700.95  1703.42
                             1713.89  1757.61  1778.22  1845.92  1872.57
                             1892.57  1923.58  1945.60  2008.18  2038.63
                             2048.22  2119.15  2135.97  2144.60  2150.85
                             2163.60  2174.35  2179.38  2291.07  2324.09
                             2332.92  2356.41  2458.01  4361.37  4366.68
                             4453.88  4458.79  4470.39  4473.81  4535.30
                             4545.49  4559.26  4575.02  4588.52  4597.15
                             4616.47

 Zero-point correction=                           0.255381 (Hartree/Particle)
 Thermal correction to Energy=                    0.273076
 Thermal correction to Enthalpy=                  0.274020
 Thermal correction to Gibbs Free Energy=         0.208257
 Sum of electronic and zero-point Energies=          -1316.679330
 Sum of electronic and thermal Energies=             -1316.661635
 Sum of electronic and thermal Enthalpies=           -1316.660691
 Sum of electronic and thermal Free Energies=        -1316.726455

                     E (Thermal)             CV                S
                      KCal/Mol        Cal/Mol-Kelvin    Cal/Mol-Kelvin
 Total                  171.358             69.647            138.412
 Electronic               0.000              0.000              0.000
 Translational            0.889              2.981             43.003
 Rotational               0.889              2.981             34.322
 Vibrational            169.580             63.686             61.087
 Vibration     1          0.593              1.987              7.889
 Vibration     2          0.594              1.983              5.757
 Vibration     3          0.596              1.977              4.738
 Vibration     4          0.603              1.951              3.519
 Vibration     5          0.604              1.948              3.431
 Vibration     6          0.611              1.926              2.988
 Vibration     7          0.618              1.902              2.661
 Vibration     8          0.632              1.858              2.258
 Vibration     9          0.638              1.840              2.133
 Vibration    10          0.647              1.811              1.963
 Vibration    11          0.659              1.774              1.777
 Vibration    12          0.671              1.738              1.633
 Vibration    13          0.683              1.701              1.503
 Vibration    14          0.688              1.686              1.455
 Vibration    15          0.698              1.659              1.375
 Vibration    16          0.723              1.586              1.190
 Vibration    17          0.732              1.563              1.139
 Vibration    18          0.752              1.507              1.028
 Vibration    19          0.771              1.456              0.939
 Vibration    20          0.772              1.453              0.934
 Vibration    21          0.783              1.427              0.892
 Vibration    22          0.802              1.378              0.820
 Vibration    23          0.827              1.318              0.739
 Vibration    24          0.856              1.249              0.657
 Vibration    25          0.865              1.229              0.635
 Vibration    26          0.876              1.204              0.608
 Vibration    27          0.921              1.108              0.515
 Vibration    28          0.951              1.046              0.461
 Vibration    29          0.960              1.028              0.446

 Optimization completed.
    -- Stationary point found.
 Normal termination of Gaussian 16 at Wed Jan 10 00:02:40 2024.
