 Gaussian 16, Revision A.03,
 Gaussian 16:  ES64L-G16RevA.03 25-Dec-2016

 ----------------------------------------------------------------
 #P UB3LYP/6-311++G(d,p) SCRF=(PCM,Solvent=n,n-DiMethylFormamide)
 ----------------------------------------------------------------

 -------
 Reduced
 -------
 Symbolic Z-matrix:
 Charge = -2 Multiplicity = 1

                         Standard orientation:
 ---------------------------------------------------------------------
 Center     Atomic      Atomic             Coordinates (Angstroms)
 Number     Number       Type             X           Y           Z
 ---------------------------------------------------------------------
      1          6           0       -2.687153   -1.648390   -0.000035
      2          6           0       -3.982411   -1.190504    0.000100
      3          6           0       -4.255836    0.210020    0.000249
      4          6           0       -1.568370   -0.749600    0.000001
      5          6           0       -1.849081    0.680604    0.000054
      6          6           0       -3.196296    1.099490    0.000200
      7          6           0       -0.251330   -1.205621   -0.000166
      8          6           0        0.825093   -0.282208   -0.000091
      9          6           0        0.573496    1.138903   -0.000104
     10          6           0       -0.786812    1.671852   -0.000076
     11          6           0        2.190722   -0.758208    0.000103
     12          6           0        3.220443    0.191531    0.000129
     13          6           0        1.670011    2.035350   -0.000111
     14          6           0        2.977364    1.571644   -0.000167
     15          8           0        0.001207   -2.569801   -0.000453
     16          8           0       -1.024723    2.923630   -0.000118
     17          8           0        2.524980   -2.038149    0.000229
     18          1           0       -2.477440   -2.712895   -0.000188
     19          1           0       -4.806958   -1.902472    0.000014
     20          1           0       -5.282933    0.568471    0.000426
     21          1           0       -3.363416    2.172766    0.000174
     22          1           0        0.999562   -2.634564   -0.000232
     23          8           0        4.509036   -0.333373    0.000269
     24          1           0        1.444460    3.095380   -0.000280
     25          1           0        3.820545    2.259605   -0.000242
     26          1           0        4.303130   -1.293933    0.000410
 ---------------------------------------------------------------------

 SCF Done:  E(UB3LYP) =  -839.718274340     A.U. after   17 cycles

 The electronic state is 1-A.
 Alpha  occ. eigenvalues --  -19.12150 -19.10003 -19.05368 -19.03382 -10.19124
 Alpha  occ. eigenvalues --  -10.19069 -10.18729 -10.18471 -10.15626 -10.15252
 Alpha  occ. eigenvalues --  -10.15172 -10.15085 -10.15046 -10.14954 -10.14806
 Alpha  occ. eigenvalues --  -10.14114 -10.14053 -10.13772  -1.03190  -1.01038
 Alpha  occ. eigenvalues --   -0.95510  -0.94891  -0.83495  -0.81369  -0.76260
 Alpha  occ. eigenvalues --   -0.73196  -0.71006  -0.69881  -0.64926  -0.61294
 Alpha  occ. eigenvalues --   -0.59640  -0.56191  -0.54998  -0.51769  -0.50065
 Alpha  occ. eigenvalues --   -0.48468  -0.47991  -0.44639  -0.44051  -0.41827
 Alpha  occ. eigenvalues --   -0.41541  -0.40465  -0.40356  -0.38959  -0.38055
 Alpha  occ. eigenvalues --   -0.37841  -0.36988  -0.36343  -0.34992  -0.34976
 Alpha  occ. eigenvalues --   -0.33370  -0.33141  -0.32004  -0.31013  -0.30657
 Alpha  occ. eigenvalues --   -0.28628  -0.25099  -0.23720  -0.23581  -0.21314
 Alpha  occ. eigenvalues --   -0.20697  -0.17811  -0.12035
 Alpha virt. eigenvalues --   -0.02638   0.00035   0.00407   0.00770   0.01314
 Alpha virt. eigenvalues --    0.02391   0.02545   0.03009   0.04527   0.04849
 Alpha virt. eigenvalues --    0.04938   0.04996   0.06707   0.06836   0.07037

  Beta  occ. eigenvalues --  -19.12150 -19.10003 -19.05368 -19.03382 -10.19124
  Beta  occ. eigenvalues --  -10.19069 -10.18729 -10.18471 -10.15626 -10.15252
  Beta  occ. eigenvalues --  -10.15172 -10.15085 -10.15046 -10.14954 -10.14806
  Beta  occ. eigenvalues --  -10.14114 -10.14053 -10.13772  -1.03190  -1.01038
  Beta  occ. eigenvalues --   -0.95510  -0.94891  -0.83495  -0.81369  -0.76260
  Beta  occ. eigenvalues --   -0.73196  -0.71006  -0.69881  -0.64926  -0.61294
  Beta  occ. eigenvalues --   -0.59640  -0.56191  -0.54998  -0.51769  -0.50065
  Beta  occ. eigenvalues --   -0.48468  -0.47991  -0.44639  -0.44051  -0.41827
  Beta  occ. eigenvalues --   -0.41541  -0.40465  -0.40356  -0.38959  -0.38055
  Beta  occ. eigenvalues --   -0.37841  -0.36988  -0.36343  -0.34992  -0.34976
  Beta  occ. eigenvalues --   -0.33370  -0.33141  -0.32004  -0.31013  -0.30657
  Beta  occ. eigenvalues --   -0.28628  -0.25099  -0.23720  -0.23581  -0.21314
  Beta  occ. eigenvalues --   -0.20697  -0.17811  -0.12035
  Beta virt. eigenvalues --   -0.02638   0.00035   0.00407   0.00770   0.01314
  Beta virt. eigenvalues --    0.02391   0.02545   0.03009   0.04527   0.04849
  Beta virt. eigenvalues --    0.04938   0.04996   0.06707   0.06836   0.07037

 Mulliken charges and spin densities:
               1          2
     1  C   -0.125608  -0.000000
     2  C   -0.446008   0.000000
     3  C   -0.524611   0.000000
     4  C    0.134237   0.000000
     5  C   -0.112409   0.000000
     6  C   -0.000853  -0.000000
     7  C   -0.050235  -0.000000
     8  C    0.708033   0.000000
     9  C    0.562254   0.000000
    10  C   -0.411904  -0.000000
    11  C   -0.636421  -0.000000
    12  C   -0.444809  -0.000000
    13  C   -0.102748   0.000000
    14  C   -0.017465  -0.000000
    15  O   -0.500680   0.000000
    16  O   -0.597984   0.000000
    17  O   -0.685964   0.000000
    18  H    0.149221  -0.000000
    19  H    0.161855   0.000000
    20  H    0.159330  -0.000000
    21  H    0.144907   0.000000
    22  H    0.393586  -0.000000
    23  O   -0.362249   0.000000
    24  H    0.141412   0.000000
    25  H    0.174461   0.000000
    26  H    0.290651   0.000000
 Sum of Mulliken charges =  -2.00000  -0.00000

 Dipole moment (field-independent basis, Debye):
    X=             -3.9339    Y=             -2.4271    Z=              0.0001  Tot=              4.6224
 Quadrupole moment (field-independent basis, Debye-Ang):
   XX=           -163.9488   YY=           -156.0400   ZZ=           -116.0778
   XY=             13.8563   XZ=             -0.0022   YZ=              0.0000

 Normal termination of Gaussian 16 at Tue Jan 16 06:12:42 2024.
