 Q-Chem 5.4, Q-Chem, Inc., Pleasanton, CA (2021)
 Q-Chem 5.4.0 for Intel X86 EM64T Linux

User input:
--------------------------------------------------------------
$molecule
-2 1
C                  4.8482590000     -2.9113140000     -0.3159710000
C                  5.5815220000     -2.0342200000     -1.0778020000
C                  5.0085270000     -0.8044980000     -1.5201710000
C                  3.4924520000     -2.6320220000      0.0625530000
C                  2.9084850000     -1.3756080000     -0.3898720000
C                  3.7031790000     -0.5092950000     -1.1698830000
C                  2.7415290000     -3.5161890000      0.8351550000
C                  1.4043050000     -3.2004990000      1.1866530000
C                  0.8032080000     -1.9628100000      0.7511460000
C                  1.5442720000     -0.9999010000     -0.0600900000
C                  0.6273210000     -4.1199780000      1.9881340000
C                 -0.6889260000     -3.7647740000      2.3100890000
C                 -0.5342770000     -1.6766030000      1.1188150000
C                 -1.2735510000     -2.5631610000      1.8880260000
O                  3.3102300000     -4.7085010000      1.2591040000
O                  1.0272480000      0.0967430000     -0.4520170000
O                  1.0864800000     -5.2771830000      2.4353780000
H                  5.2823490000     -3.8467230000      0.0212630000
H                  6.6084360000     -2.2797360000     -1.3460290000
H                  5.5925460000     -0.1127390000     -2.1233350000
H                  3.2317330000      0.4164400000     -1.4870640000
H                  2.5841050000     -5.1538210000      1.7838320000
O                 -1.3797830000     -4.6930590000      3.0827460000
H                 -0.9536730000     -0.7383950000      0.7747090000
H                 -2.3012390000     -2.3441480000      2.1711050000
H                 -0.6864980000     -5.3815760000      3.1845950000
$end
$rem
MAX_SCF_CYCLES=200
BASIS  =  6-311++G(d,p)
GUI  =  2
JOB_TYPE  =  SP
METHOD  =  B3LYP
SOLVENT_METHOD = PCM
$end
$pcm
theory = CPCM
$end
$solvent
dielectric 37.219
opticaldielectric 1.43
$end

--------------------------------------------------------------

             Standard Nuclear Orientation (Angstroms)
    I     Atom           X                Y                Z
 ----------------------------------------------------------------
    1      C       4.8482590000    -2.9113140000    -0.3159710000
    2      C       5.5815220000    -2.0342200000    -1.0778020000
    3      C       5.0085270000    -0.8044980000    -1.5201710000
    4      C       3.4924520000    -2.6320220000     0.0625530000
    5      C       2.9084850000    -1.3756080000    -0.3898720000
    6      C       3.7031790000    -0.5092950000    -1.1698830000
    7      C       2.7415290000    -3.5161890000     0.8351550000
    8      C       1.4043050000    -3.2004990000     1.1866530000
    9      C       0.8032080000    -1.9628100000     0.7511460000
   10      C       1.5442720000    -0.9999010000    -0.0600900000
   11      C       0.6273210000    -4.1199780000     1.9881340000
   12      C      -0.6889260000    -3.7647740000     2.3100890000
   13      C      -0.5342770000    -1.6766030000     1.1188150000
   14      C      -1.2735510000    -2.5631610000     1.8880260000
   15      O       3.3102300000    -4.7085010000     1.2591040000
   16      O       1.0272480000     0.0967430000    -0.4520170000
   17      O       1.0864800000    -5.2771830000     2.4353780000
   18      H       5.2823490000    -3.8467230000     0.0212630000
   19      H       6.6084360000    -2.2797360000    -1.3460290000
   20      H       5.5925460000    -0.1127390000    -2.1233350000
   21      H       3.2317330000     0.4164400000    -1.4870640000
   22      H       2.5841050000    -5.1538210000     1.7838320000
   23      O      -1.3797830000    -4.6930590000     3.0827460000
   24      H      -0.9536730000    -0.7383950000     0.7747090000
   25      H      -2.3012390000    -2.3441480000     2.1711050000
   26      H      -0.6864980000    -5.3815760000     3.1845950000
 ----------------------------------------------------------------

    9    -839.7242689505      4.43e-06  Convergence criterion met
 Total energy in the final basis set =     -839.7242689505

                    Orbital Energies (a.u.)
 --------------------------------------------------------------

 Alpha MOs
 -- Occupied --
-19.1237 -19.1037 -19.0568 -19.0381 -10.1944 -10.1934 -10.1896 -10.1877
-10.1568 -10.1537 -10.1531 -10.1531 -10.1530 -10.1504 -10.1495 -10.1435
-10.1432 -10.1399  -1.0342  -1.0139  -0.9596  -0.9522  -0.8370  -0.8159
 -0.7646  -0.7337  -0.7120  -0.7014  -0.6515  -0.6148  -0.5986  -0.5637
 -0.5524  -0.5195  -0.5030  -0.4870  -0.4817  -0.4488  -0.4422  -0.4203
 -0.4172  -0.4075  -0.4052  -0.3926  -0.3836  -0.3812  -0.3720  -0.3664
 -0.3536  -0.3524  -0.3356  -0.3337  -0.3218  -0.3133  -0.3090  -0.2894
 -0.2536  -0.2407  -0.2380  -0.2154  -0.2116  -0.1813  -0.1233

          Ground-State Mulliken Net Atomic Charges

     Atom                 Charge (a.u.)
  ----------------------------------------
      1 C                    -0.141045
      2 C                    -0.449017
      3 C                    -0.542946
      4 C                     0.115452
      5 C                    -0.118278
      6 C                    -0.011003
      7 C                    -0.042209
      8 C                     0.709095
      9 C                     0.562301
     10 C                    -0.342973
     11 C                    -0.613829
     12 C                    -0.452555
     13 C                    -0.120500
     14 C                    -0.042591
     15 O                    -0.509595
     16 O                    -0.623421
     17 O                    -0.701240
     18 H                     0.159926
     19 H                     0.178546
     20 H                     0.176095
     21 H                     0.147405
     22 H                     0.396945
     23 O                    -0.373058
     24 H                     0.144583
     25 H                     0.192069
     26 H                     0.301843
  ----------------------------------------
  Sum of atomic charges =    -2.000000

                    Cartesian Multipole Moments
 -----------------------------------------------------------------
    Charge (ESU x 10^10)
                -9.6064
    Dipole Moment (Debye)
         X     -13.4752      Y      25.0465      Z      -8.3127
       Tot      29.6312
    Quadrupole Moments (Debye-Ang)
        XX    -159.4656     XY      33.3937     YY    -223.3425
        XZ      -1.0971     YZ      45.1605     ZZ    -140.0054

 Total job time:  96.22s(wall), 339.52s(cpu)
        *  Thank you very much for using Q-Chem.  Have a nice day.  *
