 Gaussian 16, Revision A.03,
 Gaussian 16:  ES64L-G16RevA.03 25-Dec-2016

 ----------------------------------------------------------------
 #P UB3LYP/6-311++G(d,p) SCRF=(PCM,Solvent=n,n-DiMethylFormamide)
 ----------------------------------------------------------------

 ------------------
 Quinone PCM in DMF
 ------------------
 Symbolic Z-matrix:
 Charge =  0 Multiplicity = 1

                         Standard orientation:
 ---------------------------------------------------------------------
 Center     Atomic      Atomic             Coordinates (Angstroms)
 Number     Number       Type             X           Y           Z
 ---------------------------------------------------------------------
      1          6           0       -0.576904    1.130601   -0.000052
      2          6           0        0.806191    1.663637    0.000254
      3          6           0        1.877803    0.860136    0.000212
      4          6           0        1.734184   -0.614842   -0.000022
      5          6           0        0.356747   -1.170807   -0.000043
      6          6           0       -0.725950   -0.368495    0.000022
      7          8           0       -1.545064    1.861752   -0.000360
      8          8           0        2.702086   -1.354784   -0.000199
      9          6           0       -2.052700   -0.898413    0.000072
     10          7           0       -3.118095   -1.342834    0.000177
     11          1           0        0.885383    2.744930    0.000366
     12          1           0        2.893348    1.239877    0.000318
     13          1           0        0.275536   -2.251610   -0.000102
 ---------------------------------------------------------------------

 SCF Done:  E(UB3LYP) =  -473.833257600     A.U. after   15 cycles

 The electronic state is 1-A.
 Alpha  occ. eigenvalues --  -19.16322 -19.16125 -14.34865 -10.31234 -10.30626
 Alpha  occ. eigenvalues --  -10.26612 -10.24675 -10.24642 -10.22808 -10.22692
 Alpha  occ. eigenvalues --   -1.09690  -1.09070  -0.94756  -0.89094  -0.82711
 Alpha  occ. eigenvalues --   -0.74190  -0.68656  -0.64314  -0.56936  -0.54784
 Alpha  occ. eigenvalues --   -0.52338  -0.49469  -0.47506  -0.47269  -0.45535
 Alpha  occ. eigenvalues --   -0.44110  -0.43236  -0.40550  -0.40239  -0.37464
 Alpha  occ. eigenvalues --   -0.32893  -0.31776  -0.31165  -0.30158
 Alpha virt. eigenvalues --   -0.15881  -0.07518  -0.02505  -0.00848  -0.00277
 Alpha virt. eigenvalues --    0.01006   0.01584   0.03747   0.03939   0.03958
 Alpha virt. eigenvalues --    0.04467   0.05580   0.07022   0.07607   0.08041

  Beta  occ. eigenvalues --  -19.16322 -19.16125 -14.34865 -10.31234 -10.30626
  Beta  occ. eigenvalues --  -10.26612 -10.24675 -10.24642 -10.22808 -10.22692
  Beta  occ. eigenvalues --   -1.09690  -1.09070  -0.94756  -0.89094  -0.82711
  Beta  occ. eigenvalues --   -0.74190  -0.68656  -0.64314  -0.56936  -0.54784
  Beta  occ. eigenvalues --   -0.52338  -0.49469  -0.47506  -0.47269  -0.45535
  Beta  occ. eigenvalues --   -0.44110  -0.43236  -0.40550  -0.40239  -0.37464
  Beta  occ. eigenvalues --   -0.32893  -0.31776  -0.31165  -0.30158
  Beta virt. eigenvalues --   -0.15881  -0.07518  -0.02505  -0.00848  -0.00277
  Beta virt. eigenvalues --    0.01006   0.01584   0.03747   0.03939   0.03958
  Beta virt. eigenvalues --    0.04467   0.05580   0.07022   0.07607   0.08041

 Mulliken charges and spin densities:
               1          2
     1  C   -1.113436  -0.000000
     2  C    0.229436   0.000000
     3  C    0.115597  -0.000000
     4  C   -0.303940   0.000000
     5  C   -0.481455   0.000000
     6  C    2.272123  -0.000000
     7  O   -0.244444  -0.000000
     8  O   -0.262557  -0.000000
     9  C   -0.743936   0.000000
    10  N   -0.245350  -0.000000
    11  H    0.258415   0.000000
    12  H    0.256983   0.000000
    13  H    0.262564   0.000000
 Sum of Mulliken charges =  -0.00000  -0.00000

 Dipole moment (field-independent basis, Debye):
    X=              4.7440    Y=              1.7224    Z=              0.0010  Tot=              5.0470
 Quadrupole moment (field-independent basis, Debye-Ang):
   XX=            -80.1322   YY=            -57.9001   ZZ=            -55.1002
   XY=              6.8473   XZ=              0.0014   YZ=              0.0021

 Normal termination of Gaussian 16 at Sun Jan 21 06:41:17 2024.
