 Gaussian 16, Revision A.03,
 Gaussian 16:  ES64L-G16RevA.03 25-Dec-2016

 ----------------------------------------------------------------------
 #P UB3LYP/6-311++G(d,p) nosym opt freq SCRF=(PCM,Solvent=n,n-DiMethylF
 ormamide)
 ----------------------------------------------------------------------

 -------
 Reduced
 -------
 Symbolic Z-matrix:
 Charge = -2 Multiplicity = 1

 SCF Done:  E(UB3LYP) =  -1148.81772467     A.U. after   18 cycles
 SCF Done:  E(UB3LYP) =  -1148.81854325     A.U. after   13 cycles
 SCF Done:  E(UB3LYP) =  -1148.81867349     A.U. after   13 cycles
 SCF Done:  E(UB3LYP) =  -1148.81867547     A.U. after   12 cycles
 SCF Done:  E(UB3LYP) =  -1148.81868081     A.U. after   10 cycles
 Optimization completed.
    -- Stationary point found.
 Normal termination of Gaussian 16 at Sat Feb 10 17:44:39 2024.

 ----------------------------------------------------------------------
 #P Geom=AllCheck Guess=TCheck SCRF=Check GenChk UB3LYP/6-311++G(d,p) F
 req
 ----------------------------------------------------------------------

 Structure from the checkpoint file:  "118-an.chk"
 -------
 Reduced
 -------
 Charge = -2 Multiplicity = 1

                          Input orientation:
 ---------------------------------------------------------------------
 Center     Atomic      Atomic             Coordinates (Angstroms)
 Number     Number       Type             X           Y           Z
 ---------------------------------------------------------------------
      1         17           0        5.191693   -1.489625    0.001656
      2          6           0        3.622028   -0.649100   -0.146868
      3          6           0        3.634819    0.730085   -0.483427
      4          6           0        2.426631    1.377950   -0.594724
      5          6           0        1.178420    0.727181   -0.388995
      6          6           0       -0.044018    1.470435   -0.520043
      7          8           0       -0.063797    2.736218   -0.819652
      8          6           0       -1.248031    0.711998   -0.294535
      9          6           0       -2.514499    1.353838   -0.404384
     10          6           0       -3.699604    0.685955   -0.197983
     11          6           0       -3.678713   -0.696461    0.138506
     12          6           0       -2.475278   -1.353196    0.251545
     13          6           0       -1.226417   -0.698441    0.044126
     14          6           0       -0.001502   -1.443231    0.175238
     15          8           0        0.018845   -2.711650    0.474290
     16          6           0        1.195655   -0.686281   -0.049682
     17          6           0        2.460572   -1.336730    0.062655
     18          1           0        4.572366    1.247692   -0.645334
     19          1           0        2.401977    2.431369   -0.850336
     20          1           0       -2.513098    2.407267   -0.661397
     21          1           0       -4.647275    1.207738   -0.290273
     22          1           0       -4.610915   -1.227970    0.304417
     23          1           0       -2.444992   -2.406557    0.507129
     24          1           0        2.465134   -2.388482    0.319210
 ---------------------------------------------------------------------

 SCF Done:  E(UB3LYP) =  -1148.81868081     A.U. after    1 cycles

 Alpha  occ. eigenvalues -- -101.54271 -19.02055 -19.01893 -10.21193 -10.17646
 Alpha  occ. eigenvalues --  -10.17469 -10.15997 -10.15737 -10.15636 -10.15084
 Alpha  occ. eigenvalues --  -10.15018 -10.14809 -10.14786 -10.14359 -10.14105
 Alpha  occ. eigenvalues --  -10.14045 -10.13979  -9.45726  -7.22133  -7.21234
 Alpha  occ. eigenvalues --   -7.21215  -0.93375  -0.92893  -0.86790  -0.82663
 Alpha  occ. eigenvalues --   -0.81166  -0.75348  -0.73077  -0.72463  -0.70399
 Alpha  occ. eigenvalues --   -0.64153  -0.61405  -0.58844  -0.56629  -0.53035
 Alpha  occ. eigenvalues --   -0.51050  -0.49726  -0.44783  -0.44519  -0.43855
 Alpha  occ. eigenvalues --   -0.42676  -0.41072  -0.40057  -0.38890  -0.38144
 Alpha  occ. eigenvalues --   -0.37282  -0.37057  -0.36445  -0.35726  -0.32824
 Alpha  occ. eigenvalues --   -0.32770  -0.32372  -0.32159  -0.30809  -0.30087
 Alpha  occ. eigenvalues --   -0.29414  -0.23991  -0.22789  -0.22372  -0.21737
 Alpha  occ. eigenvalues --   -0.20243  -0.19681  -0.11088
 Alpha virt. eigenvalues --   -0.03244  -0.00220   0.00039   0.00852   0.01403
 Alpha virt. eigenvalues --    0.01456   0.01853   0.02555   0.03072   0.04748
 Alpha virt. eigenvalues --    0.04868   0.05160   0.05487   0.05843   0.06701

  Beta  occ. eigenvalues -- -101.54271 -19.02055 -19.01893 -10.21193 -10.17646
  Beta  occ. eigenvalues --  -10.17469 -10.15997 -10.15737 -10.15636 -10.15084
  Beta  occ. eigenvalues --  -10.15018 -10.14809 -10.14786 -10.14359 -10.14105
  Beta  occ. eigenvalues --  -10.14045 -10.13979  -9.45726  -7.22133  -7.21234
  Beta  occ. eigenvalues --   -7.21215  -0.93375  -0.92893  -0.86790  -0.82663
  Beta  occ. eigenvalues --   -0.81166  -0.75348  -0.73077  -0.72463  -0.70399
  Beta  occ. eigenvalues --   -0.64153  -0.61405  -0.58844  -0.56629  -0.53035
  Beta  occ. eigenvalues --   -0.51050  -0.49726  -0.44783  -0.44519  -0.43855
  Beta  occ. eigenvalues --   -0.42676  -0.41072  -0.40057  -0.38890  -0.38144
  Beta  occ. eigenvalues --   -0.37282  -0.37057  -0.36445  -0.35726  -0.32824
  Beta  occ. eigenvalues --   -0.32770  -0.32372  -0.32159  -0.30809  -0.30087
  Beta  occ. eigenvalues --   -0.29414  -0.23991  -0.22789  -0.22372  -0.21737
  Beta  occ. eigenvalues --   -0.20243  -0.19681  -0.11088
  Beta virt. eigenvalues --   -0.03244  -0.00220   0.00039   0.00852   0.01403
  Beta virt. eigenvalues --    0.01456   0.01853   0.02555   0.03072   0.04748
  Beta virt. eigenvalues --    0.04868   0.05160   0.05487   0.05843   0.06701

 Mulliken charges and spin densities:
               1          2
     1  Cl   0.408120  -0.000000
     2  C    0.630754   0.000000
     3  C   -0.572415  -0.000000
     4  C   -0.123136   0.000000
     5  C    0.271881  -0.000000
     6  C   -0.466119  -0.000000
     7  O   -0.666477   0.000000
     8  C    0.244880  -0.000000
     9  C   -0.010163   0.000000
    10  C   -0.490894  -0.000000
    11  C   -0.495111  -0.000000
    12  C    0.007799   0.000000
    13  C    0.261380  -0.000000
    14  C   -0.705577   0.000000
    15  O   -0.672602  -0.000000
    16  C   -0.368189   0.000000
    17  C   -0.372725   0.000000
    18  H    0.181133  -0.000000
    19  H    0.151853   0.000000
    20  H    0.146541   0.000000
    21  H    0.159389  -0.000000
    22  H    0.159437   0.000000
    23  H    0.147733  -0.000000
    24  H    0.172509  -0.000000
 Sum of Mulliken charges =  -2.00000  -0.00000

 Dipole moment (field-independent basis, Debye):
    X=             -3.1404    Y=              1.3912    Z=              1.4130  Tot=              3.7141
 Quadrupole moment (field-independent basis, Debye-Ang):
   XX=           -147.5011   YY=           -165.8979   ZZ=           -120.1387
   XY=              8.4293   XZ=             -0.4057   YZ=             10.9602

  Exact polarizability: 588.933 -14.783 363.296 -12.598 -49.476 167.381
 Approx polarizability: 636.585 -10.778 429.640 -14.792 -61.561 186.981

                      1                      2                      3
                      A                      A                      A
 Frequencies --     52.2617                97.3235               137.5819
 Red. masses --      9.0141                 5.6742                 4.7783
 Frc consts  --      0.0145                 0.0317                 0.0533
 IR Inten    --      9.2121                 9.8142                 2.0138

                      4                      5                      6
                      A                      A                      A
 Frequencies --    152.5811               168.5891               204.4031
 Red. masses --     11.3304                 7.0972                 6.0561
 Frc consts  --      0.1554                 0.1188                 0.1491
 IR Inten    --      4.8060                 7.4160                 1.0055

                      7                      8                      9
                      A                      A                      A
 Frequencies --    264.6990               287.8455               293.4065
 Red. masses --      7.0948                 6.3624                12.0465
 Frc consts  --      0.2929                 0.3106                 0.6110
 IR Inten    --     15.5226                 0.8466                 1.5168

                     10                     11                     12
                      A                      A                      A
 Frequencies --    347.5676               366.3835               409.5817
 Red. masses --      7.2560                10.1623                 7.3074
 Frc consts  --      0.5164                 0.8037                 0.7223
 IR Inten    --      8.4759                 2.7349                 0.0127

                     13                     14                     15
                      A                      A                      A
 Frequencies --    424.2668               425.2573               477.1024
 Red. masses --      4.0725                 5.0735                 3.1616
 Frc consts  --      0.4319                 0.5406                 0.4240
 IR Inten    --      9.5291                 7.7173                 1.2423

                     16                     17                     18
                      A                      A                      A
 Frequencies --    480.5240               515.8838               522.0700
 Red. masses --      8.0505                 9.1336                 4.5017
 Frc consts  --      1.0952                 1.4322                 0.7229
 IR Inten    --     10.2918                15.9781                 7.1708

                     19                     20                     21
                      A                      A                      A
 Frequencies --    625.4342               626.6447               638.0865
 Red. masses --      6.5642                 4.5391                 7.0898
 Frc consts  --      1.5129                 1.0502                 1.7008
 IR Inten    --     56.0174                10.9472                63.0096

                     22                     23                     24
                      A                      A                      A
 Frequencies --    685.2324               693.3366               695.3828
 Red. masses --      6.3938                 6.3695                 2.5273
 Frc consts  --      1.7688                 1.8040                 0.7200
 IR Inten    --      5.6387                72.6421               129.8850

                     25                     26                     27
                      A                      A                      A
 Frequencies --    718.6689               767.8025               782.2453
 Red. masses --      3.8250                 1.5149                 2.0103
 Frc consts  --      1.1640                 0.5262                 0.7248
 IR Inten    --      0.7255                 0.4630                63.4622

                     28                     29                     30
                      A                      A                      A
 Frequencies --    817.9293               820.3811               860.6503
 Red. masses --      2.6472                 6.3845                 1.8827
 Frc consts  --      1.0435                 2.5317                 0.8216
 IR Inten    --     12.9132                74.7114                 0.1894

                     31                     32                     33
                      A                      A                      A
 Frequencies --    908.6717               921.0570               949.9807
 Red. masses --      1.4686                 5.7063                 6.9979
 Frc consts  --      0.7144                 2.8522                 3.7209
 IR Inten    --     23.4888                21.8022                82.7356

                     34                     35                     36
                      A                      A                      A
 Frequencies --    975.6109               978.8000               985.9640
 Red. masses --      1.3062                 1.3530                 1.2588
 Frc consts  --      0.7325                 0.7637                 0.7210
 IR Inten    --      0.3683                 5.6438                 0.2768

                     37                     38                     39
                      A                      A                      A
 Frequencies --   1019.2605              1051.3280              1085.3448
 Red. masses --      2.0817                 2.0666                 3.9140
 Frc consts  --      1.2742                 1.3458                 2.7165
 IR Inten    --    113.0455                 3.3973               967.3631

                     40                     41                     42
                      A                      A                      A
 Frequencies --   1109.1399              1132.0345              1159.4965
 Red. masses --      1.7938                 1.5861                 2.1052
 Frc consts  --      1.3001                 1.1976                 1.6676
 IR Inten    --    152.6858               178.6043               327.7790

                     43                     44                     45
                      A                      A                      A
 Frequencies --   1172.8273              1198.9020              1208.8735
 Red. masses --      2.1510                 1.5951                 2.2414
 Frc consts  --      1.7432                 1.3508                 1.9299
 IR Inten    --    186.1979                15.7863               284.0280

                     46                     47                     48
                      A                      A                      A
 Frequencies --   1240.0585              1307.5440              1325.3170
 Red. masses --      2.4059                 5.2591                 3.0957
 Frc consts  --      2.1798                 5.2975                 3.2036
 IR Inten    --    477.1774               223.1892              1198.1526

                     49                     50                     51
                      A                      A                      A
 Frequencies --   1348.9644              1354.4839              1431.7722
 Red. masses --      6.2903                 2.7713                 3.2588
 Frc consts  --      6.7440                 2.9955                 3.9360
 IR Inten    --    765.5705              1338.4274               167.6047

                     52                     53                     54
                      A                      A                      A
 Frequencies --   1448.8612              1457.6771              1476.9521
 Red. masses --      5.0606                 3.2991                 2.8140
 Frc consts  --      6.2590                 4.1302                 3.6166
 IR Inten    --      6.0427               181.9443                29.3765

                     55                     56                     57
                      A                      A                      A
 Frequencies --   1498.5047              1525.0742              1573.5874
 Red. masses --      5.3648                 5.6334                 6.9870
 Frc consts  --      7.0977                 7.7198                10.1935
 IR Inten    --      0.8662                72.2854                75.6947

                     58                     59                     60
                      A                      A                      A
 Frequencies --   1587.1964              1610.2331              3139.8233
 Red. masses --      7.4481                 5.3017                 1.0846
 Frc consts  --     11.0549                 8.0992                 6.3000
 IR Inten    --    100.3334                10.4574                24.3343

                     61                     62                     63
                      A                      A                      A
 Frequencies --   3154.8176              3171.0198              3171.7517
 Red. masses --      1.0888                 1.0860                 1.0916
 Frc consts  --      6.3851                 6.4342                 6.4699
 IR Inten    --     29.5003                 9.9326                41.3431

                     64                     65                     66
                      A                      A                      A
 Frequencies --   3176.8505              3188.8170              3190.4971
 Red. masses --      1.0935                 1.0937                 1.0909
 Frc consts  --      6.5025                 6.5523                 6.5424
 IR Inten    --     88.1922                23.8333                29.7823

 - Thermochemistry -
 -------------------
 Temperature   298.150 Kelvin.  Pressure   1.00000 Atm.
 Atom     1 has atomic number 17 and mass  34.96885

 Molecular mass:   242.01346 amu.
 Principal axes and moments of inertia in atomic units:
                           1         2         3
     Eigenvalues --  1823.260936973.413818796.65105
           X            0.98722   0.15529   0.03579
           Y           -0.15935   0.95920   0.23354
           Z            0.00194  -0.23626   0.97169
 This molecule is an asymmetric top.
 Rotational symmetry number  1.
 Warning -- assumption of classical behavior for rotation
           may cause significant error
 Rotational temperatures (Kelvin)      0.04750     0.01242     0.00985
 Rotational constants (GHZ):           0.98984     0.25880     0.20516
 Zero-point vibrational energy     434221.8 (Joules/Mol)
                                  103.78150 (Kcal/Mol)
 Warning -- explicit consideration of  18 degrees of freedom as
           vibrations may cause significant error
 Vibrational temperatures:     75.19   140.03   197.95   219.53   242.56
          (Kelvin)            294.09   380.84   414.15   422.15   500.07
                              527.14   589.30   610.43   611.85   686.44
                              691.37   742.24   751.14   899.86   901.60
                              918.06   985.90   997.56  1000.50  1034.00
                             1104.70  1125.48  1176.82  1180.35  1238.28
                             1307.38  1325.20  1366.81  1403.69  1408.27
                             1418.58  1466.49  1512.63  1561.57  1595.80
                             1628.75  1668.26  1687.44  1724.95  1739.30
                             1784.17  1881.26  1906.84  1940.86  1948.80
                             2060.00  2084.59  2097.27  2125.00  2156.01
                             2194.24  2264.04  2283.62  2316.77  4517.51
                             4539.08  4562.39  4563.44  4570.78  4588.00
                             4590.41

 Zero-point correction=                           0.165386 (Hartree/Particle)
 Thermal correction to Energy=                    0.177908
 Thermal correction to Enthalpy=                  0.178852
 Thermal correction to Gibbs Free Energy=         0.126234
 Sum of electronic and zero-point Energies=          -1148.653294
 Sum of electronic and thermal Energies=             -1148.640773
 Sum of electronic and thermal Enthalpies=           -1148.639829
 Sum of electronic and thermal Free Energies=        -1148.692447

                     E (Thermal)             CV                S
                      KCal/Mol        Cal/Mol-Kelvin    Cal/Mol-Kelvin
 Total                  111.639             50.698            110.744
 Electronic               0.000              0.000              0.000
 Translational            0.889              2.981             42.353
 Rotational               0.889              2.981             33.080
 Vibrational            109.861             44.736             35.311
 Vibration     1          0.596              1.977              4.730
 Vibration     2          0.603              1.951              3.507
 Vibration     3          0.614              1.916              2.837
 Vibration     4          0.619              1.900              2.640
 Vibration     5          0.625              1.881              2.451
 Vibration     6          0.640              1.834              2.093
 Vibration     7          0.671              1.738              1.631
 Vibration     8          0.685              1.696              1.487
 Vibration     9          0.688              1.686              1.454
 Vibration    10          0.725              1.580              1.177
 Vibration    11          0.739              1.541              1.095
 Vibration    12          0.774              1.449              0.928
 Vibration    13          0.786              1.417              0.878
 Vibration    14          0.787              1.415              0.874
 Vibration    15          0.834              1.301              0.718
 Vibration    16          0.837              1.293              0.709
 Vibration    17          0.871              1.215              0.620
 Vibration    18          0.877              1.201              0.605

 Optimization completed.
    -- Stationary point found.
 Normal termination of Gaussian 16 at Sat Feb 10 18:40:17 2024.
