 Gaussian 16, Revision A.03,
 Gaussian 16:  ES64L-G16RevA.03 25-Dec-2016

 ----------------------------------------------------------------
 #P UB3LYP/6-311++G(d,p) SCRF=(PCM,Solvent=n,n-DiMethylFormamide)
 ----------------------------------------------------------------

 ------------------
 Quinone PCM in DMF
 ------------------
 Symbolic Z-matrix:
 Charge =  0 Multiplicity = 1

                         Standard orientation:
 ---------------------------------------------------------------------
 Center     Atomic      Atomic             Coordinates (Angstroms)
 Number     Number       Type             X           Y           Z
 ---------------------------------------------------------------------
      1          6           0       -0.024905    1.985540   -0.288885
      2          6           0       -1.294660    2.548894   -0.430526
      3          6           0       -2.437661    1.772391   -0.282664
      4          6           0        0.083458    0.617322   -0.004828
      5          6           0       -1.074980   -0.174567    0.128200
      6          6           0       -2.341890    0.406456   -0.017653
      7          6           0        1.435877    0.013547    0.188138
      8          6           0        1.526402   -1.474807    0.237651
      9          6           0        0.421510   -2.212196    0.425280
     10          6           0       -0.934865   -1.620045    0.475314
     11          8           0        2.416654    0.712182    0.362646
     12          8           0       -1.888413   -2.308246    0.794044
     13          1           0       -3.415863    2.227026   -0.386037
     14          1           0        0.476675   -3.285617    0.569239
     15          6           0       -3.631911   -0.362531    0.116669
     16          8           0       -4.403207   -0.203979    1.028758
     17          8           0       -3.847203   -1.144169   -0.948862
     18          6           0       -5.028620   -1.971914   -0.894365
     19          1           0       -1.388799    3.601743   -0.671362
     20          1           0       -5.051101   -2.503553   -1.842482
     21          1           0       -5.920118   -1.356028   -0.773575
     22          1           0       -4.948305   -2.670564   -0.060994
     23          6           0        2.868425   -2.154013    0.183601
     24          8           0        3.174807   -3.082505    0.890999
     25          8           0        3.634291   -1.632225   -0.775814
     26          6           0        1.160767    2.875309   -0.613655
     27          8           0        1.554815    2.964746   -1.745234
     28          8           0        1.649723    3.678456    0.347248
     29          6           0        1.356031    3.438465    1.735185
     30          6           0        4.951415   -2.203434   -0.925081
     31          1           0        1.801606    4.274711    2.269619
     32          1           0        1.818513    2.505131    2.057654
     33          1           0        0.280692    3.418444    1.922366
     34          1           0        5.411620   -1.649638   -1.739108
     35          1           0        4.878377   -3.264158   -1.167416
     36          1           0        5.518612   -2.078075   -0.002458
 ---------------------------------------------------------------------

 SCF Done:  E(UB3LYP) =  -1219.07373428     A.U. after   16 cycles

 The electronic state is 1-A.
 Alpha  occ. eigenvalues --  -19.19359 -19.18792 -19.18739 -19.15814 -19.15632
 Alpha  occ. eigenvalues --  -19.14162 -19.13779 -19.13651 -10.33543 -10.33492
 Alpha  occ. eigenvalues --  -10.33114 -10.30981 -10.30516 -10.24376 -10.23813
 Alpha  occ. eigenvalues --  -10.23740 -10.23673 -10.23584 -10.23463 -10.23364
 Alpha  occ. eigenvalues --  -10.23341 -10.23042 -10.22203 -10.22121  -1.13830
 Alpha  occ. eigenvalues --   -1.13239  -1.12890  -1.09330  -1.08900  -1.05223
 Alpha  occ. eigenvalues --   -1.05142  -1.04794  -0.91927  -0.87180  -0.82608
 Alpha  occ. eigenvalues --   -0.80851  -0.76209  -0.75116  -0.74205  -0.72123
 Alpha  occ. eigenvalues --   -0.69271  -0.67508  -0.65093  -0.60783  -0.59567
 Alpha  occ. eigenvalues --   -0.58140  -0.56879  -0.56140  -0.54707  -0.54092
 Alpha  occ. eigenvalues --   -0.53256  -0.51262  -0.50785  -0.50313  -0.49953
 Alpha  occ. eigenvalues --   -0.49885  -0.49508  -0.48910  -0.47810  -0.47329
 Alpha  occ. eigenvalues --   -0.46890  -0.46495  -0.44967  -0.44217  -0.44050
 Alpha  occ. eigenvalues --   -0.43897  -0.42314  -0.41969  -0.41837  -0.41274
 Alpha  occ. eigenvalues --   -0.40467  -0.40004  -0.38278  -0.37756  -0.37149
 Alpha  occ. eigenvalues --   -0.33786  -0.33277  -0.32781  -0.32374  -0.32278
 Alpha  occ. eigenvalues --   -0.31588  -0.31300  -0.30828  -0.30030  -0.29389
 Alpha  occ. eigenvalues --   -0.28621
 Alpha virt. eigenvalues --   -0.14705  -0.08493  -0.06608  -0.02573  -0.02479
 Alpha virt. eigenvalues --   -0.01292  -0.00864  -0.00112   0.00118   0.00767
 Alpha virt. eigenvalues --    0.01019   0.01578   0.01913   0.02393   0.02889

  Beta  occ. eigenvalues --  -19.19359 -19.18792 -19.18739 -19.15814 -19.15632
  Beta  occ. eigenvalues --  -19.14162 -19.13779 -19.13651 -10.33543 -10.33492
  Beta  occ. eigenvalues --  -10.33114 -10.30981 -10.30516 -10.24376 -10.23813
  Beta  occ. eigenvalues --  -10.23740 -10.23673 -10.23584 -10.23463 -10.23364
  Beta  occ. eigenvalues --  -10.23341 -10.23042 -10.22203 -10.22121  -1.13830
  Beta  occ. eigenvalues --   -1.13239  -1.12890  -1.09330  -1.08900  -1.05223
  Beta  occ. eigenvalues --   -1.05142  -1.04794  -0.91927  -0.87180  -0.82608
  Beta  occ. eigenvalues --   -0.80851  -0.76209  -0.75116  -0.74205  -0.72123
  Beta  occ. eigenvalues --   -0.69271  -0.67508  -0.65093  -0.60783  -0.59567
  Beta  occ. eigenvalues --   -0.58140  -0.56879  -0.56140  -0.54707  -0.54092
  Beta  occ. eigenvalues --   -0.53256  -0.51262  -0.50785  -0.50313  -0.49953
  Beta  occ. eigenvalues --   -0.49885  -0.49508  -0.48910  -0.47810  -0.47329
  Beta  occ. eigenvalues --   -0.46890  -0.46495  -0.44967  -0.44217  -0.44050
  Beta  occ. eigenvalues --   -0.43897  -0.42314  -0.41969  -0.41837  -0.41274
  Beta  occ. eigenvalues --   -0.40467  -0.40004  -0.38278  -0.37756  -0.37149
  Beta  occ. eigenvalues --   -0.33786  -0.33277  -0.32781  -0.32374  -0.32278
  Beta  occ. eigenvalues --   -0.31588  -0.31300  -0.30828  -0.30030  -0.29389
  Beta  occ. eigenvalues --   -0.28621
  Beta virt. eigenvalues --   -0.14705  -0.08493  -0.06608  -0.02573  -0.02479
  Beta virt. eigenvalues --   -0.01292  -0.00864  -0.00112   0.00118   0.00767
  Beta virt. eigenvalues --    0.01019   0.01578   0.01913   0.02393   0.02889

 Mulliken charges and spin densities:
               1          2
     1  C   -0.064706   0.000000
     2  C    0.252974  -0.000000
     3  C   -0.009630  -0.000000
     4  C    0.621368  -0.000000
     5  C    0.588600   0.000000
     6  C    0.672478  -0.000000
     7  C   -0.824521   0.000000
     8  C    0.343984  -0.000000
     9  C   -0.417894  -0.000000
    10  C   -0.562890  -0.000000
    11  O   -0.165900  -0.000000
    12  O   -0.196031   0.000000
    13  H    0.235776   0.000000
    14  H    0.252454  -0.000000
    15  C   -0.803787   0.000000
    16  O   -0.212029  -0.000000
    17  O    0.036580  -0.000000
    18  C   -0.246869   0.000000
    19  H    0.254351  -0.000000
    20  H    0.179743   0.000000
    21  H    0.177004   0.000000
    22  H    0.191168  -0.000000
    23  C    0.022224   0.000000
    24  O   -0.260191   0.000000
    25  O   -0.025556  -0.000000
    26  C   -0.326102   0.000000
    27  O   -0.234484  -0.000000
    28  O   -0.014033   0.000000
    29  C   -0.352597  -0.000000
    30  C   -0.245559   0.000000
    31  H    0.185651  -0.000000
    32  H    0.214135  -0.000000
    33  H    0.170967   0.000000
    34  H    0.178913  -0.000000
    35  H    0.185709  -0.000000
    36  H    0.198696  -0.000000
 Sum of Mulliken charges =  -0.00000  -0.00000

 Dipole moment (field-independent basis, Debye):
    X=             -1.9493    Y=             -0.1877    Z=             -0.2806  Tot=              1.9783
 Quadrupole moment (field-independent basis, Debye-Ang):
   XX=           -130.5356   YY=           -136.7028   ZZ=           -142.3227
   XY=            -13.3970   XZ=             13.1411   YZ=             23.2554

 Normal termination of Gaussian 16 at Sun Jan 21 08:07:21 2024.
