 Q-Chem 5.4, Q-Chem, Inc., Pleasanton, CA (2021)
 Q-Chem 5.4.0 for Intel X86 EM64T Linux

User input:
--------------------------------------------------------------
$molecule
-2 1
C                  4.4054090000     -0.1064040000     -0.1277940000
C                  2.9382740000      0.2574820000     -0.1880200000
C                  2.6000450000      1.6047200000     -0.4802180000
C                  1.2837110000      2.0301740000     -0.4461990000
C                  0.2190450000      1.1578980000     -0.1854270000
C                 -1.1304490000      1.7018190000     -0.2164620000
O                 -1.3751000000      2.9418400000     -0.4010010000
C                 -2.1830460000      0.7144210000     -0.0623390000
C                 -3.5361690000      1.1309520000     -0.0767460000
C                 -4.5787820000      0.2340250000      0.0447060000
C                 -4.2938600000     -1.1503340000      0.1858150000
C                 -2.9836000000     -1.5840510000      0.1978230000
C                 -1.8911980000     -0.6887030000      0.0778400000
C                 -0.5364220000     -1.2374310000      0.1033570000
O                 -0.3304400000     -2.4945810000      0.1616370000
C                  0.5079040000     -0.2539920000      0.0426200000
C                  1.9005490000     -0.6175450000      0.1102780000
N                  2.3068550000     -1.9001770000      0.6711380000
O                  3.1320680000     -2.5929930000      0.0261410000
O                  1.9126710000     -2.2091320000      1.8024210000
H                  4.7289640000     -0.6137110000     -1.0427400000
H                  4.6370130000     -0.7869360000      0.6949590000
H                  5.0046850000      0.8044780000     -0.0090240000
H                  3.4013680000      2.3121690000     -0.6814790000
H                  1.0250930000      3.0687920000     -0.6281780000
H                 -3.7150720000      2.1956290000     -0.1911160000
H                 -5.6098680000      0.5824920000      0.0324750000
H                 -5.1081310000     -1.8662720000      0.2842910000
H                 -2.7315190000     -2.6346290000      0.3012430000
$end
$rem
MAX_SCF_CYCLES=200
BASIS  =  6-311++G(d,p)
GUI  =  2
JOB_TYPE  =  SP
METHOD  =  B3LYP
SOLVENT_METHOD = COSMO
$end
$solvent
dielectric 37.219
opticaldielectric 1.43
$end

--------------------------------------------------------------

             Standard Nuclear Orientation (Angstroms)
    I     Atom           X                Y                Z
 ----------------------------------------------------------------
    1      C       4.3375970096     0.7504824331    -0.1550613380
    2      C       2.8327542688     0.9050304263    -0.1456515809
    3      C       2.3006453576     2.2209572357    -0.1507008473
    4      C       0.9386902565     2.4370357674    -0.0354100461
    5      C       0.0145696801     1.3863255493     0.0308496373
    6      C      -1.3985325557     1.7258266487     0.1071933080
    7      O      -1.8202332996     2.9289921590     0.1854369794
    8      C      -2.2971000497     0.5876744519     0.0451031367
    9      C      -3.6954034532     0.7999388578     0.1109734838
   10      C      -4.5976668272    -0.2424453629     0.0359638871
   11      C      -4.1168143815    -1.5704500893    -0.1147892518
   12      C      -2.7585655371    -1.8049799796    -0.1868427265
   13      C      -1.8067677201    -0.7573005864    -0.1104562397
   14      C      -0.3878960970    -1.0995469705    -0.1931742874
   15      O      -0.0051720060    -2.2985234890    -0.3986708650
   16      C       0.5053552173     0.0141391312    -0.0406508449
   17      C       1.9366134927    -0.1523003022    -0.0431305437
   18      N       2.5336266281    -1.4519311408     0.2385223495
   19      O       3.4321441123    -1.8697492961    -0.5328957958
   20      O       2.2151061409    -2.0429294843     1.2777052502
   21      H       4.7067718865     0.4965491994    -1.1542621368
   22      H       4.6832148343    -0.0461625311     0.5079558827
   23      H       4.8050725233     1.6928548425     0.1553334769
   24      H       2.9888753522     3.0620909064    -0.1947718186
   25      H       0.5316546066     3.4428048041     0.0030295256
   26      H      -4.0255515343     1.8282522061     0.2214171205
   27      H      -5.6675962893    -0.0503783037     0.0914470169
   28      H      -4.8192039877    -2.4002419334    -0.1730673812
   29      H      -2.3582553343    -2.8068935854    -0.3046371624
 ----------------------------------------------------------------

   13    -932.8307512461      4.61e-06  Convergence criterion met
 Total energy in the final basis set =     -932.8307512461
    6    -933.0984644891      6.55e-06  Convergence criterion met
 Total energy in the final basis set =     -933.0984644891

                    Orbital Energies (a.u.)
 --------------------------------------------------------------

 Alpha MOs
 -- Occupied --
-19.1312 -19.1266 -19.0475 -19.0337 -14.5067 -10.2050 -10.2016 -10.1891
-10.1875 -10.1635 -10.1605 -10.1587 -10.1586 -10.1577 -10.1573 -10.1551
-10.1547 -10.1542 -10.1536 -10.1528  -1.1898  -1.0180  -0.9673  -0.9567
 -0.8576  -0.8372  -0.7851  -0.7703  -0.7391  -0.7343  -0.6941  -0.6721
 -0.6366  -0.6130  -0.5971  -0.5636  -0.5431  -0.5307  -0.5058  -0.4985
 -0.4933  -0.4825  -0.4510  -0.4477  -0.4336  -0.4278  -0.4131  -0.4082
 -0.4012  -0.3934  -0.3876  -0.3812  -0.3710  -0.3634  -0.3495  -0.3463
 -0.3441  -0.3307  -0.3186  -0.3141  -0.2938  -0.2920  -0.2847  -0.2435
 -0.2403  -0.2359  -0.2276  -0.2229  -0.2101  -0.1221

          Ground-State Mulliken Net Atomic Charges

     Atom                 Charge (a.u.)
  ----------------------------------------
      1 C                    -0.554555
      2 C                     0.452760
      3 C                    -0.779368
      4 C                    -0.257018
      5 C                     0.600368
      6 C                    -0.253048
      7 O                    -0.608204
      8 C                     0.351493
      9 C                     0.041461
     10 C                    -0.558383
     11 C                    -0.548179
     12 C                     0.052895
     13 C                     0.059635
     14 C                    -0.733127
     15 O                    -0.599024
     16 C                     0.027071
     17 C                     0.170246
     18 N                    -0.175088
     19 O                    -0.157331
     20 O                    -0.141776
     21 H                     0.209562
     22 H                     0.181701
     23 H                     0.155163
     24 H                     0.184937
     25 H                     0.166823
     26 H                     0.165435
     27 H                     0.188837
     28 H                     0.191163
     29 H                     0.165551
  ----------------------------------------
  Sum of atomic charges =    -2.000000

                    Cartesian Multipole Moments
 -----------------------------------------------------------------
    Charge (ESU x 10^10)
                -9.6064
    Dipole Moment (Debye)
         X       0.6110      Y       4.8252      Z      -0.3832
       Tot       4.8788
    Quadrupole Moments (Debye-Ang)
        XX    -155.0386     XY      35.7177     YY    -177.2664
        XZ      -0.0277     YZ      -1.5786     ZZ    -130.6070

 Total job time:  104.13s(wall), 790.97s(cpu)
        *  Thank you very much for using Q-Chem.  Have a nice day.  *
