 Q-Chem 5.4, Q-Chem, Inc., Pleasanton, CA (2021)
 Q-Chem 5.4.0 for Intel X86 EM64T Linux

User input:
--------------------------------------------------------------
$molecule
0 1
C                  5.7684430000     -5.7169190000      0.4459840000
C                  5.9060580000     -5.8611270000     -0.9307010000
C                  5.2295100000     -4.9992180000     -1.7979610000
C                  4.9516710000     -4.7078450000      0.9619180000
C                  4.2738090000     -3.8432260000      0.0928330000
C                  4.4156190000     -3.9924210000     -1.2890420000
C                  4.8007930000     -4.5539360000      2.4352140000
C                  3.9143230000     -3.4702610000      2.9616730000
C                  3.2744870000     -2.6162770000      2.1231670000
C                  3.4047780000     -2.7624810000      0.6377100000
O                  5.3876670000     -5.2956840000      3.2090780000
O                  2.8064760000     -2.0057620000     -0.1126370000
H                  6.5396620000     -6.6443670000     -1.3311750000
C                  2.3692160000     -1.4993840000      2.5786710000
H                  5.3390700000     -5.1147320000     -2.8703250000
C                  3.8213740000     -3.4246580000      4.4610170000
C                  0.8947240000     -1.9378900000      2.7067790000
C                 -0.0280760000     -0.7889530000      3.1265720000
C                 -1.4972460000     -1.2065800000      3.2564720000
H                  6.2831040000     -6.3734930000      1.1365630000
H                  3.8828850000     -3.3132350000     -1.9430010000
H                  2.4270960000     -0.6921350000      1.8456210000
H                  2.7159730000     -1.0984240000      3.5336810000
H                  3.5392540000     -4.4067780000      4.8483590000
H                  3.1031420000     -2.6877520000      4.8124260000
H                  4.8005760000     -3.2015620000      4.8955050000
H                  0.8194950000     -2.7553860000      3.4337450000
H                  0.5604980000     -2.3425690000      1.7457860000
H                  0.0548010000      0.0242670000      2.3948180000
H                  0.3171360000     -0.3754630000      4.0833230000
H                 -1.5790170000     -2.0233160000      3.9854020000
H                 -1.8409920000     -1.6182740000      2.2990000000
C                 -2.4248970000     -0.0604910000      3.6759940000
C                 -3.8949510000     -0.4759580000      3.8026250000
C                 -4.8236030000      0.6695760000      4.2212490000
C                 -6.2937320000      0.2547160000      4.3468890000
C                 -7.2236720000      1.3993070000      4.7653360000
C                 -8.6901050000      0.9749490000      4.8877460000
H                 -2.3414820000      0.7565780000      2.9477980000
H                 -2.0814720000      0.3508740000      4.6341240000
H                 -3.9783810000     -1.2934090000      4.5306070000
H                 -4.2378280000     -0.8874110000      2.8444480000
H                 -4.7397800000      1.4870940000      3.4934080000
H                 -4.4809960000      1.0809530000      5.1796930000
H                 -6.3786920000     -0.5628700000      5.0748010000
H                 -6.6373010000     -0.1564790000      3.3885920000
H                 -7.1396570000      2.2160910000      4.0380390000
H                 -6.8814090000      1.8099050000      5.7231760000
H                 -9.0719840000      0.5924410000      3.9358110000
H                 -9.3257220000      1.8129970000      5.1872170000
H                 -8.8118360000      0.1830080000      5.6336430000
$end
$rem
MAX_SCF_CYCLES=200
BASIS  =  6-311++G(d,p)
GUI  =  2
JOB_TYPE  =  SP
METHOD  =  B3LYP
SCF_CONVERGENCE  = 8
SOLVENT_METHOD = COSMO
$end
$solvent
dielectric 37.219
opticaldielectric 1.43
$end

--------------------------------------------------------------

             Standard Nuclear Orientation (Angstroms)
    I     Atom           X                Y                Z
 ----------------------------------------------------------------
    1      C       6.2620867501     0.0976955521    -1.0109247182
    2      C       6.8471795513     1.3596428343    -1.0232086753
    3      C       6.1695114081     2.4529943986    -0.4772302207
    4      C       4.9939436144    -0.0761150834    -0.4513377454
    5      C       4.3145810865     1.0195795928     0.0966507361
    6      C       4.9068599738     2.2848592067     0.0817860763
    7      C       4.3648422011    -1.4256177235    -0.4400554166
    8      C       3.0030666677    -1.5832462011     0.1583259877
    9      C       2.3518495479    -0.5285537886     0.7108757765
   10      C       2.9636229955     0.8391153214     0.6986976298
   11      O       4.9439069457    -2.3941277152    -0.9092559018
   12      O       2.3616436201     1.7897138773     1.1757644655
   13      H       7.8311888743     1.4946684912    -1.4577107758
   14      C       0.9813599858    -0.6103314623     1.3349913292
   15      H       6.6286034013     3.4350401383    -0.4887251426
   16      C       2.4602484392    -2.9832156009     0.0936295354
   17      C      -0.1541938033    -0.3441217634     0.3238158657
   18      C      -1.5422568949    -0.3841374219     0.9715209171
   19      C      -2.6821994306    -0.1194478628    -0.0185383047
   20      H       6.7688354201    -0.7635335470    -1.4284830279
   21      H       4.3644729981     3.1182193111     0.5108418022
   22      H       0.9213313160     0.1389738941     2.1270149314
   23      H       0.8360184737    -1.5882717332     1.7992779973
   24      H       2.4995542273    -3.3525372929    -0.9341066937
   25      H       1.4363468217    -3.0508809236     0.4533833758
   26      H       3.0881281242    -3.6613285219     0.6795631252
   27      H      -0.1032166988    -1.0834717479    -0.4843930262
   28      H       0.0052647672     0.6356115264    -0.1384343948
   29      H      -1.5834684838     0.3572256504     1.7791976358
   30      H      -1.6945280447    -1.3622603485     1.4465017782
   31      H      -2.6377701970    -0.8587251033    -0.8288335224
   32      H      -2.5291746511     0.8590889352    -0.4912486228
   33      C      -4.0732238806    -0.1580429484     0.6245919162
   34      C      -5.2138384363     0.1101982267    -0.3637157832
   35      C      -6.6052378723     0.0727023835     0.2785383775
   36      C      -7.7458698597     0.3419607175    -0.7092025424
   37      C      -9.1379487594     0.3049268672    -0.0683283867
   38      C     -10.2705784995     0.5754191534    -1.0630511917
   39      H      -4.1165834547     0.5800880460     1.4358328236
   40      H      -4.2265878016    -1.1371422315     1.0968408889
   41      H      -5.1702736656    -0.6277557826    -1.1753009516
   42      H      -5.0599509566     1.0891772878    -0.8358174810
   43      H      -6.6485316275     0.8104142228     1.0903397016
   44      H      -6.7594071396    -0.9064599352     0.7504477801
   45      H      -7.7035529920    -0.3954970528    -1.5215363830
   46      H      -7.5926499340     1.3212748213    -1.1813483531
   47      H      -9.1809400663     1.0420038550     0.7428588979
   48      H      -9.2919210297    -0.6736243787     0.4027577449
   49      H     -10.1640031855     1.5620615197    -1.5251147462
   50      H     -11.2486339179     0.5418589524    -0.5748938275
   51      H     -10.2757838124    -0.1664937369    -1.8679670173
 ----------------------------------------------------------------

   14    -967.8370944052      8.88e-09  Convergence criterion met
 Total energy in the final basis set =     -967.8370944052
   10    -967.8504990755      8.03e-09  Convergence criterion met
 Total energy in the final basis set =     -967.8504990755

                    Orbital Energies (a.u.)
 --------------------------------------------------------------

 Alpha MOs
 -- Occupied --
-19.1332 -19.1331 -10.2813 -10.2808 -10.2123 -10.2097 -10.2049 -10.2043
-10.1953 -10.1951 -10.1947 -10.1943 -10.1741 -10.1710 -10.1675 -10.1606
-10.1587 -10.1583 -10.1572 -10.1568 -10.1566 -10.1564 -10.1521  -1.0677
 -1.0659  -0.8883  -0.8511  -0.8112  -0.7985  -0.7852  -0.7757  -0.7710
 -0.7459  -0.7205  -0.6946  -0.6776  -0.6568  -0.6305  -0.6168  -0.5976
 -0.5827  -0.5791  -0.5722  -0.5699  -0.5497  -0.5173  -0.4997  -0.4842
 -0.4757  -0.4676  -0.4614  -0.4600  -0.4560  -0.4490  -0.4435  -0.4340
 -0.4280  -0.4260  -0.4196  -0.4183  -0.4082  -0.4064  -0.3967  -0.3944
 -0.3894  -0.3867  -0.3759  -0.3737  -0.3665  -0.3634  -0.3566  -0.3446
 -0.3416  -0.3369  -0.3276  -0.3248  -0.3209  -0.3186  -0.3170  -0.3020
 -0.2896  -0.2882  -0.2769  -0.2720  -0.2685

          Ground-State Mulliken Net Atomic Charges

     Atom                 Charge (a.u.)
  ----------------------------------------
      1 C                     0.224654
      2 C                    -0.484693
      3 C                    -0.420321
      4 C                     0.011868
      5 C                    -0.153483
      6 C                     0.193493
      7 C                    -0.322654
      8 C                     0.866181
      9 C                     1.045996
     10 C                    -0.904997
     11 O                    -0.300607
     12 O                    -0.280903
     13 H                     0.222816
     14 C                    -0.595973
     15 H                     0.222476
     16 C                    -0.480326
     17 C                    -0.953753
     18 C                    -0.264928
     19 C                    -0.035299
     20 H                     0.204657
     21 H                     0.203136
     22 H                     0.228306
     23 H                     0.226359
     24 H                     0.194908
     25 H                     0.148124
     26 H                     0.215517
     27 H                     0.151626
     28 H                     0.196878
     29 H                     0.128425
     30 H                     0.134600
     31 H                     0.136740
     32 H                     0.133521
     33 C                     0.054379
     34 C                    -0.022357
     35 C                    -0.245505
     36 C                    -0.458060
     37 C                    -0.289341
     38 C                    -0.710316
     39 H                     0.136385
     40 H                     0.135543
     41 H                     0.135043
     42 H                     0.134723
     43 H                     0.131532
     44 H                     0.131560
     45 H                     0.128514
     46 H                     0.128774
     47 H                     0.136122
     48 H                     0.136017
     49 H                     0.145354
     50 H                     0.153876
     51 H                     0.145412
  ----------------------------------------
  Sum of atomic charges =     0.000000

                    Cartesian Multipole Moments
 -----------------------------------------------------------------
    Charge (ESU x 10^10)
                -0.0000
    Dipole Moment (Debye)
         X       0.2570      Y       0.4384      Z      -0.1942
       Tot       0.5440
    Quadrupole Moments (Debye-Ang)
        XX    -130.8035     XY      18.8906     YY    -143.3444
        XZ      -3.0266     YZ      -7.4444     ZZ    -146.0021

 Total job time:  321.59s(wall), 2476.14s(cpu)
        *  Thank you very much for using Q-Chem.  Have a nice day.  *
