 Gaussian 16, Revision A.03,
 Gaussian 16:  ES64L-G16RevA.03 25-Dec-2016

 ----------------------------------------------------------------------
 #P UB3LYP/6-311++G(d,p) nosym opt freq SCRF=(PCM,Solvent=n,n-DiMethylF
 ormamide)
 ----------------------------------------------------------------------

 -------
 Reduced
 -------
 Symbolic Z-matrix:
 Charge = -2 Multiplicity = 1

 SCF Done:  E(UB3LYP) =  -744.541522844     A.U. after   18 cycles
 SCF Done:  E(UB3LYP) =  -744.544122339     A.U. after   15 cycles
 SCF Done:  E(UB3LYP) =  -744.544835462     A.U. after   14 cycles
 SCF Done:  E(UB3LYP) =  -744.545088958     A.U. after   13 cycles
 SCF Done:  E(UB3LYP) =  -744.545189043     A.U. after   14 cycles
 SCF Done:  E(UB3LYP) =  -744.545239935     A.U. after   13 cycles
 SCF Done:  E(UB3LYP) =  -744.545267076     A.U. after   13 cycles
 SCF Done:  E(UB3LYP) =  -744.545275348     A.U. after   12 cycles
 SCF Done:  E(UB3LYP) =  -744.545278101     A.U. after   12 cycles
 SCF Done:  E(UB3LYP) =  -744.545278760     A.U. after   11 cycles
 SCF Done:  E(UB3LYP) =  -744.545279074     A.U. after   11 cycles
 Optimization completed.
    -- Stationary point found.
 Normal termination of Gaussian 16 at Sat Feb 10 13:43:50 2024.

 ----------------------------------------------------------------------
 #P Geom=AllCheck Guess=TCheck SCRF=Check GenChk UB3LYP/6-311++G(d,p) F
 req
 ----------------------------------------------------------------------

 Structure from the checkpoint file:  "114-an.chk"
 -------
 Reduced
 -------
 Charge = -2 Multiplicity = 1

                          Input orientation:
 ---------------------------------------------------------------------
 Center     Atomic      Atomic             Coordinates (Angstroms)
 Number     Number       Type             X           Y           Z
 ---------------------------------------------------------------------
      1          6           0       -3.071995   -3.249965   -0.587935
      2          6           0       -2.118331   -2.214827   -0.881306
      3          6           0       -2.515664   -0.860973   -0.950455
      4          6           0       -3.844797   -0.397818   -0.763607
      5          6           0       -4.781698   -1.437488   -0.507102
      6          6           0       -4.408748   -2.781909   -0.427766
      7          8           0       -2.757182   -4.516740   -0.440825
      8          8           0       -4.181567    0.877522   -0.835671
      9          6           0       -0.684421   -2.528237   -1.084360
     10          6           0       -0.083067   -3.433402   -2.042376
     11          6           0        0.372419   -1.923731   -0.440814
     12          6           0        1.330989   -3.318637   -1.919996
     13          7           0        1.580381   -2.391164   -0.934836
     14          6           0       -0.603867   -4.302645   -3.015989
     15          6           0        0.268164   -5.029488   -3.816862
     16          6           0        1.666281   -4.907912   -3.668187
     17          6           0        2.214364   -4.051459   -2.720385
     18          1           0       -1.755719   -0.115971   -1.181815
     19          1           0       -5.827478   -1.164833   -0.366870
     20          1           0       -5.170324   -3.529632   -0.208595
     21          1           0        0.359876   -1.183050    0.344103
     22          1           0        2.490575   -2.107405   -0.610115
     23          1           0       -1.676579   -4.409422   -3.121143
     24          1           0       -0.127207   -5.705700   -4.567413
     25          1           0        2.323938   -5.490312   -4.304334
     26          1           0        3.288695   -3.950923   -2.609097
 ---------------------------------------------------------------------

 SCF Done:  E(UB3LYP) =  -744.545279074     A.U. after    1 cycles

 Alpha  occ. eigenvalues --  -19.00756 -19.00582 -14.34518 -10.19782 -10.18770
 Alpha  occ. eigenvalues --  -10.16917 -10.16521 -10.16328 -10.16237 -10.16101
 Alpha  occ. eigenvalues --  -10.16035 -10.16007 -10.15366 -10.13158 -10.11920
 Alpha  occ. eigenvalues --  -10.11840 -10.11700  -0.97059  -0.91262  -0.90774
 Alpha  occ. eigenvalues --   -0.83553  -0.79104  -0.76386  -0.73074  -0.71883
 Alpha  occ. eigenvalues --   -0.68728  -0.64318  -0.61704  -0.58925  -0.58123
 Alpha  occ. eigenvalues --   -0.54320  -0.53571  -0.50681  -0.47331  -0.46414
 Alpha  occ. eigenvalues --   -0.43321  -0.42497  -0.42348  -0.42013  -0.40989
 Alpha  occ. eigenvalues --   -0.40369  -0.38680  -0.36796  -0.35664  -0.34571
 Alpha  occ. eigenvalues --   -0.34261  -0.33516  -0.33345  -0.31459  -0.31120
 Alpha  occ. eigenvalues --   -0.29926  -0.27403  -0.22319  -0.21946  -0.21524
 Alpha  occ. eigenvalues --   -0.19189  -0.18750  -0.18400  -0.11486
 Alpha virt. eigenvalues --   -0.01666  -0.00008   0.00933   0.01073   0.01525
 Alpha virt. eigenvalues --    0.02002   0.02276   0.02403   0.03314   0.03756
 Alpha virt. eigenvalues --    0.04555   0.04953   0.05085   0.05896   0.06201

  Beta  occ. eigenvalues --  -19.00756 -19.00582 -14.34518 -10.19782 -10.18770
  Beta  occ. eigenvalues --  -10.16917 -10.16521 -10.16328 -10.16237 -10.16101
  Beta  occ. eigenvalues --  -10.16035 -10.16007 -10.15366 -10.13158 -10.11920
  Beta  occ. eigenvalues --  -10.11840 -10.11700  -0.97059  -0.91262  -0.90774
  Beta  occ. eigenvalues --   -0.83553  -0.79104  -0.76386  -0.73074  -0.71883
  Beta  occ. eigenvalues --   -0.68728  -0.64318  -0.61704  -0.58925  -0.58123
  Beta  occ. eigenvalues --   -0.54320  -0.53571  -0.50681  -0.47331  -0.46414
  Beta  occ. eigenvalues --   -0.43321  -0.42497  -0.42348  -0.42013  -0.40989
  Beta  occ. eigenvalues --   -0.40369  -0.38680  -0.36796  -0.35664  -0.34571
  Beta  occ. eigenvalues --   -0.34261  -0.33516  -0.33345  -0.31459  -0.31120
  Beta  occ. eigenvalues --   -0.29926  -0.27403  -0.22319  -0.21946  -0.21524
  Beta  occ. eigenvalues --   -0.19189  -0.18750  -0.18400  -0.11486
  Beta virt. eigenvalues --   -0.01666  -0.00008   0.00933   0.01073   0.01525
  Beta virt. eigenvalues --    0.02002   0.02276   0.02403   0.03314   0.03756
  Beta virt. eigenvalues --    0.04555   0.04953   0.05085   0.05896   0.06201

 Mulliken charges and spin densities:
               1          2
     1  C   -0.974719   0.000000
     2  C    0.946321   0.000000
     3  C   -0.410346  -0.000000
     4  C   -0.561532  -0.000000
     5  C   -0.008586  -0.000000
     6  C   -0.093548  -0.000000
     7  O   -0.737789  -0.000000
     8  O   -0.774274   0.000000
     9  C    0.243792   0.000000
    10  C    1.218405   0.000000
    11  C   -0.171256  -0.000000
    12  C    0.222917   0.000000
    13  N   -0.137805   0.000000
    14  C   -1.016757  -0.000000
    15  C   -0.538237   0.000000
    16  C   -0.244765  -0.000000
    17  C   -0.597783  -0.000000
    18  H    0.142884   0.000000
    19  H    0.130101  -0.000000
    20  H    0.131442  -0.000000
    21  H    0.195843   0.000000
    22  H    0.337856  -0.000000
    23  H    0.172244  -0.000000
    24  H    0.177774   0.000000
    25  H    0.176428  -0.000000
    26  H    0.171390   0.000000
 Sum of Mulliken charges =  -2.00000  -0.00000

 Dipole moment (field-independent basis, Debye):
    X=             33.9612    Y=             18.9804    Z=              8.3663  Tot=             39.7947
 Quadrupole moment (field-independent basis, Debye-Ang):
   XX=           -216.4162   YY=           -210.4738   ZZ=           -119.4957
   XY=            -42.5543   XZ=            -21.0760   YZ=            -11.3673

  Exact polarizability: 345.894 -26.969 318.390 -28.077  50.817 227.522
 Approx polarizability: 377.794 -12.997 357.038 -16.584  59.014 253.839

                      1                      2                      3
                      A                      A                      A
 Frequencies --     38.0180                67.9615                79.8075
 Red. masses --      6.8721                 4.6022                 5.6833
 Frc consts  --      0.0059                 0.0125                 0.0213
 IR Inten    --      0.5252                 2.5343                 1.9194

                      4                      5                      6
                      A                      A                      A
 Frequencies --    140.2929               183.8846               212.6815
 Red. masses --      9.2677                 5.5613                 4.7369
 Frc consts  --      0.1075                 0.1108                 0.1262
 IR Inten    --     27.5863                 1.1908                18.0741

                      7                      8                      9
                      A                      A                      A
 Frequencies --    221.4354               267.8883               319.5629
 Red. masses --      5.0863                 7.7072                 3.4828
 Frc consts  --      0.1469                 0.3259                 0.2096
 IR Inten    --     10.4084                13.4882                58.6602

                     10                     11                     12
                      A                      A                      A
 Frequencies --    355.6507               391.8629               402.3375
 Red. masses --      4.3245                 2.0649                 6.1395
 Frc consts  --      0.3223                 0.1868                 0.5855
 IR Inten    --     19.9358                62.3921                 3.0297

                     13                     14                     15
                      A                      A                      A
 Frequencies --    429.4069               445.1394               486.9383
 Red. masses --      2.7745                 3.8057                 7.8775
 Frc consts  --      0.3014                 0.4443                 1.1005
 IR Inten    --      4.3266                10.1479                 2.0889

                     16                     17                     18
                      A                      A                      A
 Frequencies --    500.4917               548.8891               564.4601
 Red. masses --      3.5998                 5.5528                 4.0192
 Frc consts  --      0.5313                 0.9857                 0.7545
 IR Inten    --      5.2001                 1.3472                 7.5797

                     19                     20                     21
                      A                      A                      A
 Frequencies --    587.5215               619.1124               633.1786
 Red. masses --      3.1250                 3.6162                 5.4032
 Frc consts  --      0.6356                 0.8167                 1.2763
 IR Inten    --     10.9214                12.2282                15.4627

                     22                     23                     24
                      A                      A                      A
 Frequencies --    653.1249               693.5720               733.2867
 Red. masses --      2.9861                 6.5820                 2.6208
 Frc consts  --      0.7505                 1.8655                 0.8303
 IR Inten    --      1.4532                 9.1587                 0.6845

                     25                     26                     27
                      A                      A                      A
 Frequencies --    743.9161               768.9883               776.8317
 Red. masses --      1.3295                 3.4074                 4.7524
 Frc consts  --      0.4335                 1.1872                 1.6897
 IR Inten    --    136.2662                 5.1054                 7.8781

                     28                     29                     30
                      A                      A                      A
 Frequencies --    795.9641               809.0394               821.9311
 Red. masses --      1.9647                 2.5092                 2.6510
 Frc consts  --      0.7334                 0.9677                 1.0552
 IR Inten    --    166.3341               117.1610                84.6262

                     31                     32                     33
                      A                      A                      A
 Frequencies --    843.1690               850.7740               869.4238
 Red. masses --      1.7856                 1.5933                 5.9803
 Frc consts  --      0.7479                 0.6795                 2.6634
 IR Inten    --     52.1555                 3.2426                37.5237

                     34                     35                     36
                      A                      A                      A
 Frequencies --    889.3892               902.7590               938.2022
 Red. masses --      5.3451                 1.3202                 1.3759
 Frc consts  --      2.4911                 0.6339                 0.7135
 IR Inten    --     14.7082                 2.4048                 2.4729

                     37                     38                     39
                      A                      A                      A
 Frequencies --    969.5377               996.2542              1026.2772
 Red. masses --      1.2547                 2.9471                 2.1581
 Frc consts  --      0.6949                 1.7234                 1.3392
 IR Inten    --      0.2689                34.8576                37.9479

                     40                     41                     42
                      A                      A                      A
 Frequencies --   1081.7972              1096.9403              1118.6772
 Red. masses --      2.2835                 1.7182                 1.6010
 Frc consts  --      1.5745                 1.2181                 1.1805
 IR Inten    --     71.5058                58.7433                 7.9946

                     43                     44                     45
                      A                      A                      A
 Frequencies --   1146.0596              1166.0646              1186.7350
 Red. masses --      1.4915                 1.1436                 4.4586
 Frc consts  --      1.1542                 0.9161                 3.6996
 IR Inten    --     35.3713                 7.8657               278.1714

                     46                     47                     48
                      A                      A                      A
 Frequencies --   1225.1718              1245.1828              1256.3662
 Red. masses --      1.6697                 2.4762                 1.8781
 Frc consts  --      1.4767                 2.2620                 1.7466
 IR Inten    --    289.1386                84.9457               113.7711

                     49                     50                     51
                      A                      A                      A
 Frequencies --   1283.5861              1296.0782              1320.3539
 Red. masses --      2.7632                 5.5271                 3.0319
 Frc consts  --      2.6823                 5.4703                 3.1142
 IR Inten    --    697.6320                69.8137                80.7344

                     52                     53                     54
                      A                      A                      A
 Frequencies --   1335.9936              1365.5399              1391.0850
 Red. masses --      2.4180                 5.6084                 4.4255
 Frc consts  --      2.5428                 6.1617                 5.0456
 IR Inten    --     22.4073                98.8715               430.6838

                     55                     56                     57
                      A                      A                      A
 Frequencies --   1443.1724              1449.7750              1474.5056
 Red. masses --      2.3927                 2.7364                 2.6741
 Frc consts  --      2.9361                 3.3887                 3.4255
 IR Inten    --     61.5022               800.7768                34.2109

                     58                     59                     60
                      A                      A                      A
 Frequencies --   1500.1701              1512.5614              1561.8645
 Red. masses --      4.9465                 2.8396                 5.7279
 Frc consts  --      6.5589                 3.8276                 8.2326
 IR Inten    --     82.8212                11.0987                 0.7877

                     61                     62                     63
                      A                      A                      A
 Frequencies --   1598.6357              1603.2343              1644.8344
 Red. masses --      5.8294                 6.2964                 6.0661
 Frc consts  --      8.7776                 9.5353                 9.6695
 IR Inten    --     10.0775                32.2777                 3.3877

                     64                     65                     66
                      A                      A                      A
 Frequencies --   3093.4125              3108.6836              3118.0489
 Red. masses --      1.0836                 1.0878                 1.0915
 Frc consts  --      6.1093                 6.1940                 6.2522
 IR Inten    --     82.9568               130.2221                95.7277

                     67                     68                     69
                      A                      A                      A
 Frequencies --   3155.2607              3165.3858              3178.7046
 Red. masses --      1.0854                 1.0896                 1.0952
 Frc consts  --      6.3669                 6.4322                 6.5197
 IR Inten    --      2.0870                30.3389                48.5432

                     70                     71                     72
                      A                      A                      A
 Frequencies --   3191.8600              3240.9702              3658.8788
 Red. masses --      1.0938                 1.0963                 1.0808
 Frc consts  --      6.5654                 6.7847                 8.5251
 IR Inten    --     18.0120                 2.4912               154.4846

 - Thermochemistry -
 -------------------
 Temperature   298.150 Kelvin.  Pressure   1.00000 Atm.
 Atom     1 has atomic number  6 and mass  12.00000

 Molecular mass:   223.06333 amu.
 Principal axes and moments of inertia in atomic units:
                           1         2         3
     Eigenvalues --  1748.286596258.990317104.06067
           X            0.81863   0.54886   0.16911
           Y           -0.47289   0.81126  -0.34386
           Z           -0.32592   0.20152   0.92367
 This molecule is an asymmetric top.
 Rotational symmetry number  1.
 Warning -- assumption of classical behavior for rotation
           may cause significant error
 Rotational temperatures (Kelvin)      0.04954     0.01384     0.01219
 Rotational constants (GHZ):           1.03229     0.28834     0.25404
 Zero-point vibrational energy     501202.7 (Joules/Mol)
                                  119.79033 (Kcal/Mol)
 Warning -- explicit consideration of  20 degrees of freedom as
           vibrations may cause significant error
 Vibrational temperatures:     54.70    97.78   114.83   201.85   264.57
          (Kelvin)            306.00   318.60   385.43   459.78   511.70
                              563.80   578.87   617.82   640.46   700.60
                              720.10   789.73   812.13   845.31   890.76
                              911.00   939.70   997.90  1055.04  1070.33
                             1106.40  1117.69  1145.21  1164.03  1182.58
                             1213.13  1224.07  1250.91  1279.63  1298.87
                             1349.86  1394.95  1433.39  1476.58  1556.46
                             1578.25  1609.53  1648.92  1677.71  1707.45
                             1762.75  1791.54  1807.63  1846.79  1864.77
                             1899.69  1922.20  1964.71  2001.46  2076.40
                             2085.90  2121.48  2158.41  2176.24  2247.17
                             2300.08  2306.70  2366.55  4450.73  4472.70
                             4486.18  4539.72  4554.28  4573.45  4592.37
                             4663.03  5264.31

 Zero-point correction=                           0.190898 (Hartree/Particle)
 Thermal correction to Energy=                    0.203735
 Thermal correction to Enthalpy=                  0.204679
 Thermal correction to Gibbs Free Energy=         0.151053
 Sum of electronic and zero-point Energies=           -744.354381
 Sum of electronic and thermal Energies=              -744.341544
 Sum of electronic and thermal Enthalpies=            -744.340600
 Sum of electronic and thermal Free Energies=         -744.394226

                     E (Thermal)             CV                S
                      KCal/Mol        Cal/Mol-Kelvin    Cal/Mol-Kelvin
 Total                  127.846             52.100            112.866
 Electronic               0.000              0.000              0.000
 Translational            0.889              2.981             42.109
 Rotational               0.889              2.981             32.719
 Vibrational            126.068             46.138             38.037
 Vibration     1          0.594              1.982              5.360
 Vibration     2          0.598              1.969              4.212
 Vibration     3          0.600              1.963              3.896
 Vibration     4          0.615              1.913              2.800
 Vibration     5          0.631              1.862              2.289
 Vibration     6          0.644              1.822              2.021
 Vibration     7          0.648              1.808              1.947
 Vibration     8          0.673              1.732              1.610
 Vibration     9          0.705              1.636              1.312
 Vibration    10          0.731              1.564              1.141
 Vibration    11          0.759              1.488              0.993
 Vibration    12          0.768              1.465              0.954
 Vibration    13          0.791              1.406              0.861
 Vibration    14          0.805              1.372              0.811
 Vibration    15          0.843              1.279              0.692
 Vibration    16          0.856              1.249              0.657
 Vibration    17          0.904              1.142              0.546
 Vibration    18          0.920              1.108              0.515
 Vibration    19          0.945              1.058              0.472
 Vibration    20          0.979              0.992              0.418

                           ! Non-Optimized Parameters !
 Normal termination of Gaussian 16 at Sat Feb 10 14:31:04 2024.
