 Gaussian 16, Revision A.03,
 Gaussian 16:  ES64L-G16RevA.03 25-Dec-2016

 ----------------------------------------------------------------
 #P UB3LYP/6-311++G(d,p) SCRF=(PCM,Solvent=n,n-DiMethylFormamide)
 ----------------------------------------------------------------

 -------
 Reduced
 -------
 Symbolic Z-matrix:
 Charge = -2 Multiplicity = 1

                         Standard orientation:
 ---------------------------------------------------------------------
 Center     Atomic      Atomic             Coordinates (Angstroms)
 Number     Number       Type             X           Y           Z
 ---------------------------------------------------------------------
      1          8           0        0.000105    2.628416    0.063801
      2          6           0       -0.000014    1.360755    0.073784
      3          6           0       -1.225765    0.578411    0.036190
      4          6           0       -2.508139    1.184140   -0.051120
      5          6           0       -3.670548    0.418898   -0.066829
      6          6           0       -3.607334   -0.977044   -0.045567
      7          6           0       -2.346871   -1.604750   -0.019607
      8          6           0       -1.193264   -0.835824    0.033783
      9          8           0        0.000017   -1.523193    0.111697
     10          6           0        1.193215   -0.835895    0.033780
     11          6           0        2.346877   -1.604769   -0.019812
     12          6           0        3.607297   -0.977034   -0.045783
     13          6           0        3.670536    0.418911   -0.066747
     14          6           0        2.508096    1.184107   -0.050791
     15          6           0        1.225794    0.578322    0.036363
     16          1           0       -2.539163    2.267006   -0.085823
     17          1           0       -4.641756    0.909571   -0.098459
     18          1           0       -4.514483   -1.575662   -0.050123
     19          1           0       -2.254959   -2.686478   -0.010493
     20          1           0        2.255016   -2.686506   -0.010814
     21          1           0        4.514419   -1.575700   -0.050521
     22          1           0        4.641718    0.909629   -0.098328
     23          1           0        2.538942    2.266986   -0.085292
 ---------------------------------------------------------------------

 SCF Done:  E(UB3LYP) =  -650.994787941     A.U. after   22 cycles

 The electronic state is 1-A.
 Alpha  occ. eigenvalues --  -19.14016 -19.00802 -10.20092 -10.20091 -10.14888
 Alpha  occ. eigenvalues --  -10.13933 -10.13933 -10.13360 -10.13359 -10.13198
 Alpha  occ. eigenvalues --  -10.13198 -10.12732 -10.12730 -10.12008 -10.12008
 Alpha  occ. eigenvalues --   -1.05965  -0.93102  -0.82255  -0.80854  -0.73141
 Alpha  occ. eigenvalues --   -0.73034  -0.70429  -0.69226  -0.61158  -0.60365
 Alpha  occ. eigenvalues --   -0.55894  -0.55162  -0.51377  -0.50949  -0.46029
 Alpha  occ. eigenvalues --   -0.44974  -0.43163  -0.42284  -0.42042  -0.39725
 Alpha  occ. eigenvalues --   -0.39683  -0.37797  -0.35906  -0.35626  -0.34475
 Alpha  occ. eigenvalues --   -0.33693  -0.33325  -0.32000  -0.31329  -0.29648
 Alpha  occ. eigenvalues --   -0.29172  -0.23107  -0.21645  -0.21349  -0.19317
 Alpha  occ. eigenvalues --   -0.18892  -0.06507
 Alpha virt. eigenvalues --    0.00091   0.00734   0.01196   0.01519   0.01646
 Alpha virt. eigenvalues --    0.02440   0.02690   0.03123   0.04603   0.04660
 Alpha virt. eigenvalues --    0.04861   0.05025   0.06610   0.07067   0.07472

  Beta  occ. eigenvalues --  -19.14016 -19.00802 -10.20092 -10.20091 -10.14888
  Beta  occ. eigenvalues --  -10.13933 -10.13933 -10.13360 -10.13359 -10.13198
  Beta  occ. eigenvalues --  -10.13198 -10.12732 -10.12730 -10.12008 -10.12008
  Beta  occ. eigenvalues --   -1.05965  -0.93102  -0.82255  -0.80854  -0.73141
  Beta  occ. eigenvalues --   -0.73034  -0.70429  -0.69226  -0.61158  -0.60365
  Beta  occ. eigenvalues --   -0.55894  -0.55162  -0.51377  -0.50949  -0.46029
  Beta  occ. eigenvalues --   -0.44974  -0.43163  -0.42284  -0.42042  -0.39725
  Beta  occ. eigenvalues --   -0.39683  -0.37797  -0.35906  -0.35626  -0.34475
  Beta  occ. eigenvalues --   -0.33693  -0.33325  -0.32000  -0.31329  -0.29648
  Beta  occ. eigenvalues --   -0.29172  -0.23107  -0.21645  -0.21349  -0.19317
  Beta  occ. eigenvalues --   -0.18892  -0.06507
  Beta virt. eigenvalues --    0.00091   0.00734   0.01196   0.01519   0.01646
  Beta virt. eigenvalues --    0.02440   0.02690   0.03123   0.04603   0.04660
  Beta virt. eigenvalues --    0.04861   0.05025   0.06610   0.07067   0.07472

 Mulliken charges and spin densities:
               1          2
     1  O   -0.716104  -0.000000
     2  C   -0.240187  -0.000000
     3  C    0.938755  -0.000000
     4  C   -0.054087   0.000000
     5  C   -0.293439  -0.000000
     6  C   -0.436698   0.000000
     7  C   -0.441045   0.000000
     8  C   -0.703175  -0.000000
     9  O   -0.169587   0.000000
    10  C   -0.703298   0.000000
    11  C   -0.441077  -0.000000
    12  C   -0.436598  -0.000000
    13  C   -0.293743   0.000000
    14  C   -0.053569  -0.000000
    15  C    0.938512   0.000000
    16  H    0.137297   0.000000
    17  H    0.135039  -0.000000
    18  H    0.136982   0.000000
    19  H    0.143322  -0.000000
    20  H    0.143330  -0.000000
    21  H    0.136996   0.000000
    22  H    0.135048   0.000000
    23  H    0.137327  -0.000000
 Sum of Mulliken charges =  -2.00000  -0.00000

 Dipole moment (field-independent basis, Debye):
    X=              0.0024    Y=             -8.1057    Z=             -0.0782  Tot=              8.1061
 Quadrupole moment (field-independent basis, Debye-Ang):
   XX=           -136.9391   YY=           -128.7884   ZZ=           -103.4367
   XY=             -0.0015   XZ=             -0.0007   YZ=             -0.5681

 Normal termination of Gaussian 16 at Sat Jan 13 19:19:23 2024.
