 Gaussian 16, Revision A.03,
 Gaussian 16:  ES64L-G16RevA.03 25-Dec-2016

 --------------------------------------
 #P UB3LYP/6-311++G(d,p) nosym opt freq
 --------------------------------------

 -------
 Radical
 -------
 Symbolic Z-matrix:
 Charge = -1 Multiplicity = 2

 SCF Done:  E(UB3LYP) =  -696.233425487     A.U. after   21 cycles
 SCF Done:  E(UB3LYP) =  -696.233425334     A.U. after   10 cycles
 SCF Done:  E(UB3LYP) =  -696.233425356     A.U. after    9 cycles
 SCF Done:  E(UB3LYP) =  -696.233425530     A.U. after   10 cycles
 Optimization completed.
    -- Stationary point found.
 Normal termination of Gaussian 16 at Sat Jan  6 06:16:30 2024.

 ----------------------------------------------------------------------
 #P Geom=AllCheck Guess=TCheck SCRF=Check GenChk UB3LYP/6-311++G(d,p) F
 req
 ----------------------------------------------------------------------

 Structure from the checkpoint file:  "046-rad.chk"
 -------
 Radical
 -------
 Charge = -1 Multiplicity = 2

                          Input orientation:
 ---------------------------------------------------------------------
 Center     Atomic      Atomic             Coordinates (Angstroms)
 Number     Number       Type             X           Y           Z
 ---------------------------------------------------------------------
      1          6           0        2.621766   -0.338181   -1.937404
      2          6           0        2.591442   -0.005226   -0.425543
      3          6           0        2.803002    1.515908   -0.228357
      4          6           0        3.785561   -0.726593    0.230207
      5          6           0        1.240381   -0.434428    0.183644
      6          6           0        1.173224   -1.360250    1.196280
      7          6           0       -0.063604   -1.794939    1.799501
      8          8           0       -0.093891   -2.651018    2.732389
      9          6           0       -1.263701   -1.191646    1.271885
     10          6           0       -1.265092   -0.261006    0.261451
     11          6           0        0.005815    0.166112   -0.337637
     12          8           0        0.036145    1.025018   -1.273581
     13          6           0       -2.579180    0.352962   -0.264783
     14          6           0       -2.749075    0.032747   -1.770114
     15          6           0       -3.818303   -0.198752    0.467651
     16          6           0       -2.565908    1.888023   -0.062521
     17          1           0        3.581212   -0.031978   -2.373825
     18          1           0        2.509045   -1.416453   -2.092371
     19          1           0        1.813702    0.175803   -2.456197
     20          1           0        1.999067    2.076283   -0.703762
     21          1           0        3.762354    1.824758   -0.663133
     22          1           0        2.820503    1.762983    0.838426
     23          1           0        3.726623   -1.811598    0.104267
     24          1           0        3.853855   -0.513424    1.300929
     25          1           0        4.714926   -0.385251   -0.238910
     26          1           0        2.064356   -1.822546    1.603891
     27          1           0       -2.183129   -1.528668    1.735620
     28          1           0       -3.681775    0.470938   -2.148018
     29          1           0       -2.797138   -1.050184   -1.926160
     30          1           0       -1.911048    0.431195   -2.340444
     31          1           0       -3.789576    0.018063    1.539432
     32          1           0       -4.719000    0.269457    0.055558
     33          1           0       -3.917888   -1.281033    0.343920
     34          1           0       -3.499062    2.327861   -0.437404
     35          1           0       -2.481563    2.131275    1.001948
     36          1           0       -1.724050    2.333789   -0.590629
 ---------------------------------------------------------------------

 SCF Done:  E(UB3LYP) =  -696.233425530     A.U. after    1 cycles

 Alpha  occ. eigenvalues --  -18.93542 -18.93353 -10.08549 -10.07656 -10.06934
 Alpha  occ. eigenvalues --  -10.06933 -10.04746 -10.04745 -10.04057 -10.04056
 Alpha  occ. eigenvalues --  -10.03615 -10.03615 -10.03613 -10.03612 -10.02439
 Alpha  occ. eigenvalues --  -10.02439  -0.86073  -0.85205  -0.71184  -0.70498
 Alpha  occ. eigenvalues --   -0.66295  -0.60017  -0.57213  -0.57209  -0.56567
 Alpha  occ. eigenvalues --   -0.56527  -0.54115  -0.48334  -0.45911  -0.40629
 Alpha  occ. eigenvalues --   -0.40192  -0.35220  -0.34651  -0.33865  -0.32532
 Alpha  occ. eigenvalues --   -0.32370  -0.32227  -0.31474  -0.30051  -0.29181
 Alpha  occ. eigenvalues --   -0.27425  -0.27094  -0.26590  -0.26564  -0.25567
 Alpha  occ. eigenvalues --   -0.24951  -0.24942  -0.24855  -0.23847  -0.22475
 Alpha  occ. eigenvalues --   -0.21704  -0.21653  -0.21199  -0.21071  -0.20400
 Alpha  occ. eigenvalues --   -0.20243  -0.13908  -0.11803  -0.09887  -0.09344
 Alpha  occ. eigenvalues --   -0.02249
 Alpha virt. eigenvalues --    0.08025   0.08272   0.10134   0.10261   0.10566
 Alpha virt. eigenvalues --    0.10813   0.10841   0.12136   0.12227   0.12734
 Alpha virt. eigenvalues --    0.12919   0.13584   0.13765   0.13950   0.14252

  Beta  occ. eigenvalues --  -18.92876 -18.92586 -10.08377 -10.07574 -10.06940
  Beta  occ. eigenvalues --  -10.06939 -10.04746 -10.04746 -10.03969 -10.03968
  Beta  occ. eigenvalues --  -10.03610 -10.03610 -10.03608 -10.03607 -10.02308
  Beta  occ. eigenvalues --  -10.02307  -0.84905  -0.83870  -0.70916  -0.70445
  Beta  occ. eigenvalues --   -0.65886  -0.59781  -0.57196  -0.57150  -0.56546
  Beta  occ. eigenvalues --   -0.56511  -0.53174  -0.48036  -0.45639  -0.40368
  Beta  occ. eigenvalues --   -0.40056  -0.35080  -0.34456  -0.33831  -0.32308
  Beta  occ. eigenvalues --   -0.32205  -0.32173  -0.31450  -0.29986  -0.28532
  Beta  occ. eigenvalues --   -0.27402  -0.27073  -0.26518  -0.25889  -0.25236
  Beta  occ. eigenvalues --   -0.24848  -0.24556  -0.23732  -0.23659  -0.21657
  Beta  occ. eigenvalues --   -0.21486  -0.21371  -0.21140  -0.20250  -0.20129
  Beta  occ. eigenvalues --   -0.19355  -0.11017  -0.10514  -0.09253  -0.08691
  Beta virt. eigenvalues --    0.05018   0.08027   0.08272   0.10155   0.10264
  Beta virt. eigenvalues --    0.10568   0.10847   0.10869   0.12134   0.12750
  Beta virt. eigenvalues --    0.12813   0.12924   0.13602   0.13766   0.13960

 Mulliken charges and spin densities:
               1          2
     1  C   -0.712840   0.008231
     2  C    0.835189  -0.027324
     3  C   -0.713055   0.008227
     4  C   -0.483264   0.001711
     5  C    0.701107   0.062820
     6  C   -0.258974   0.093413
     7  C   -0.943556   0.073205
     8  O   -0.401633   0.273817
     9  C   -0.258941   0.093377
    10  C    0.701043   0.062821
    11  C   -0.823709   0.132956
    12  O   -0.342553   0.245478
    13  C    0.835162  -0.027336
    14  C   -0.713087   0.008256
    15  C   -0.483194   0.001711
    16  C   -0.712884   0.008212
    17  H    0.114255   0.000384
    18  H    0.119596   0.000907
    19  H    0.188706  -0.001389
    20  H    0.188768  -0.001390
    21  H    0.114212   0.000388
    22  H    0.119566   0.000899
    23  H    0.119425  -0.000606
    24  H    0.119394  -0.000605
    25  H    0.139110   0.000081
    26  H    0.164552  -0.008457
    27  H    0.164551  -0.008454
    28  H    0.114224   0.000388
    29  H    0.119563   0.000898
    30  H    0.188819  -0.001394
    31  H    0.119443  -0.000607
    32  H    0.139113   0.000081
    33  H    0.119363  -0.000606
    34  H    0.114231   0.000381
    35  H    0.119629   0.000908
    36  H    0.188668  -0.001381
 Sum of Mulliken charges =  -1.00000   1.00000

 Dipole moment (field-independent basis, Debye):
    X=              0.1334    Y=              3.7536    Z=             -3.3390  Tot=              5.0256
 Quadrupole moment (field-independent basis, Debye-Ang):
   XX=           -117.6898   YY=           -126.8284   ZZ=           -129.1882
   XY=              0.0132   XZ=              1.0193   YZ=             20.0883

  Exact polarizability: 221.770  -4.201 180.220  -3.975 -41.656 187.098
 Approx polarizability: 278.112  -1.666 294.729  -5.256 -90.144 310.006

                      1                      2                      3
                      A                      A                      A
 Frequencies --     43.3386                66.3404                84.6083
 Red. masses --      3.6127                 2.7433                 4.4050
 Frc consts  --      0.0040                 0.0071                 0.0186
 IR Inten    --      3.2341                 0.0012                 0.0437

                      4                      5                      6
                      A                      A                      A
 Frequencies --    152.1960               154.7811               172.4961
 Red. masses --      3.0185                 3.5854                 5.6931
 Frc consts  --      0.0412                 0.0506                 0.0998
 IR Inten    --      0.0010                 1.0981                 7.8239

                      7                      8                      9
                      A                      A                      A
 Frequencies --    229.1286               229.8861               236.6829
 Red. masses --      1.1136                 1.0767                 2.7148
 Frc consts  --      0.0344                 0.0335                 0.0896
 IR Inten    --      0.4386                 0.0160                 0.5176

                     10                     11                     12
                      A                      A                      A
 Frequencies --    259.0598               263.9294               274.6548
 Red. masses --      1.1957                 1.8211                 1.7331
 Frc consts  --      0.0473                 0.0747                 0.0770
 IR Inten    --      0.0610                 0.5233                 0.5718

                     13                     14                     15
                      A                      A                      A
 Frequencies --    284.9248               294.5117               300.3496
 Red. masses --      2.7056                 3.4702                 2.7304
 Frc consts  --      0.1294                 0.1773                 0.1451
 IR Inten    --      3.6245                 0.5271                 0.0008

                     16                     17                     18
                      A                      A                      A
 Frequencies --    313.8015               329.1867               331.2531
 Red. masses --      2.2729                 1.0480                 1.0482
 Frc consts  --      0.1319                 0.0669                 0.0678
 IR Inten    --      0.0124                 0.0771                 0.0006

                     19                     20                     21
                      A                      A                      A
 Frequencies --    362.0060               376.4642               393.8772
 Red. masses --      4.8205                 2.4874                 2.3002
 Frc consts  --      0.3722                 0.2077                 0.2102
 IR Inten    --     18.6670                 0.8436                 0.0000

                     22                     23                     24
                      A                      A                      A
 Frequencies --    400.7806               431.6563               453.2333
 Red. masses --      2.6196                 2.6231                 4.6601
 Frc consts  --      0.2479                 0.2880                 0.5640
 IR Inten    --      0.0057                 2.6844                 9.4230

                     25                     26                     27
                      A                      A                      A
 Frequencies --    454.9061               478.5169               517.5917
 Red. masses --      3.5904                 7.5169                 3.1097
 Frc consts  --      0.4378                 1.0141                 0.4908
 IR Inten    --      1.1074                 0.1560                 0.0487

                     28                     29                     30
                      A                      A                      A
 Frequencies --    559.6535               607.2480               659.7963
 Red. masses --      2.8983                 4.2780                 3.0657
 Frc consts  --      0.5349                 0.9295                 0.7863
 IR Inten    --      1.5284                 0.0000                 0.0000

                     31                     32                     33
                      A                      A                      A
 Frequencies --    671.6861               749.4162               801.2483
 Red. masses --      4.8372                 4.7678                 7.6953
 Frc consts  --      1.2858                 1.5777                 2.9108
 IR Inten    --      0.1712                 1.1832                 7.2274

                     34                     35                     36
                      A                      A                      A
 Frequencies --    808.1106               817.9004               871.8662
 Red. masses --      3.3001                 5.2094                 1.3796
 Frc consts  --      1.2698                 2.0532                 0.6179
 IR Inten    --      3.6151                25.2158                 0.0022

                     37                     38                     39
                      A                      A                      A
 Frequencies --    888.8722               892.3940               924.5221
 Red. masses --      2.6164                 1.7090                 1.7698
 Frc consts  --      1.2179                 0.8019                 0.8912
 IR Inten    --     19.0726                25.9820                 0.3204

                     40                     41                     42
                      A                      A                      A
 Frequencies --    925.0366               929.9417               932.1705
 Red. masses --      1.7701                 1.7973                 1.7297
 Frc consts  --      0.8924                 0.9157                 0.8856
 IR Inten    --      0.2944                 0.2196                10.8392

                     43                     44                     45
                      A                      A                      A
 Frequencies --    955.8816               956.7673               962.2397
 Red. masses --      1.2038                 1.2036                 3.3241
 Frc consts  --      0.6481                 0.6492                 1.8134
 IR Inten    --      0.1570                 0.3461                 2.3614

                     46                     47                     48
                      A                      A                      A
 Frequencies --   1041.9971              1043.0182              1047.2689
 Red. masses --      1.5238                 1.3862                 1.3751
 Frc consts  --      0.9748                 0.8885                 0.8886
 IR Inten    --     11.2880                 3.6144                 0.0193

                     49                     50                     51
                      A                      A                      A
 Frequencies --   1047.8261              1095.3832              1155.2787
 Red. masses --      1.3816                 2.3002                 3.6835
 Frc consts  --      0.8937                 1.6261                 2.8966
 IR Inten    --      0.0921                41.3807                 4.8592

                     52                     53                     54
                      A                      A                      A
 Frequencies --   1214.6967              1215.0092              1219.7228
 Red. masses --      2.6835                 2.6777                 2.5852
 Frc consts  --      2.3328                 2.3290                 2.2660
 IR Inten    --      0.8215                 7.8818                25.2914

                     55                     56                     57
                      A                      A                      A
 Frequencies --   1220.8905              1262.9463              1267.6315
 Red. masses --      2.3568                 2.3608                 2.4227
 Frc consts  --      2.0698                 2.2186                 2.2937
 IR Inten    --      0.7774                52.4873                 5.2537

                     58                     59                     60
                      A                      A                      A
 Frequencies --   1274.8127              1330.8092              1371.2792
 Red. masses --      1.8591                 2.1517                 1.2124
 Frc consts  --      1.7801                 2.2452                 1.3432
 IR Inten    --      4.9921                 4.1765                 1.3080

                     61                     62                     63
                      A                      A                      A
 Frequencies --   1371.6956              1378.0866              1379.7568
 Red. masses --      1.2124                 1.2403                 1.2625
 Frc consts  --      1.3441                 1.3878                 1.4161
 IR Inten    --     21.8785                 0.3267                52.3619

                     64                     65                     66
                      A                      A                      A
 Frequencies --   1407.2861              1408.8180              1413.2779
 Red. masses --      1.2646                 1.3596                 4.7265
 Frc consts  --      1.4756                 1.5899                 5.5622
 IR Inten    --     24.3511                13.5731                31.1136

                     67                     68                     69
                      A                      A                      A
 Frequencies --   1469.9665              1470.2722              1470.9851
 Red. masses --      1.0482                 1.0500                 2.2789
 Frc consts  --      1.3344                 1.3373                 2.9053
 IR Inten    --      0.1593                 0.7507                88.2421

                     70                     71                     72
                      A                      A                      A
 Frequencies --   1490.5114              1492.4070              1494.7305
 Red. masses --      1.0666                 1.5132                 1.0466
 Frc consts  --      1.3962                 1.9858                 1.3777
 IR Inten    --      0.1674                74.7953                 0.0057

                     73                     74                     75
                      A                      A                      A
 Frequencies --   1495.4092              1496.8063              1501.3549
 Red. masses --      1.0466                 1.0477                 1.5017
 Frc consts  --      1.3789                 1.3830                 1.9943
 IR Inten    --      2.6889                 1.0510                55.4424

                     76                     77                     78
                      A                      A                      A
 Frequencies --   1510.5448              1512.1133              1514.1080
 Red. masses --      1.0516                 1.0517                 2.1325
 Frc consts  --      1.4137                 1.4168                 2.8804
 IR Inten    --      0.0164                 5.7384               224.2682

                     79                     80                     81
                      A                      A                      A
 Frequencies --   1520.7018              1530.4509              1533.7962
 Red. masses --      3.2736                 1.1988                 1.1800
 Frc consts  --      4.4603                 1.6544                 1.6355
 IR Inten    --     17.8998                 6.7333                20.1640

                     82                     83                     84
                      A                      A                      A
 Frequencies --   1632.6353              2990.8489              2991.0166
 Red. masses --      6.5751                 1.0435                 1.0436
 Frc consts  --     10.3260                 5.4996                 5.5008
 IR Inten    --     20.3564                 1.2648                95.0368

                     85                     86                     87
                      A                      A                      A
 Frequencies --   2995.5335              2996.4218              3010.9625
 Red. masses --      1.0427                 1.0424                 1.0364
 Frc consts  --      5.5125                 5.5141                 5.5361
 IR Inten    --    113.6378                90.1364               197.4825

                     88                     89                     90
                      A                      A                      A
 Frequencies --   3011.6635              3050.4763              3050.9344
 Red. masses --      1.0365                 1.0961                 1.0960
 Frc consts  --      5.5391                 6.0095                 6.0106
 IR Inten    --      2.7444                 0.2462                67.2490

                     91                     92                     93
                      A                      A                      A
 Frequencies --   3052.9051              3053.2031              3066.3435
 Red. masses --      1.0960                 1.0961                 1.0990
 Frc consts  --      6.0186                 6.0201                 6.0883
 IR Inten    --     25.2406                26.0599                83.4712

                     94                     95                     96
                      A                      A                      A
 Frequencies --   3066.7795              3081.1679              3081.2871
 Red. masses --      1.0990                 1.1016                 1.1015
 Frc consts  --      6.0898                 6.1616                 6.1619
 IR Inten    --     93.2438                 4.3538                82.1964

                     97                     98                     99
                      A                      A                      A
 Frequencies --   3123.7522              3124.0872              3126.0075
 Red. masses --      1.0967                 1.0966                 1.0960
 Frc consts  --      6.3050                 6.3057                 6.3104
 IR Inten    --      0.0330                 0.2546                 2.4514

                    100                    101                    102
                      A                      A                      A
 Frequencies --   3126.5467              3176.6154              3178.8311
 Red. masses --      1.0959                 1.0880                 1.0874
 Frc consts  --      6.3116                 6.4685                 6.4742
 IR Inten    --     21.5122                19.1515                15.0968

 - Thermochemistry -
 -------------------
 Temperature   298.150 Kelvin.  Pressure   1.00000 Atm.
 Atom     1 has atomic number  6 and mass  12.00000

 Molecular mass:   220.14633 amu.
 Principal axes and moments of inertia in atomic units:
                           1         2         3
     Eigenvalues --  2388.458584476.431706064.80051
           X            0.99713  -0.02391   0.07184
           Y           -0.06907  -0.67600   0.73366
           Z           -0.03102   0.73651   0.67571
 This molecule is an asymmetric top.
 Rotational symmetry number  1.
 Warning -- assumption of classical behavior for rotation
           may cause significant error
 Rotational temperatures (Kelvin)      0.03626     0.01935     0.01428
 Rotational constants (GHZ):           0.75561     0.40317     0.29758
 Zero-point vibrational energy     804276.8 (Joules/Mol)
                                  192.22677 (Kcal/Mol)
 Warning -- explicit consideration of  29 degrees of freedom as
           vibrations may cause significant error
 Vibrational temperatures:     62.35    95.45   121.73   218.98   222.70
          (Kelvin)            248.18   329.66   330.75   340.53   372.73
                              379.74   395.17   409.94   423.74   432.14
                              451.49   473.63   476.60   520.85   541.65
                              566.70   576.63   621.06   652.10   654.51
                              688.48   744.70   805.22   873.69   949.30
                              966.41  1078.24  1152.82  1162.69  1176.78
                             1254.42  1278.89  1283.96  1330.18  1330.92
                             1337.98  1341.19  1375.30  1376.57  1384.45
                             1499.20  1500.67  1506.79  1507.59  1576.01
                             1662.19  1747.68  1748.13  1754.91  1756.59
                             1817.10  1823.84  1834.17  1914.74  1972.96
                             1973.56  1982.76  1985.16  2024.77  2026.97
                             2033.39  2114.95  2115.39  2116.42  2144.51
                             2147.24  2150.58  2151.56  2153.57  2160.11
                             2173.34  2175.59  2178.46  2187.95  2201.98
                             2206.79  2349.00  4303.16  4303.41  4309.90
                             4311.18  4332.10  4333.11  4388.95  4389.61
                             4392.45  4392.88  4411.78  4412.41  4433.11
                             4433.28  4494.38  4494.86  4497.63  4498.40
                             4570.44  4573.63

 Zero-point correction=                           0.306333 (Hartree/Particle)
 Thermal correction to Energy=                    0.323228
 Thermal correction to Enthalpy=                  0.324172
 Thermal correction to Gibbs Free Energy=         0.263285
 Sum of electronic and zero-point Energies=           -695.927093
 Sum of electronic and thermal Energies=              -695.910198
 Sum of electronic and thermal Enthalpies=            -695.909254
 Sum of electronic and thermal Free Energies=         -695.970141

                     E (Thermal)             CV                S
                      KCal/Mol        Cal/Mol-Kelvin    Cal/Mol-Kelvin
 Total                  202.829             67.153            128.148
 Electronic               0.000              0.000              1.377
 Translational            0.889              2.981             42.070
 Rotational               0.889              2.981             32.539
 Vibrational            201.051             61.191             52.162
 Vibration     1          0.595              1.980              5.100
 Vibration     2          0.598              1.970              4.259
 Vibration     3          0.601              1.960              3.781
 Vibration     4          0.619              1.900              2.645
 Vibration     5          0.620              1.897              2.613
 Vibration     6          0.626              1.876              2.408
 Vibration     7          0.652              1.797              1.886
 Vibration     8          0.652              1.795              1.880
 Vibration     9          0.656              1.785              1.828
 Vibration    10          0.668              1.747              1.668
 Vibration    11          0.670              1.739              1.636
 Vibration    12          0.677              1.720              1.567
 Vibration    13          0.683              1.702              1.504
 Vibration    14          0.689              1.684              1.448
 Vibration    15          0.693              1.673              1.415
 Vibration    16          0.702              1.647              1.342
 Vibration    17          0.712              1.617              1.264
 Vibration    18          0.714              1.613              1.254
 Vibration    19          0.736              1.551              1.113
 Vibration    20          0.747              1.520              1.053
 Vibration    21          0.761              1.483              0.985
 Vibration    22          0.767              1.468              0.960
 Vibration    23          0.793              1.401              0.853
 Vibration    24          0.812              1.354              0.786
 Vibration    25          0.813              1.350              0.781
 Vibration    26          0.835              1.298              0.714
 Vibration    27          0.873              1.211              0.616
 Vibration    28          0.915              1.119              0.525
 Vibration    29          0.966              1.016              0.437

 Optimization completed.
    -- Stationary point found.
 Normal termination of Gaussian 16 at Sat Jan  6 08:04:45 2024.
