 Q-Chem 5.4, Q-Chem, Inc., Pleasanton, CA (2021)
 Q-Chem 5.4.0 for Intel X86 EM64T Linux

User input:
--------------------------------------------------------------
$molecule
-1 2
C                  2.6217660000     -0.3381810000     -1.9374040000
C                  2.5914420000     -0.0052260000     -0.4255430000
C                  2.8030020000      1.5159080000     -0.2283570000
C                  3.7855610000     -0.7265930000      0.2302070000
C                  1.2403810000     -0.4344280000      0.1836440000
C                  1.1732240000     -1.3602500000      1.1962800000
C                 -0.0636040000     -1.7949390000      1.7995010000
O                 -0.0938910000     -2.6510180000      2.7323890000
C                 -1.2637010000     -1.1916460000      1.2718850000
C                 -1.2650920000     -0.2610060000      0.2614510000
C                  0.0058150000      0.1661120000     -0.3376370000
O                  0.0361450000      1.0250180000     -1.2735810000
C                 -2.5791800000      0.3529620000     -0.2647830000
C                 -2.7490750000      0.0327470000     -1.7701140000
C                 -3.8183030000     -0.1987520000      0.4676510000
C                 -2.5659080000      1.8880230000     -0.0625210000
H                  3.5812120000     -0.0319780000     -2.3738250000
H                  2.5090450000     -1.4164530000     -2.0923710000
H                  1.8137020000      0.1758030000     -2.4561970000
H                  1.9990670000      2.0762830000     -0.7037620000
H                  3.7623540000      1.8247580000     -0.6631330000
H                  2.8205030000      1.7629830000      0.8384260000
H                  3.7266230000     -1.8115980000      0.1042670000
H                  3.8538550000     -0.5134240000      1.3009290000
H                  4.7149260000     -0.3852510000     -0.2389100000
H                  2.0643560000     -1.8225460000      1.6038910000
H                 -2.1831290000     -1.5286680000      1.7356200000
H                 -3.6817750000      0.4709380000     -2.1480180000
H                 -2.7971380000     -1.0501840000     -1.9261600000
H                 -1.9110480000      0.4311950000     -2.3404440000
H                 -3.7895760000      0.0180630000      1.5394320000
H                 -4.7190000000      0.2694570000      0.0555580000
H                 -3.9178880000     -1.2810330000      0.3439200000
H                 -3.4990620000      2.3278610000     -0.4374040000
H                 -2.4815630000      2.1312750000      1.0019480000
H                 -1.7240500000      2.3337890000     -0.5906290000
$end

$rem
BASIS  =  6-311++G(d,p)
GUI  =  2
JOB_TYPE  =  SP
METHOD  =  B3LYP
SCF_CONVERGENCE  = 8
SOLVENT_METHOD = sm12
$end

$smx
solvent dimethylformamide
charges CM5
$end

--------------------------------------------------------------

             Standard Nuclear Orientation (Angstroms)
    I     Atom           X                Y                Z
 ----------------------------------------------------------------
    1      C       2.6217660000    -0.3381810000    -1.9374040000
    2      C       2.5914420000    -0.0052260000    -0.4255430000
    3      C       2.8030020000     1.5159080000    -0.2283570000
    4      C       3.7855610000    -0.7265930000     0.2302070000
    5      C       1.2403810000    -0.4344280000     0.1836440000
    6      C       1.1732240000    -1.3602500000     1.1962800000
    7      C      -0.0636040000    -1.7949390000     1.7995010000
    8      O      -0.0938910000    -2.6510180000     2.7323890000
    9      C      -1.2637010000    -1.1916460000     1.2718850000
   10      C      -1.2650920000    -0.2610060000     0.2614510000
   11      C       0.0058150000     0.1661120000    -0.3376370000
   12      O       0.0361450000     1.0250180000    -1.2735810000
   13      C      -2.5791800000     0.3529620000    -0.2647830000
   14      C      -2.7490750000     0.0327470000    -1.7701140000
   15      C      -3.8183030000    -0.1987520000     0.4676510000
   16      C      -2.5659080000     1.8880230000    -0.0625210000
   17      H       3.5812120000    -0.0319780000    -2.3738250000
   18      H       2.5090450000    -1.4164530000    -2.0923710000
   19      H       1.8137020000     0.1758030000    -2.4561970000
   20      H       1.9990670000     2.0762830000    -0.7037620000
   21      H       3.7623540000     1.8247580000    -0.6631330000
   22      H       2.8205030000     1.7629830000     0.8384260000
   23      H       3.7266230000    -1.8115980000     0.1042670000
   24      H       3.8538550000    -0.5134240000     1.3009290000
   25      H       4.7149260000    -0.3852510000    -0.2389100000
   26      H       2.0643560000    -1.8225460000     1.6038910000
   27      H      -2.1831290000    -1.5286680000     1.7356200000
   28      H      -3.6817750000     0.4709380000    -2.1480180000
   29      H      -2.7971380000    -1.0501840000    -1.9261600000
   30      H      -1.9110480000     0.4311950000    -2.3404440000
   31      H      -3.7895760000     0.0180630000     1.5394320000
   32      H      -4.7190000000     0.2694570000     0.0555580000
   33      H      -3.9178880000    -1.2810330000     0.3439200000
   34      H      -3.4990620000     2.3278610000    -0.4374040000
   35      H      -2.4815630000     2.1312750000     1.0019480000
   36      H      -1.7240500000     2.3337890000    -0.5906290000
 ----------------------------------------------------------------

   16    -696.2307325356      7.60e-09  Convergence criterion met
 Total energy in the final basis set =     -696.3093827768

                    Orbital Energies (a.u.)
 --------------------------------------------------------------

 Alpha MOs
 -- Occupied --
-19.0717 -19.0713 -10.2197 -10.2146 -10.1916 -10.1916 -10.1747 -10.1746
-10.1616 -10.1616 -10.1600 -10.1600 -10.1570 -10.1569 -10.1569 -10.1569
 -0.9959  -0.9903  -0.8393  -0.8285  -0.7917  -0.7320  -0.6905  -0.6887
 -0.6864  -0.6858  -0.6741  -0.6144  -0.5864  -0.5355  -0.5258  -0.4840
 -0.4736  -0.4602  -0.4563  -0.4423  -0.4396  -0.4360  -0.4243  -0.4187
 -0.4022  -0.3925  -0.3852  -0.3846  -0.3841  -0.3811  -0.3728  -0.3674
 -0.3674  -0.3531  -0.3418  -0.3372  -0.3342  -0.3334  -0.3296  -0.3247
 -0.2750  -0.2533  -0.2353  -0.2287  -0.1593

 Beta MOs
 -- Occupied --
-19.0643 -19.0642 -10.2181 -10.2137 -10.1917 -10.1917 -10.1736 -10.1736
-10.1616 -10.1616 -10.1589 -10.1589 -10.1569 -10.1569 -10.1568 -10.1568
 -0.9835  -0.9774  -0.8358  -0.8278  -0.7885  -0.7297  -0.6889  -0.6884
 -0.6861  -0.6856  -0.6655  -0.6113  -0.5836  -0.5329  -0.5246  -0.4824
 -0.4707  -0.4598  -0.4537  -0.4411  -0.4393  -0.4356  -0.4237  -0.4091
 -0.3950  -0.3922  -0.3846  -0.3840  -0.3769  -0.3727  -0.3673  -0.3668
 -0.3664  -0.3402  -0.3386  -0.3366  -0.3329  -0.3289  -0.3246  -0.3242
 -0.2457  -0.2414  -0.2286  -0.2226

          Ground-State Mulliken Net Atomic Charges

     Atom                 Charge (a.u.)    Spin (a.u.)
  --------------------------------------------------------
      1 C                    -0.467684       0.008610
      2 C                     1.454430      -0.026202
      3 C                    -0.468160       0.008700
      4 C                     0.332418       0.001940
      5 C                    -0.200189       0.075532
      6 C                    -0.572517       0.077814
      7 C                    -1.682529       0.080020
      8 O                    -0.397764       0.262211
      9 C                    -0.572117       0.077591
     10 C                    -0.195623       0.075709
     11 C                    -2.145615       0.121227
     12 O                    -0.184067       0.261804
     13 C                     1.458664      -0.025888
     14 C                    -0.468321       0.008628
     15 C                     0.332075       0.001945
     16 C                    -0.469659       0.008535
     17 H                     0.266197       0.000314
     18 H                     0.101542       0.000960
     19 H                     0.092389      -0.001592
     20 H                     0.092873      -0.001588
     21 H                     0.265989       0.000332
     22 H                     0.100592       0.000940
     23 H                     0.126152      -0.000473
     24 H                     0.126161      -0.000464
     25 H                     0.333593       0.000171
     26 H                     0.117675      -0.007708
     27 H                     0.117928      -0.007696
     28 H                     0.266013       0.000337
     29 H                     0.100878       0.000954
     30 H                     0.093105      -0.001586
     31 H                     0.125985      -0.000473
     32 H                     0.333667       0.000171
     33 H                     0.126333      -0.000463
     34 H                     0.266272       0.000329
     35 H                     0.100943       0.000954
     36 H                     0.092371      -0.001594
  --------------------------------------------------------
  Sum of atomic charges =    -1.000000

                    Cartesian Multipole Moments
 -----------------------------------------------------------------
    Charge (ESU x 10^10)
                -4.8032
    Dipole Moment (Debye)
         X       0.1528      Y       4.3418      Z      -3.9767
       Tot       5.8897
    Quadrupole Moments (Debye-Ang)
        XX    -111.4695     XY      -0.4385     YY    -127.5196
        XZ       0.8628     YZ      21.0078     ZZ    -129.8720

 Total job time:  1161.85s(wall), 9091.74s(cpu)
        *  Thank you very much for using Q-Chem.  Have a nice day.  *
