 Gaussian 16, Revision A.03,
 Gaussian 16:  ES64L-G16RevA.03 25-Dec-2016

 --------------------------------------
 #P UB3LYP/6-311++G(d,p) nosym opt freq
 --------------------------------------

 -------
 Radical
 -------
 Symbolic Z-matrix:
 Charge = -1 Multiplicity = 2

 SCF Done:  E(UB3LYP) =  -817.318965319     A.U. after   27 cycles
 SCF Done:  E(UB3LYP) =  -817.318965261     A.U. after   14 cycles
 SCF Done:  E(UB3LYP) =  -817.318964650     A.U. after   14 cycles
 SCF Done:  E(UB3LYP) =  -817.318965415     A.U. after   14 cycles
 Optimization completed.
    -- Stationary point found.
 Normal termination of Gaussian 16 at Wed Jan 10 17:22:36 2024.

 ----------------------------------------------------------------------
 #P Geom=AllCheck Guess=TCheck SCRF=Check GenChk UB3LYP/6-311++G(d,p) F
 req
 ----------------------------------------------------------------------

 Structure from the checkpoint file:  "099-rad.chk"
 -------
 Radical
 -------
 Charge = -1 Multiplicity = 2

                          Input orientation:
 ---------------------------------------------------------------------
 Center     Atomic      Atomic             Coordinates (Angstroms)
 Number     Number       Type             X           Y           Z
 ---------------------------------------------------------------------
      1          6           0       -0.089720   -0.794134    1.463342
      2          6           0       -0.121021   -0.795600   -0.001002
      3          6           0       -0.662071   -1.861017   -0.693648
      4          6           0       -1.232952   -3.020785   -0.052365
      5          6           0       -1.191399   -3.007894    1.399024
      6          6           0       -0.652082   -1.969739    2.100227
      7          8           0        0.412393    0.148176    2.127676
      8          8           0       -1.730455   -3.980942   -0.706380
      9          6           0        0.546867    0.303110   -0.724420
     10          1           0       -1.614417   -3.870714    1.906185
     11          1           0       -0.700485   -1.850641   -1.779027
     12          1           0       -0.627016   -1.974216    3.186058
     13          6           0        0.445685    1.672853   -0.411804
     14          6           0        1.200284    2.651012   -1.056111
     15          6           0        2.065659    2.297557   -2.083169
     16          6           0        2.171268    0.954143   -2.446109
     17          6           0        1.438127   -0.012084   -1.769067
     18          7           0       -0.563496    2.191154    0.539227
     19          8           0       -0.269818    3.191301    1.187712
     20          8           0       -1.660954    1.654998    0.554529
     21          1           0        1.083453    3.681341   -0.747856
     22          1           0        2.645860    3.059146   -2.591786
     23          1           0        2.844118    0.655267   -3.243315
     24          1           0        1.569019   -1.058344   -2.017693
 ---------------------------------------------------------------------

 SCF Done:  E(UB3LYP) =  -817.318965415     A.U. after    1 cycles

 Alpha  occ. eigenvalues --  -19.04625 -19.04517 -18.95173 -18.94771 -14.43951
 Alpha  occ. eigenvalues --  -10.13165 -10.10376 -10.10012 -10.09758 -10.09615
 Alpha  occ. eigenvalues --  -10.09442 -10.09256 -10.08825 -10.06034 -10.04545
 Alpha  occ. eigenvalues --  -10.04460 -10.04368  -1.12278  -0.94875  -0.87702
 Alpha  occ. eigenvalues --   -0.86725  -0.78752  -0.71140  -0.70150  -0.67438
 Alpha  occ. eigenvalues --   -0.62465  -0.59286  -0.56193  -0.52966  -0.49827
 Alpha  occ. eigenvalues --   -0.47881  -0.45796  -0.43750  -0.42510  -0.40803
 Alpha  occ. eigenvalues --   -0.40204  -0.37062  -0.35882  -0.34788  -0.34705
 Alpha  occ. eigenvalues --   -0.33336  -0.31047  -0.29384  -0.28796  -0.27688
 Alpha  occ. eigenvalues --   -0.27492  -0.27244  -0.24957  -0.24550  -0.23937
 Alpha  occ. eigenvalues --   -0.20630  -0.20412  -0.19863  -0.18046  -0.16853
 Alpha  occ. eigenvalues --   -0.15305  -0.13225  -0.11589  -0.10931  -0.03666
 Alpha virt. eigenvalues --    0.02070   0.06506   0.06588   0.08394   0.08758
 Alpha virt. eigenvalues --    0.10082   0.10562   0.11573   0.11917   0.12522
 Alpha virt. eigenvalues --    0.12721   0.14227   0.14869   0.15308   0.15836

  Beta  occ. eigenvalues --  -19.04617 -19.04520 -18.94513 -18.93982 -14.43953
  Beta  occ. eigenvalues --  -10.13138 -10.10383 -10.09917 -10.09769 -10.09620
  Beta  occ. eigenvalues --  -10.09419 -10.09182 -10.08809 -10.05920 -10.04374
  Beta  occ. eigenvalues --  -10.04359 -10.04273  -1.12275  -0.94871  -0.86576
  Beta  occ. eigenvalues --   -0.85357  -0.78703  -0.70710  -0.70086  -0.67197
  Beta  occ. eigenvalues --   -0.62261  -0.59174  -0.55378  -0.52712  -0.49747
  Beta  occ. eigenvalues --   -0.47577  -0.45629  -0.43591  -0.42461  -0.40790
  Beta  occ. eigenvalues --   -0.40131  -0.37004  -0.35769  -0.34570  -0.34415
  Beta  occ. eigenvalues --   -0.33122  -0.30882  -0.29036  -0.28703  -0.27273
  Beta  occ. eigenvalues --   -0.26770  -0.26105  -0.24453  -0.23707  -0.21931
  Beta  occ. eigenvalues --   -0.20496  -0.20330  -0.19691  -0.17705  -0.16774
  Beta  occ. eigenvalues --   -0.12680  -0.11720  -0.10948  -0.10208
  Beta virt. eigenvalues --    0.02074   0.03418   0.06577   0.06957   0.08516
  Beta virt. eigenvalues --    0.08833   0.10094   0.10575   0.11879   0.12330
  Beta virt. eigenvalues --    0.12739   0.12957   0.14325   0.14884   0.15840

 Mulliken charges and spin densities:
               1          2
     1  C   -1.590016   0.041888
     2  C    2.161814   0.076736
     3  C   -0.252640   0.111596
     4  C   -0.572709   0.082290
     5  C    0.079532   0.065670
     6  C    0.021762   0.068548
     7  O   -0.323530   0.242373
     8  O   -0.404520   0.280835
     9  C    1.238322   0.016337
    10  H    0.156882  -0.005569
    11  H    0.175691  -0.011765
    12  H    0.157926  -0.007056
    13  C   -0.607769   0.029337
    14  C   -0.164345  -0.008502
    15  C   -0.412214   0.018220
    16  C   -0.386283  -0.005147
    17  C   -0.769103   0.005377
    18  N   -0.174768  -0.000409
    19  O   -0.003404  -0.001044
    20  O   -0.000486   0.002484
    21  H    0.210720   0.000460
    22  H    0.140889  -0.001422
    23  H    0.146235   0.000577
    24  H    0.172014  -0.001813
 Sum of Mulliken charges =  -1.00000   1.00000

 Dipole moment (field-independent basis, Debye):
    X=              4.7260    Y=              4.7261    Z=             -4.1039  Tot=              7.8430
 Quadrupole moment (field-independent basis, Debye-Ang):
   XX=           -111.7096   YY=           -143.2115   ZZ=           -111.3306
   XY=            -11.6173   XZ=             -6.6182   YZ=            -14.2884

  Exact polarizability: 151.040  61.221 251.189 -33.019  -9.435 189.094
 Approx polarizability: 248.046 102.407 398.475 -30.303  33.003 312.663

                      1                      2                      3
                      A                      A                      A
 Frequencies --     50.5101                72.5857                80.3462
 Red. masses --     10.3911                 4.7349                 9.4587
 Frc consts  --      0.0156                 0.0147                 0.0360
 IR Inten    --      1.6163                 2.6039                 0.6020

                      4                      5                      6
                      A                      A                      A
 Frequencies --    106.0227               135.6782               148.5568
 Red. masses --      6.8508                 8.9882                 7.4639
 Frc consts  --      0.0454                 0.0975                 0.0971
 IR Inten    --      1.8221                 9.4050                 1.2623

                      7                      8                      9
                      A                      A                      A
 Frequencies --    189.9154               251.1231               267.9263
 Red. masses --      8.1582                 6.7976                 7.4351
 Frc consts  --      0.1734                 0.2526                 0.3145
 IR Inten    --      1.1882                 3.3435                 5.2413

                     10                     11                     12
                      A                      A                      A
 Frequencies --    308.9466               342.1306               389.3436
 Red. masses --      7.3092                 5.2905                 8.0814
 Frc consts  --      0.4110                 0.3649                 0.7218
 IR Inten    --      1.8433                 0.3283                 3.8682

                     13                     14                     15
                      A                      A                      A
 Frequencies --    415.3371               422.7894               462.1530
 Red. masses --      4.7201                 5.6860                 4.6973
 Frc consts  --      0.4797                 0.5988                 0.5911
 IR Inten    --      1.6387                 1.9048                 6.9656

                     16                     17                     18
                      A                      A                      A
 Frequencies --    476.9900               511.1786               570.4439
 Red. masses --     10.4041                 3.3436                 4.6407
 Frc consts  --      1.3947                 0.5148                 0.8897
 IR Inten    --      3.2095                 0.2513                 4.4058

                     19                     20                     21
                      A                      A                      A
 Frequencies --    572.1285               621.2884               638.8128
 Red. masses --      4.6413                 3.3234                 5.9404
 Frc consts  --      0.8951                 0.7558                 1.4283
 IR Inten    --      0.7099                 5.2179                 1.0048

                     22                     23                     24
                      A                      A                      A
 Frequencies --    671.7748               716.4256               727.6080
 Red. masses --      6.4640                 4.1330                 6.9341
 Frc consts  --      1.7187                 1.2499                 2.1629
 IR Inten    --      1.0145                27.8187                 9.5088

                     25                     26                     27
                      A                      A                      A
 Frequencies --    746.8224               761.5723               787.8893
 Red. masses --      2.4278                 2.2680                 2.5985
 Frc consts  --      0.7978                 0.7750                 0.9504
 IR Inten    --     31.7317                10.3914                10.6506

                     28                     29                     30
                      A                      A                      A
 Frequencies --    820.4497               828.7388               861.5180
 Red. masses --      4.7071                 1.9975                 8.5738
 Frc consts  --      1.8668                 0.8083                 3.7493
 IR Inten    --     26.2197                22.2933                12.1951

                     31                     32                     33
                      A                      A                      A
 Frequencies --    877.3309               886.2045               896.4463
 Red. masses --      1.6034                 2.1275                 3.1063
 Frc consts  --      0.7271                 0.9844                 1.4708
 IR Inten    --     13.6122                31.1152                 2.3794

                     34                     35                     36
                      A                      A                      A
 Frequencies --    960.6471               964.7098               984.3276
 Red. masses --      1.3802                 1.2846                 1.3159
 Frc consts  --      0.7505                 0.7044                 0.7512
 IR Inten    --      1.6351                 0.7459                 0.5150

                     37                     38                     39
                      A                      A                      A
 Frequencies --   1000.2982              1062.1816              1090.6667
 Red. masses --      3.3377                 2.6439                 2.5562
 Frc consts  --      1.9677                 1.7575                 1.7916
 IR Inten    --     20.6720                19.2770                 1.3338

                     40                     41                     42
                      A                      A                      A
 Frequencies --   1106.9045              1153.7554              1176.0685
 Red. masses --      1.8547                 1.8457                 1.1495
 Frc consts  --      1.3389                 1.4476                 0.9367
 IR Inten    --      2.8109                24.8607                14.9723

                     43                     44                     45
                      A                      A                      A
 Frequencies --   1193.4613              1247.1478              1254.0810
 Red. masses --      1.8920                 1.5159                 3.1382
 Frc consts  --      1.5877                 1.3892                 2.9079
 IR Inten    --     54.8735                38.8635                 6.1934

                     46                     47                     48
                      A                      A                      A
 Frequencies --   1279.3804              1335.6357              1346.5007
 Red. masses --      1.9922                 4.3920                 2.2345
 Frc consts  --      1.9212                 4.6163                 2.3869
 IR Inten    --      4.0070                44.9912                 8.9052

                     49                     50                     51
                      A                      A                      A
 Frequencies --   1376.0089              1420.6113              1464.5592
 Red. masses --     11.0468                 4.1185                 2.3721
 Frc consts  --     12.3234                 4.8971                 2.9977
 IR Inten    --    174.1158                38.9996                 4.2032

                     52                     53                     54
                      A                      A                      A
 Frequencies --   1484.4411              1494.2962              1512.6943
 Red. masses --      6.5252                 2.9853                 5.5468
 Frc consts  --      8.4717                 3.9275                 7.4782
 IR Inten    --    143.2861                71.3172               111.6075

                     55                     56                     57
                      A                      A                      A
 Frequencies --   1540.5807              1574.4788              1599.9406
 Red. masses --      6.6458                 9.2180                 6.3861
 Frc consts  --      9.2932                13.4635                 9.6315
 IR Inten    --    343.9107               108.6944               113.8365

                     58                     59                     60
                      A                      A                      A
 Frequencies --   1631.9722              1644.6257              3138.5172
 Red. masses --      6.4898                 7.0488                 1.0854
 Frc consts  --     10.1837                11.2331                 6.2992
 IR Inten    --    109.2688                40.4976                16.0488

                     61                     62                     63
                      A                      A                      A
 Frequencies --   3150.1123              3154.1056              3161.0464
 Red. masses --      1.0890                 1.0860                 1.0948
 Frc consts  --      6.3671                 6.3653                 6.4456
 IR Inten    --     18.8304                 6.8209                40.6903

                     64                     65                     66
                      A                      A                      A
 Frequencies --   3174.1978              3187.8242              3208.1688
 Red. masses --      1.0916                 1.0932                 1.0928
 Frc consts  --      6.4799                 6.5452                 6.6269
 IR Inten    --     25.6062                12.2313                 5.6908

 - Thermochemistry -
 -------------------
 Temperature   298.150 Kelvin.  Pressure   1.00000 Atm.
 Atom     1 has atomic number  6 and mass  12.00000

 Molecular mass:   229.03751 amu.
 Principal axes and moments of inertia in atomic units:
                           1         2         3
     Eigenvalues --  2212.792444846.279506196.03247
           X            0.35787  -0.40029   0.84362
           Y            0.90809   0.35963  -0.21458
           Z           -0.21749   0.84287   0.49220
 This molecule is an asymmetric top.
 Rotational symmetry number  1.
 Warning -- assumption of classical behavior for rotation
           may cause significant error
 Rotational temperatures (Kelvin)      0.03914     0.01787     0.01398
 Rotational constants (GHZ):           0.81559     0.37240     0.29127
 Zero-point vibrational energy     434788.3 (Joules/Mol)
                                  103.91691 (Kcal/Mol)
 Warning -- explicit consideration of  19 degrees of freedom as
           vibrations may cause significant error
 Vibrational temperatures:     72.67   104.43   115.60   152.54   195.21
          (Kelvin)            213.74   273.25   361.31   385.49   444.51
                              492.25   560.18   597.58   608.30   664.94
                              686.28   735.47   820.74   823.17   893.90
                              919.11   966.53  1030.78  1046.87  1074.51
                             1095.73  1133.60  1180.44  1192.37  1239.53
                             1262.28  1275.05  1289.79  1382.16  1388.00
                             1416.23  1439.21  1528.24  1569.23  1592.59
                             1660.00  1692.10  1717.12  1794.37  1804.34
                             1840.74  1921.68  1937.31  1979.77  2043.94
                             2107.17  2135.78  2149.96  2176.43  2216.55
                             2265.32  2301.96  2348.04  2366.25  4515.63
                             4532.31  4538.05  4548.04  4566.96  4586.57
                             4615.84

 Zero-point correction=                           0.165602 (Hartree/Particle)
 Thermal correction to Energy=                    0.178808
 Thermal correction to Enthalpy=                  0.179752
 Thermal correction to Gibbs Free Energy=         0.124524
 Sum of electronic and zero-point Energies=           -817.153363
 Sum of electronic and thermal Energies=              -817.140158
 Sum of electronic and thermal Enthalpies=            -817.139213
 Sum of electronic and thermal Free Energies=         -817.194441

                     E (Thermal)             CV                S
                      KCal/Mol        Cal/Mol-Kelvin    Cal/Mol-Kelvin
 Total                  112.204             51.199            116.237
 Electronic               0.000              0.000              1.377
 Translational            0.889              2.981             42.188
 Rotational               0.889              2.981             32.563
 Vibrational            110.426             45.237             40.108
 Vibration     1          0.595              1.977              4.797
 Vibration     2          0.599              1.967              4.082
 Vibration     3          0.600              1.962              3.882
 Vibration     4          0.605              1.944              3.340
 Vibration     5          0.614              1.918              2.864
 Vibration     6          0.618              1.904              2.691
 Vibration     7          0.633              1.854              2.229
 Vibration     8          0.663              1.761              1.723
 Vibration     9          0.673              1.732              1.610
 Vibration    10          0.698              1.657              1.368
 Vibration    11          0.721              1.591              1.202
 Vibration    12          0.757              1.493              1.003
 Vibration    13          0.779              1.437              0.908
 Vibration    14          0.785              1.421              0.883
 Vibration    15          0.820              1.334              0.760
 Vibration    16          0.834              1.301              0.718
 Vibration    17          0.866              1.225              0.631
 Vibration    18          0.927              1.095              0.503
 Vibration    19          0.928              1.092              0.500

 Optimization completed.
    -- Stationary point found.
 Normal termination of Gaussian 16 at Wed Jan 10 18:12:52 2024.
