 Q-Chem 5.4, Q-Chem, Inc., Pleasanton, CA (2021)
 Q-Chem 5.4.0 for Intel X86 EM64T Linux

User input:
--------------------------------------------------------------
$molecule
-1 2
C                 -0.0897200000     -0.7941340000      1.4633420000
C                 -0.1210210000     -0.7956000000     -0.0010020000
C                 -0.6620710000     -1.8610170000     -0.6936480000
C                 -1.2329520000     -3.0207850000     -0.0523650000
C                 -1.1913990000     -3.0078940000      1.3990240000
C                 -0.6520820000     -1.9697390000      2.1002270000
O                  0.4123930000      0.1481760000      2.1276760000
O                 -1.7304550000     -3.9809420000     -0.7063800000
C                  0.5468670000      0.3031100000     -0.7244200000
H                 -1.6144170000     -3.8707140000      1.9061850000
H                 -0.7004850000     -1.8506410000     -1.7790270000
H                 -0.6270160000     -1.9742160000      3.1860580000
C                  0.4456850000      1.6728530000     -0.4118040000
C                  1.2002840000      2.6510120000     -1.0561110000
C                  2.0656590000      2.2975570000     -2.0831690000
C                  2.1712680000      0.9541430000     -2.4461090000
C                  1.4381270000     -0.0120840000     -1.7690670000
N                 -0.5634960000      2.1911540000      0.5392270000
O                 -0.2698180000      3.1913010000      1.1877120000
O                 -1.6609540000      1.6549980000      0.5545290000
H                  1.0834530000      3.6813410000     -0.7478560000
H                  2.6458600000      3.0591460000     -2.5917860000
H                  2.8441180000      0.6552670000     -3.2433150000
H                  1.5690190000     -1.0583440000     -2.0176930000
$end

$rem
BASIS  =  6-311++G(d,p)
GUI  =  2
JOB_TYPE  =  SP
METHOD  =  B3LYP
SCF_CONVERGENCE  = 8
SOLVENT_METHOD = sm12
$end

$smx
solvent dimethylformamide
charges CM5
$end

--------------------------------------------------------------

             Standard Nuclear Orientation (Angstroms)
    I     Atom           X                Y                Z
 ----------------------------------------------------------------
    1      C      -0.0897200000    -0.7941340000     1.4633420000
    2      C      -0.1210210000    -0.7956000000    -0.0010020000
    3      C      -0.6620710000    -1.8610170000    -0.6936480000
    4      C      -1.2329520000    -3.0207850000    -0.0523650000
    5      C      -1.1913990000    -3.0078940000     1.3990240000
    6      C      -0.6520820000    -1.9697390000     2.1002270000
    7      O       0.4123930000     0.1481760000     2.1276760000
    8      O      -1.7304550000    -3.9809420000    -0.7063800000
    9      C       0.5468670000     0.3031100000    -0.7244200000
   10      H      -1.6144170000    -3.8707140000     1.9061850000
   11      H      -0.7004850000    -1.8506410000    -1.7790270000
   12      H      -0.6270160000    -1.9742160000     3.1860580000
   13      C       0.4456850000     1.6728530000    -0.4118040000
   14      C       1.2002840000     2.6510120000    -1.0561110000
   15      C       2.0656590000     2.2975570000    -2.0831690000
   16      C       2.1712680000     0.9541430000    -2.4461090000
   17      C       1.4381270000    -0.0120840000    -1.7690670000
   18      N      -0.5634960000     2.1911540000     0.5392270000
   19      O      -0.2698180000     3.1913010000     1.1877120000
   20      O      -1.6609540000     1.6549980000     0.5545290000
   21      H       1.0834530000     3.6813410000    -0.7478560000
   22      H       2.6458600000     3.0591460000    -2.5917860000
   23      H       2.8441180000     0.6552670000    -3.2433150000
   24      H       1.5690190000    -1.0583440000    -2.0176930000
 ----------------------------------------------------------------

   20    -817.3140597685      5.93e-09  Convergence criterion met
 Total energy in the final basis set =     -817.4031406331

                    Orbital Energies (a.u.)
 --------------------------------------------------------------

 Alpha MOs
 -- Occupied --
-19.1631 -19.1627 -19.0819 -19.0797 -14.5560 -10.2425 -10.2291 -10.2241
-10.2157 -10.2016 -10.1960 -10.1945 -10.1943 -10.1887 -10.1750 -10.1742
-10.1740  -1.2398  -1.0663  -1.0075  -0.9994  -0.8956  -0.8358  -0.8098
 -0.7914  -0.7438  -0.7060  -0.6867  -0.6427  -0.6101  -0.6011  -0.5785
 -0.5527  -0.5417  -0.5241  -0.5082  -0.4865  -0.4756  -0.4687  -0.4659
 -0.4477  -0.4331  -0.4159  -0.4075  -0.3947  -0.3930  -0.3843  -0.3768
 -0.3703  -0.3667  -0.3240  -0.3217  -0.3127  -0.2953  -0.2832  -0.2774
 -0.2546  -0.2465  -0.2410  -0.1677

 Beta MOs
 -- Occupied --
-19.1631 -19.1627 -19.0750 -19.0720 -14.5560 -10.2423 -10.2281 -10.2232
-10.2159 -10.2016 -10.1961 -10.1944 -10.1941 -10.1874 -10.1739 -10.1732
-10.1726  -1.2398  -1.0663  -0.9956  -0.9860  -0.8951  -0.8305  -0.8095
 -0.7895  -0.7418  -0.7042  -0.6784  -0.6407  -0.6090  -0.5982  -0.5769
 -0.5515  -0.5413  -0.5240  -0.5072  -0.4851  -0.4719  -0.4673  -0.4643
 -0.4464  -0.4319  -0.4034  -0.4008  -0.3930  -0.3861  -0.3806  -0.3689
 -0.3648  -0.3494  -0.3225  -0.3212  -0.3120  -0.2888  -0.2769  -0.2566
 -0.2435  -0.2399  -0.2341

          Ground-State Mulliken Net Atomic Charges

     Atom                 Charge (a.u.)    Spin (a.u.)
  --------------------------------------------------------
      1 C                    -2.351346       0.048185
      2 C                     0.950102       0.083559
      3 C                    -1.266341       0.074982
      4 C                    -0.874325       0.089156
      5 C                    -0.221640       0.077823
      6 C                    -0.032987       0.072193
      7 O                    -0.306571       0.254626
      8 O                    -0.392005       0.274070
      9 C                     0.019495       0.010754
     10 H                     0.219743      -0.006204
     11 H                     0.163137      -0.009630
     12 H                     0.201618      -0.007470
     13 C                    -1.181284       0.027358
     14 C                     0.813812      -0.004660
     15 C                     1.063579       0.013769
     16 C                     0.955869      -0.006573
     17 C                     0.170913       0.009105
     18 N                    -0.290487      -0.000322
     19 O                     0.051450       0.000073
     20 O                    -0.082520       0.000830
     21 H                     0.276828       0.000357
     22 H                     0.421258      -0.000883
     23 H                     0.393873       0.000551
     24 H                     0.297829      -0.001649
  --------------------------------------------------------
  Sum of atomic charges =    -1.000000

                    Cartesian Multipole Moments
 -----------------------------------------------------------------
    Charge (ESU x 10^10)
                -4.8032
    Dipole Moment (Debye)
         X       6.2795      Y       6.2604      Z      -5.6296
       Tot      10.5032
    Quadrupole Moments (Debye-Ang)
        XX    -109.4823     XY     -10.0161     YY    -142.9993
        XZ      -9.8376     YZ     -16.1502     ZZ    -108.6907

 Total job time:  588.97s(wall), 4571.39s(cpu)
        *  Thank you very much for using Q-Chem.  Have a nice day.  *
