 Q-Chem 5.4, Q-Chem, Inc., Pleasanton, CA (2021)
 Q-Chem 5.4.0 for Intel X86 EM64T Linux

User input:
--------------------------------------------------------------
$molecule
0 1
O                  1.6794420000      2.3630090000      0.3794500000
C                  1.4005360000      1.1934110000      0.1990230000
C                 -0.0173530000      0.7036740000      0.2083690000
C                 -1.0476710000      1.6150250000      0.4303230000
C                 -2.3728010000      1.1814320000      0.4432910000
C                 -2.6745510000     -0.1640160000      0.2346500000
C                 -1.6506420000     -1.0824180000      0.0118560000
C                 -0.3240060000     -0.6528070000     -0.0018650000
C                  0.7688670000     -1.6250830000     -0.2382170000
O                  0.5918420000     -2.8253060000     -0.4302490000
C                  2.1464190000     -1.1205400000     -0.2421130000
O                  3.1267370000     -2.0281850000     -0.4599980000
C                  2.4604720000      0.1829300000     -0.0413050000
O                  3.7243630000      0.6406600000     -0.0458890000
H                 -0.7947210000      2.6558890000      0.5904540000
H                 -3.1702720000      1.8948780000      0.6164860000
H                 -3.7058100000     -0.4973180000      0.2454780000
H                 -1.8615660000     -2.1320190000     -0.1525500000
H                  2.6831860000     -2.8880570000     -0.5772850000
H                  4.3244470000     -0.1002140000     -0.2107760000
$end
$rem
MAX_SCF_CYCLES=200
BASIS  =  6-311++G(d,p)
GUI  =  2
JOB_TYPE  =  SP
METHOD  =  B3LYP
SOLVENT_METHOD = COSMO
$end
$solvent
dielectric 37.219
opticaldielectric 1.43
$end

--------------------------------------------------------------

             Standard Nuclear Orientation (Angstroms)
    I     Atom           X                Y                Z
 ----------------------------------------------------------------
    1      O      -0.4389116058    -2.7060273981    -0.0001005916
    2      C      -0.4359162313    -1.4901766833    -0.0001897178
    3      C       0.8381872581    -0.6983438791    -0.0001489282
    4      C       2.0563962796    -1.3746176207    -0.0000451372
    5      C       3.2527228450    -0.6584170253     0.0001327095
    6      C       3.2375092326     0.7360660307     0.0001853911
    7      C       2.0239371451     1.4207059376     0.0000215753
    8      C       0.8252206862     0.7081080285    -0.0001355683
    9      C      -0.4682386862     1.4309614903    -0.0002190170
   10      O      -0.5719534621     2.6548865757    -0.0000775556
   11      C      -1.6994348072     0.6332244575     0.0000427315
   12      O      -2.8678569379     1.3166762989     0.0001166395
   13      C      -1.7059325032    -0.7224838293     0.0000825184
   14      O      -2.8367521777    -1.4492610144     0.0001951003
   15      H       2.0490785635    -2.4576549954    -0.0000915841
   16      H       4.1974844298    -1.1898182236     0.0002466883
   17      H       4.1694864371     1.2893481057     0.0003574441
   18      H       1.9881207952     2.5032481838     0.0000163722
   19      H      -2.6323510996     2.2624090964    -0.0001328481
   20      H      -3.5947329699    -0.8478893057     0.0001758443
 ----------------------------------------------------------------

    9    -685.7655214534      7.69e-06  Convergence criterion met
 Total energy in the final basis set =     -685.7655214534
    5    -685.7850625663      3.26e-06  Convergence criterion met
 Total energy in the final basis set =     -685.7850625663

                    Orbital Energies (a.u.)
 --------------------------------------------------------------

 Alpha MOs
 -- Occupied --
-19.1846 -19.1822 -19.1463 -19.1411 -10.2938 -10.2929 -10.2685 -10.2643
-10.2128 -10.2123 -10.2006 -10.1992 -10.1982 -10.1975  -1.1160  -1.0956
 -1.0721  -1.0641  -0.8943  -0.8351  -0.7820  -0.7724  -0.7101  -0.6637
 -0.6525  -0.6117  -0.5909  -0.5638  -0.5511  -0.5087  -0.5005  -0.4834
 -0.4718  -0.4679  -0.4578  -0.4533  -0.4371  -0.4228  -0.4215  -0.4088
 -0.3865  -0.3841  -0.3788  -0.3719  -0.3049  -0.2918  -0.2909  -0.2815
 -0.2484

          Ground-State Mulliken Net Atomic Charges

     Atom                 Charge (a.u.)
  ----------------------------------------
      1 O                    -0.309313
      2 C                    -0.523260
      3 C                     0.383498
      4 C                     0.287664
      5 C                    -0.421009
      6 C                    -0.354890
      7 C                     0.230221
      8 C                     0.359300
      9 C                    -0.472195
     10 O                    -0.348274
     11 C                     0.071432
     12 O                    -0.305028
     13 C                     0.144797
     14 O                    -0.277975
     15 H                     0.197452
     16 H                     0.230161
     17 H                     0.234054
     18 H                     0.200399
     19 H                     0.333583
     20 H                     0.339383
  ----------------------------------------
  Sum of atomic charges =     0.000000

                    Cartesian Multipole Moments
 -----------------------------------------------------------------
    Charge (ESU x 10^10)
                 0.0000
    Dipole Moment (Debye)
         X       2.6281      Y       2.8618      Z       0.0003
       Tot       3.8855
    Quadrupole Moments (Debye-Ang)
        XX     -59.1693     XY      -5.6302     YY     -95.5261
        XZ       0.0042     YZ      -0.0008     ZZ     -80.8258

 Total job time:  29.81s(wall), 217.42s(cpu)
        *  Thank you very much for using Q-Chem.  Have a nice day.  *
