 Q-Chem 5.4, Q-Chem, Inc., Pleasanton, CA (2021)
 Q-Chem 5.4.0 for Intel X86 EM64T Linux

User input:
--------------------------------------------------------------
$molecule
0 1
C                 -1.7950960000      2.7683770000     -0.6688170000
C                 -2.8910110000      1.9328980000     -0.4857120000
C                 -2.6811860000      0.5837730000     -0.2119870000
C                 -0.4948160000      2.2705030000     -0.5724520000
C                 -0.2708430000      0.9090750000     -0.2795430000
C                 -1.3863230000      0.0789740000     -0.1127960000
C                  0.6458080000      3.2085020000     -0.8083570000
C                  2.0770060000      2.6183500000     -0.7606070000
C                  2.1985640000      1.2255920000     -0.4127150000
C                  1.1257020000      0.4063720000     -0.1646730000
O                  0.4706260000      4.3841940000     -1.0342580000
O                  3.0279550000      3.3471060000     -0.9947410000
H                 -1.9200440000      3.8205960000     -0.8940840000
H                 -3.8979830000      2.3259090000     -0.5627420000
H                 -3.5249050000     -0.0836450000     -0.0788130000
H                 -1.2764700000     -0.9814390000      0.0800280000
H                  3.2109950000      0.8514720000     -0.3393370000
N                  1.2917190000     -0.9000220000      0.1767030000
C                  2.5868290000     -1.5367780000      0.3830690000
C                  2.4103280000     -3.0011090000      0.7676580000
H                  0.4891420000     -1.4113760000      0.5021050000
H                  3.1445880000     -1.0032880000      1.1632700000
H                  3.1716590000     -1.4581830000     -0.5394090000
H                  1.8476260000     -3.1024940000      1.7006730000
H                  3.3851930000     -3.4686670000      0.9179220000
H                  1.8884480000     -3.5566120000     -0.0162370000
$end
$rem
MAX_SCF_CYCLES=200
BASIS  =  6-311++G(d,p)
GUI  =  2
JOB_TYPE  =  SP
METHOD  =  B3LYP
SOLVENT_METHOD = PCM
$end
$pcm
theory = CPCM
$end
$solvent
dielectric 37.219
opticaldielectric 1.43
$end

--------------------------------------------------------------

             Standard Nuclear Orientation (Angstroms)
    I     Atom           X                Y                Z
 ----------------------------------------------------------------
    1      C      -1.7950960000     2.7683770000    -0.6688170000
    2      C      -2.8910110000     1.9328980000    -0.4857120000
    3      C      -2.6811860000     0.5837730000    -0.2119870000
    4      C      -0.4948160000     2.2705030000    -0.5724520000
    5      C      -0.2708430000     0.9090750000    -0.2795430000
    6      C      -1.3863230000     0.0789740000    -0.1127960000
    7      C       0.6458080000     3.2085020000    -0.8083570000
    8      C       2.0770060000     2.6183500000    -0.7606070000
    9      C       2.1985640000     1.2255920000    -0.4127150000
   10      C       1.1257020000     0.4063720000    -0.1646730000
   11      O       0.4706260000     4.3841940000    -1.0342580000
   12      O       3.0279550000     3.3471060000    -0.9947410000
   13      H      -1.9200440000     3.8205960000    -0.8940840000
   14      H      -3.8979830000     2.3259090000    -0.5627420000
   15      H      -3.5249050000    -0.0836450000    -0.0788130000
   16      H      -1.2764700000    -0.9814390000     0.0800280000
   17      H       3.2109950000     0.8514720000    -0.3393370000
   18      N       1.2917190000    -0.9000220000     0.1767030000
   19      C       2.5868290000    -1.5367780000     0.3830690000
   20      C       2.4103280000    -3.0011090000     0.7676580000
   21      H       0.4891420000    -1.4113760000     0.5021050000
   22      H       3.1445880000    -1.0032880000     1.1632700000
   23      H       3.1716590000    -1.4581830000    -0.5394090000
   24      H       1.8476260000    -3.1024940000     1.7006730000
   25      H       3.3851930000    -3.4686670000     0.9179220000
   26      H       1.8884480000    -3.5566120000    -0.0162370000
 ----------------------------------------------------------------

    9    -669.3015723294      3.63e-06  Convergence criterion met
 Total energy in the final basis set =     -669.3015723294

                    Orbital Energies (a.u.)
 --------------------------------------------------------------

 Alpha MOs
 -- Occupied --
-19.1402 -19.1131 -14.3604 -10.2800 -10.2619 -10.2579 -10.2196 -10.2140
-10.2058 -10.1998 -10.1973 -10.1965 -10.1934 -10.1723 -10.1673  -1.0789
 -1.0416  -0.9721  -0.8886  -0.8240  -0.7860  -0.7624  -0.7558  -0.6931
 -0.6551  -0.6362  -0.6248  -0.5955  -0.5585  -0.5285  -0.5200  -0.4913
 -0.4801  -0.4748  -0.4693  -0.4588  -0.4518  -0.4478  -0.4348  -0.4181
 -0.4041  -0.3944  -0.3932  -0.3807  -0.3757  -0.3719  -0.3658  -0.3424
 -0.3065  -0.2819  -0.2741  -0.2562  -0.2343

          Ground-State Mulliken Net Atomic Charges

     Atom                 Charge (a.u.)
  ----------------------------------------
      1 C                     0.194611
      2 C                    -0.426131
      3 C                    -0.468753
      4 C                     0.438462
      5 C                     0.390186
      6 C                    -0.155308
      7 C                    -0.566579
      8 C                     0.018883
      9 C                    -0.001970
     10 C                    -0.292751
     11 O                    -0.299691
     12 O                    -0.417417
     13 H                     0.200225
     14 H                     0.219814
     15 H                     0.225922
     16 H                     0.160304
     17 H                     0.245845
     18 N                     0.051014
     19 C                    -0.024479
     20 C                    -0.740933
     21 H                     0.362789
     22 H                     0.191835
     23 H                     0.188161
     24 H                     0.163719
     25 H                     0.172859
     26 H                     0.169382
  ----------------------------------------
  Sum of atomic charges =     0.000000

                    Cartesian Multipole Moments
 -----------------------------------------------------------------
    Charge (ESU x 10^10)
                 0.0000
    Dipole Moment (Debye)
         X      -5.6460      Y     -12.2999      Z       3.4918
       Tot      13.9770
    Quadrupole Moments (Debye-Ang)
        XX     -87.9294     XY     -30.5009     YY    -123.7501
        XZ       8.8262     YZ       8.5973     ZZ     -92.3377

 Total job time:  36.42s(wall), 269.69s(cpu)
        *  Thank you very much for using Q-Chem.  Have a nice day.  *
