 Gaussian 16, Revision A.03,
 Gaussian 16:  ES64L-G16RevA.03 25-Dec-2016

 --------------------------------------
 #P UB3LYP/6-311++G(d,p) nosym opt freq
 --------------------------------------

 --------
 Oxidized
 --------
 Symbolic Z-matrix:
 Charge =  0 Multiplicity = 1

 SCF Done:  E(UB3LYP) =  -669.274749443     A.U. after   16 cycles
 SCF Done:  E(UB3LYP) =  -669.274749735     A.U. after   10 cycles
 SCF Done:  E(UB3LYP) =  -669.274748960     A.U. after   11 cycles
 SCF Done:  E(UB3LYP) =  -669.274750121     A.U. after   10 cycles
 SCF Done:  E(UB3LYP) =  -669.274750268     A.U. after    9 cycles
 SCF Done:  E(UB3LYP) =  -669.274750847     A.U. after   11 cycles
 SCF Done:  E(UB3LYP) =  -669.274751398     A.U. after   11 cycles
 SCF Done:  E(UB3LYP) =  -669.274751549     A.U. after   11 cycles
 SCF Done:  E(UB3LYP) =  -669.274752578     A.U. after    9 cycles
 SCF Done:  E(UB3LYP) =  -669.274750407     A.U. after   12 cycles
 SCF Done:  E(UB3LYP) =  -669.274759679     A.U. after   14 cycles
 SCF Done:  E(UB3LYP) =  -669.274768848     A.U. after   12 cycles
 SCF Done:  E(UB3LYP) =  -669.274761561     A.U. after   14 cycles
 SCF Done:  E(UB3LYP) =  -669.271963781     A.U. after   13 cycles
 SCF Done:  E(UB3LYP) =  -669.274778144     A.U. after   12 cycles
 SCF Done:  E(UB3LYP) =  -669.274780281     A.U. after   12 cycles
 SCF Done:  E(UB3LYP) =  -669.274780755     A.U. after   12 cycles
 SCF Done:  E(UB3LYP) =  -669.274781167     A.U. after   11 cycles
 SCF Done:  E(UB3LYP) =  -669.274781220     A.U. after    9 cycles
 Optimization completed.
    -- Stationary point found.
 Normal termination of Gaussian 16 at Fri Jan 12 20:19:30 2024.

 ----------------------------------------------------------------------
 #P Geom=AllCheck Guess=TCheck SCRF=Check GenChk UB3LYP/6-311++G(d,p) F
 req
 ----------------------------------------------------------------------

 Structure from the checkpoint file:  "324.chk"
 --------
 Oxidized
 --------
 Charge =  0 Multiplicity = 1

                          Input orientation:
 ---------------------------------------------------------------------
 Center     Atomic      Atomic             Coordinates (Angstroms)
 Number     Number       Type             X           Y           Z
 ---------------------------------------------------------------------
      1          6           0       -1.795096    2.768377   -0.668817
      2          6           0       -2.891011    1.932898   -0.485712
      3          6           0       -2.681186    0.583773   -0.211987
      4          6           0       -0.494816    2.270503   -0.572452
      5          6           0       -0.270843    0.909075   -0.279543
      6          6           0       -1.386323    0.078974   -0.112796
      7          6           0        0.645808    3.208502   -0.808357
      8          6           0        2.077006    2.618350   -0.760607
      9          6           0        2.198564    1.225592   -0.412715
     10          6           0        1.125702    0.406372   -0.164673
     11          8           0        0.470626    4.384194   -1.034258
     12          8           0        3.027955    3.347106   -0.994741
     13          1           0       -1.920044    3.820596   -0.894084
     14          1           0       -3.897983    2.325909   -0.562742
     15          1           0       -3.524905   -0.083645   -0.078813
     16          1           0       -1.276470   -0.981439    0.080028
     17          1           0        3.210995    0.851472   -0.339337
     18          7           0        1.291719   -0.900022    0.176703
     19          6           0        2.586829   -1.536778    0.383069
     20          6           0        2.410328   -3.001109    0.767658
     21          1           0        0.489142   -1.411376    0.502105
     22          1           0        3.144588   -1.003288    1.163270
     23          1           0        3.171659   -1.458183   -0.539409
     24          1           0        1.847626   -3.102494    1.700673
     25          1           0        3.385193   -3.468667    0.917922
     26          1           0        1.888448   -3.556612   -0.016237
 ---------------------------------------------------------------------

 SCF Done:  E(UB3LYP) =  -669.274781220     A.U. after    1 cycles

 Alpha  occ. eigenvalues --  -19.12632 -19.09970 -14.36868 -10.26709 -10.25943
 Alpha  occ. eigenvalues --  -10.25014 -10.23615 -10.22624 -10.21173 -10.20890
 Alpha  occ. eigenvalues --  -10.20847 -10.20311 -10.20154 -10.19610 -10.17444
 Alpha  occ. eigenvalues --   -1.06301  -1.02475  -0.98305  -0.89542  -0.83128
 Alpha  occ. eigenvalues --   -0.79556  -0.77596  -0.76278  -0.69758  -0.66875
 Alpha  occ. eigenvalues --   -0.64623  -0.63168  -0.60090  -0.56485  -0.53180
 Alpha  occ. eigenvalues --   -0.52623  -0.50288  -0.49453  -0.48361  -0.47281
 Alpha  occ. eigenvalues --   -0.45953  -0.44706  -0.44603  -0.42581  -0.42302
 Alpha  occ. eigenvalues --   -0.41580  -0.41225  -0.40022  -0.39603  -0.38347
 Alpha  occ. eigenvalues --   -0.37522  -0.37417  -0.34970  -0.28922  -0.28605
 Alpha  occ. eigenvalues --   -0.28333  -0.23891  -0.23507
 Alpha virt. eigenvalues --   -0.11034  -0.05879  -0.02892  -0.02077  -0.01291
 Alpha virt. eigenvalues --   -0.00207   0.00689   0.00902   0.01487   0.02589
 Alpha virt. eigenvalues --    0.03066   0.03297   0.03967   0.04131   0.04706

  Beta  occ. eigenvalues --  -19.12632 -19.09970 -14.36868 -10.26709 -10.25943
  Beta  occ. eigenvalues --  -10.25014 -10.23615 -10.22624 -10.21173 -10.20890
  Beta  occ. eigenvalues --  -10.20847 -10.20311 -10.20154 -10.19610 -10.17444
  Beta  occ. eigenvalues --   -1.06301  -1.02475  -0.98305  -0.89542  -0.83128
  Beta  occ. eigenvalues --   -0.79556  -0.77596  -0.76278  -0.69758  -0.66875
  Beta  occ. eigenvalues --   -0.64623  -0.63168  -0.60090  -0.56485  -0.53180
  Beta  occ. eigenvalues --   -0.52623  -0.50288  -0.49453  -0.48361  -0.47281
  Beta  occ. eigenvalues --   -0.45953  -0.44706  -0.44603  -0.42581  -0.42302
  Beta  occ. eigenvalues --   -0.41580  -0.41225  -0.40022  -0.39603  -0.38347
  Beta  occ. eigenvalues --   -0.37522  -0.37417  -0.34970  -0.28922  -0.28605
  Beta  occ. eigenvalues --   -0.28333  -0.23891  -0.23507
  Beta virt. eigenvalues --   -0.11034  -0.05879  -0.02892  -0.02077  -0.01291
  Beta virt. eigenvalues --   -0.00207   0.00689   0.00902   0.01487   0.02589
  Beta virt. eigenvalues --    0.03066   0.03297   0.03967   0.04131   0.04706

 Mulliken charges and spin densities:
               1          2
     1  C    0.183153   0.000000
     2  C   -0.365214  -0.000000
     3  C   -0.443741  -0.000000
     4  C    0.439759  -0.000000
     5  C    0.439051  -0.000000
     6  C   -0.162301   0.000000
     7  C   -0.590100  -0.000000
     8  C   -0.143073  -0.000000
     9  C    0.085114   0.000000
    10  C   -0.235640   0.000000
    11  O   -0.203412   0.000000
    12  O   -0.268580   0.000000
    13  H    0.190124   0.000000
    14  H    0.174737   0.000000
    15  H    0.176001   0.000000
    16  H    0.076847   0.000000
    17  H    0.210302   0.000000
    18  N    0.052765  -0.000000
    19  C   -0.007203   0.000000
    20  C   -0.724920  -0.000000
    21  H    0.296391   0.000000
    22  H    0.176042  -0.000000
    23  H    0.170243  -0.000000
    24  H    0.148483   0.000000
    25  H    0.162023   0.000000
    26  H    0.163149  -0.000000
 Sum of Mulliken charges =  -0.00000   0.00000

 Dipole moment (field-independent basis, Debye):
    X=             -3.6301    Y=             -8.2733    Z=              2.3476  Tot=              9.3347
 Quadrupole moment (field-independent basis, Debye-Ang):
   XX=            -86.9274   YY=           -112.0041   ZZ=            -91.5865
   XY=            -22.5622   XZ=              6.4326   YZ=              5.5190

  Exact polarizability: 195.947   4.751 198.472  -2.591 -27.939  91.930
 Approx polarizability: 306.601  43.489 334.756 -13.838 -48.222 145.952

                      1                      2                      3
                      A                      A                      A
 Frequencies --     28.0944                60.9128                85.3725
 Red. masses --      6.8217                 3.7480                 2.3526
 Frc consts  --      0.0032                 0.0082                 0.0101
 IR Inten    --      0.2099                 0.1998                 6.5247

                      4                      5                      6
                      A                      A                      A
 Frequencies --    115.4921               125.0569               159.8849
 Red. masses --      2.8392                 3.3679                 3.7144
 Frc consts  --      0.0223                 0.0310                 0.0559
 IR Inten    --      0.7756                 0.6200                 0.6871

                      7                      8                      9
                      A                      A                      A
 Frequencies --    199.4830               255.4534               264.5331
 Red. masses --      3.5992                 2.6585                 1.3004
 Frc consts  --      0.0844                 0.1022                 0.0536
 IR Inten    --      3.9269                27.7121                 2.4234

                     10                     11                     12
                      A                      A                      A
 Frequencies --    279.8198               323.1147               362.4205
 Red. masses --      2.2151                 3.2356                13.1085
 Frc consts  --      0.1022                 0.1990                 1.0144
 IR Inten    --     30.9857                 8.6746                 5.3070

                     13                     14                     15
                      A                      A                      A
 Frequencies --    374.7825               400.5833               418.9798
 Red. masses --      4.0340                 3.7723                 6.9552
 Frc consts  --      0.3338                 0.3566                 0.7194
 IR Inten    --      1.7138                 0.4927                 1.4892

                     16                     17                     18
                      A                      A                      A
 Frequencies --    462.1922               466.9076               514.2564
 Red. masses --      7.2388                 3.9102                 4.1622
 Frc consts  --      0.9111                 0.5022                 0.6485
 IR Inten    --      0.9291                 9.5807                16.8062

                     19                     20                     21
                      A                      A                      A
 Frequencies --    595.3559               637.3542               648.9431
 Red. masses --      6.5763                 4.9973                 3.6406
 Frc consts  --      1.3734                 1.1960                 0.9033
 IR Inten    --      3.3778                 3.2506                 1.4535

                     22                     23                     24
                      A                      A                      A
 Frequencies --    696.5176               719.0960               724.4564
 Red. masses --      6.4507                 6.6632                 2.6407
 Frc consts  --      1.8438                 2.0300                 0.8166
 IR Inten    --      4.1730                 1.3811                23.7743

                     25                     26                     27
                      A                      A                      A
 Frequencies --    777.4019               802.3772               826.9702
 Red. masses --      1.8428                 1.8182                 1.5584
 Frc consts  --      0.6562                 0.6897                 0.6279
 IR Inten    --     42.4829                 2.9791                 7.3179

                     28                     29                     30
                      A                      A                      A
 Frequencies --    845.2495               850.6076               883.2441
 Red. masses --      3.6231                 1.6564                 1.4690
 Frc consts  --      1.5251                 0.7061                 0.6752
 IR Inten    --      7.0990                18.8402                 1.2002

                     31                     32                     33
                      A                      A                      A
 Frequencies --    926.1561               973.7700               976.8678
 Red. masses --      1.9594                 5.4426                 1.4087
 Frc consts  --      0.9903                 3.0407                 0.7920
 IR Inten    --      0.7347                25.9930                 1.9382

                     34                     35                     36
                      A                      A                      A
 Frequencies --   1011.5292              1055.3325              1074.4394
 Red. masses --      1.3283                 3.2767                 2.2313
 Frc consts  --      0.8008                 2.1501                 1.5177
 IR Inten    --      0.4423                 1.3229                 3.7674

                     37                     38                     39
                      A                      A                      A
 Frequencies --   1106.0200              1145.0358              1162.6901
 Red. masses --      2.5969                 1.8524                 1.5155
 Frc consts  --      1.8717                 1.4310                 1.2070
 IR Inten    --      7.1399                15.2299                 2.4442

                     40                     41                     42
                      A                      A                      A
 Frequencies --   1181.3578              1196.0331              1228.0859
 Red. masses --      2.2282                 1.3259                 2.4738
 Frc consts  --      1.8322                 1.1175                 2.1982
 IR Inten    --     11.6293                 0.2082                46.5892

                     43                     44                     45
                      A                      A                      A
 Frequencies --   1266.9766              1302.9712              1305.3881
 Red. masses --      2.1607                 1.1538                 1.8486
 Frc consts  --      2.0436                 1.1542                 1.8560
 IR Inten    --     89.4936                21.8140                99.4034

                     46                     47                     48
                      A                      A                      A
 Frequencies --   1321.7113              1345.0483              1351.2523
 Red. masses --      2.9996                 5.1437                 1.8408
 Frc consts  --      3.0873                 5.4828                 1.9803
 IR Inten    --     10.5473                 3.3656                16.9758

                     49                     50                     51
                      A                      A                      A
 Frequencies --   1400.5008              1422.3211              1476.2453
 Red. masses --      1.4987                 1.3437                 2.2635
 Frc consts  --      1.7319                 1.6016                 2.9063
 IR Inten    --      1.1556                11.6066                19.3995

                     52                     53                     54
                      A                      A                      A
 Frequencies --   1496.9660              1499.4529              1507.4949
 Red. masses --      1.0656                 1.2213                 1.6651
 Frc consts  --      1.4070                 1.6178                 2.2295
 IR Inten    --     19.5890                69.5769                33.5494

                     55                     56                     57
                      A                      A                      A
 Frequencies --   1524.3476              1560.7942              1593.4569
 Red. masses --      1.0910                 1.9925                 5.4937
 Frc consts  --      1.4936                 2.8599                 8.2186
 IR Inten    --     30.3352               241.6374               175.3734

                     58                     59                     60
                      A                      A                      A
 Frequencies --   1630.7130              1640.8980              1708.1714
 Red. masses --      6.1220                 5.6052                11.9488
 Frc consts  --      9.5918                 8.8921                20.5418
 IR Inten    --    122.7141                54.4632               457.8366

                     61                     62                     63
                      A                      A                      A
 Frequencies --   1769.4189              3000.9696              3028.2280
 Red. masses --     12.8376                 1.0650                 1.0396
 Frc consts  --     23.6808                 5.6507                 5.6171
 IR Inten    --     89.6180                22.3617                18.6236

                     64                     65                     66
                      A                      A                      A
 Frequencies --   3038.9499              3091.6858              3109.5041
 Red. masses --      1.0951                 1.1026                 1.1001
 Frc consts  --      5.9588                 6.2098                 6.2668
 IR Inten    --     11.4227                31.0396                18.8699

                     67                     68                     69
                      A                      A                      A
 Frequencies --   3167.2509              3178.6065              3189.8353
 Red. masses --      1.0858                 1.0894                 1.0938
 Frc consts  --      6.4173                 6.4852                 6.5575
 IR Inten    --      4.2923                13.9474                 8.0659

                     70                     71                     72
                      A                      A                      A
 Frequencies --   3199.5662              3202.4426              3654.3613
 Red. masses --      1.0954                 1.0894                 1.0763
 Frc consts  --      6.6071                 6.5827                 8.4682
 IR Inten    --      8.1177                 4.7615                45.1463

 - Thermochemistry -
 -------------------
 Temperature   298.150 Kelvin.  Pressure   1.00000 Atm.
 Atom     1 has atomic number  6 and mass  12.00000

 Molecular mass:   201.07898 amu.
 Principal axes and moments of inertia in atomic units:
                           1         2         3
     Eigenvalues --  2309.889613572.902595855.38201
           X           -0.52255   0.85256   0.00904
           Y            0.82774   0.50473   0.24515
           Z           -0.20444  -0.13559   0.96944
 This molecule is an asymmetric top.
 Rotational symmetry number  1.
 Warning -- assumption of classical behavior for rotation
           may cause significant error
 Rotational temperatures (Kelvin)      0.03750     0.02424     0.01479
 Rotational constants (GHZ):           0.78131     0.50512     0.30822
 Zero-point vibrational energy     537887.5 (Joules/Mol)
                                  128.55819 (Kcal/Mol)
 Warning -- explicit consideration of  19 degrees of freedom as
           vibrations may cause significant error
 Vibrational temperatures:     40.42    87.64   122.83   166.17   179.93
          (Kelvin)            230.04   287.01   367.54   380.60   402.60
                              464.89   521.44   539.23   576.35   602.82
                              664.99   671.78   739.90   856.58   917.01
                              933.68  1002.13  1034.62  1042.33  1118.51
                             1154.44  1189.83  1216.13  1223.83  1270.79
                             1332.53  1401.04  1405.49  1455.36  1518.39
                             1545.88  1591.32  1647.45  1672.85  1699.71
                             1720.82  1766.94  1822.90  1874.68  1878.16
                             1901.65  1935.22  1944.15  2015.01  2046.40
                             2123.99  2153.80  2157.38  2168.95  2193.20
                             2245.63  2292.63  2346.23  2360.89  2457.68
                             2545.80  4317.73  4356.94  4372.37  4448.25
                             4473.88  4556.97  4573.31  4589.46  4603.46
                             4607.60  5257.81

 Zero-point correction=                           0.204871 (Hartree/Particle)
 Thermal correction to Energy=                    0.218163
 Thermal correction to Enthalpy=                  0.219107
 Thermal correction to Gibbs Free Energy=         0.164119
 Sum of electronic and zero-point Energies=           -669.069911
 Sum of electronic and thermal Energies=              -669.056618
 Sum of electronic and thermal Enthalpies=            -669.055674
 Sum of electronic and thermal Free Energies=         -669.110662

                     E (Thermal)             CV                S
                      KCal/Mol        Cal/Mol-Kelvin    Cal/Mol-Kelvin
 Total                  136.899             50.428            115.733
 Electronic               0.000              0.000              0.000
 Translational            0.889              2.981             41.800
 Rotational               0.889              2.981             32.247
 Vibrational            135.122             44.466             41.686
 Vibration     1          0.593              1.984              5.960
 Vibration     2          0.597              1.973              4.427
 Vibration     3          0.601              1.959              3.763
 Vibration     4          0.608              1.937              3.174
 Vibration     5          0.610              1.928              3.021
 Vibration     6          0.622              1.891              2.551
 Vibration     7          0.638              1.841              2.138
 Vibration     8          0.666              1.754              1.693
 Vibration     9          0.671              1.738              1.632
 Vibration    10          0.680              1.711              1.535
 Vibration    11          0.708              1.629              1.294
 Vibration    12          0.736              1.550              1.112
 Vibration    13          0.746              1.524              1.060
 Vibration    14          0.766              1.469              0.961
 Vibration    15          0.782              1.429              0.895
 Vibration    16          0.820              1.334              0.760
 Vibration    17          0.824              1.323              0.746
 Vibration    18          0.869              1.218              0.623
 Vibration    19          0.953              1.042              0.458

                           ! Non-Optimized Parameters !
 Normal termination of Gaussian 16 at Fri Jan 12 20:42:45 2024.
