 Gaussian 16, Revision A.03,
 Gaussian 16:  ES64L-G16RevA.03 25-Dec-2016

 ----------------------------------------------------------------
 #P UB3LYP/6-311++G(d,p) SCRF=(PCM,Solvent=n,n-DiMethylFormamide)
 ----------------------------------------------------------------

 ------------------
 Radical PCM in DMF
 ------------------
 Symbolic Z-matrix:
 Charge = -1 Multiplicity = 2

                         Standard orientation:
 ---------------------------------------------------------------------
 Center     Atomic      Atomic             Coordinates (Angstroms)
 Number     Number       Type             X           Y           Z
 ---------------------------------------------------------------------
      1          6           0       -2.931663   -0.985122   -0.000108
      2          6           0       -1.461956   -0.656981   -0.000001
      3          6           0       -0.498736   -1.631648    0.000009
      4          6           0        0.918099   -1.351375    0.000056
      5          8           0        1.778051   -2.283372   -0.000030
      6          6           0        1.294523    0.058924    0.000129
      7          6           0        0.337408    1.053986   -0.000006
      8          6           0        0.725484    2.512797   -0.000201
      9          6           0       -1.089492    0.749673    0.000087
     10          8           0       -1.974939    1.658398    0.000162
     11          6           0        2.768379    0.381586    0.000051
     12          1           0       -3.431416   -0.552142   -0.873657
     13          1           0       -3.091352   -2.067569   -0.000952
     14          1           0       -3.431271   -0.553596    0.874256
     15          1           0       -0.775027   -2.683876   -0.000156
     16          1           0        1.325443    2.774073    0.881233
     17          1           0       -0.176619    3.125675   -0.002979
     18          1           0        1.330234    2.772522   -0.878757
     19          1           0        3.056956    0.972056    0.879447
     20          1           0        3.338651   -0.548299    0.001141
     21          1           0        3.057227    0.969900   -0.880724
 ---------------------------------------------------------------------

 SCF Done:  E(UB3LYP) =  -499.703807349     A.U. after   18 cycles

 The electronic state is 2-A.
 Alpha  occ. eigenvalues --  -19.06927 -19.06918 -10.21019 -10.20912 -10.16477
 Alpha  occ. eigenvalues --  -10.16120 -10.16020 -10.15467 -10.15046 -10.15019
 Alpha  occ. eigenvalues --  -10.15005  -0.99084  -0.98822  -0.82301  -0.77978
 Alpha  occ. eigenvalues --   -0.71875  -0.70320  -0.65613  -0.63056  -0.55700
 Alpha  occ. eigenvalues --   -0.53558  -0.48778  -0.44796  -0.43185  -0.41854
 Alpha  occ. eigenvalues --   -0.40916  -0.40357  -0.39075  -0.38980  -0.38311
 Alpha  occ. eigenvalues --   -0.37941  -0.37080  -0.36500  -0.35595  -0.34164
 Alpha  occ. eigenvalues --   -0.33399  -0.26765  -0.23874  -0.23184  -0.22831
 Alpha  occ. eigenvalues --   -0.15284
 Alpha virt. eigenvalues --   -0.00465   0.00282   0.00739   0.01581   0.03015
 Alpha virt. eigenvalues --    0.03057   0.03628   0.03835   0.04425   0.04542
 Alpha virt. eigenvalues --    0.06197   0.06505   0.06641   0.07453   0.08207

  Beta  occ. eigenvalues --  -19.06253 -19.06246 -10.20863 -10.20736 -10.16345
  Beta  occ. eigenvalues --  -10.16036 -10.15915 -10.15477 -10.15028 -10.15012
  Beta  occ. eigenvalues --  -10.14955  -0.97903  -0.97614  -0.81753  -0.77765
  Beta  occ. eigenvalues --   -0.71569  -0.70084  -0.65171  -0.62508  -0.55337
  Beta  occ. eigenvalues --   -0.53142  -0.48585  -0.44385  -0.42512  -0.41389
  Beta  occ. eigenvalues --   -0.40611  -0.40200  -0.38717  -0.38614  -0.38145
  Beta  occ. eigenvalues --   -0.37859  -0.36394  -0.35431  -0.33902  -0.33199
  Beta  occ. eigenvalues --   -0.33023  -0.23778  -0.23247  -0.22349  -0.22233
  Beta virt. eigenvalues --   -0.08110  -0.00440   0.00746   0.01547   0.01606
  Beta virt. eigenvalues --    0.03024   0.03259   0.03653   0.04455   0.04549
  Beta virt. eigenvalues --    0.05922   0.06222   0.06648   0.06658   0.07461

 Mulliken charges and spin densities:
               1          2
     1  C   -0.305310   0.008349
     2  C    0.933131   0.090678
     3  C   -0.487274   0.037489
     4  C   -0.888336   0.101425
     5  O   -0.515806   0.236628
     6  C    0.899941   0.112061
     7  C    0.258979   0.038787
     8  C   -0.579938  -0.007775
     9  C   -0.881105   0.119997
    10  O   -0.501317   0.245249
    11  C   -0.488267   0.006024
    12  H    0.159871   0.004880
    13  H    0.148455  -0.000173
    14  H    0.159909   0.004892
    15  H    0.142928  -0.007744
    16  H    0.145529   0.002856
    17  H    0.181787  -0.001882
    18  H    0.145200   0.002831
    19  H    0.147542   0.003662
    20  H    0.176430  -0.001910
    21  H    0.147650   0.003675
 Sum of Mulliken charges =  -1.00000   1.00000

 Dipole moment (field-independent basis, Debye):
    X=              0.3167    Y=              2.0657    Z=             -0.0005  Tot=              2.0899
 Quadrupole moment (field-independent basis, Debye-Ang):
   XX=            -87.4071   YY=            -91.5032   ZZ=            -69.9365
   XY=             21.8897   XZ=              0.0011   YZ=             -0.0005

 Normal termination of Gaussian 16 at Sun Jan 21 07:22:06 2024.
