 Q-Chem 5.4, Q-Chem, Inc., Pleasanton, CA (2021)
 Q-Chem 5.4.0 for Intel X86 EM64T Linux

User input:
--------------------------------------------------------------
$molecule
-3 1
O                  1.5213360000     -2.9245250000     -0.3632300000
C                  1.4724790000     -1.5579420000     -0.1847640000
C                  2.7065900000     -0.9273480000     -0.0478720000
O                  3.8169660000     -1.7503210000     -0.1107020000
C                  2.7877200000      0.4670810000      0.1787800000
C                  1.6158680000      1.1940260000      0.2534290000
C                  0.3482570000      0.5883100000      0.1059850000
C                 -0.8276380000      1.4583250000      0.2068220000
O                 -0.7264850000      2.7075860000      0.4116050000
C                 -2.1152410000      0.8045770000      0.0437500000
C                 -3.3049410000      1.5723770000      0.0990000000
C                 -4.5552510000      0.9989710000     -0.0297700000
C                 -4.6631890000     -0.4027970000     -0.2224970000
C                 -3.5170260000     -1.1710600000     -0.2987260000
C                 -2.2210130000     -0.6084670000     -0.1894860000
C                 -1.0573180000     -1.4877810000     -0.3041130000
O                 -1.2005650000     -2.7283880000     -0.5257750000
C                  0.2436860000     -0.8376620000     -0.1313940000
S                  4.4147200000      1.2759780000      0.2875670000
O                  4.7917930000      1.7339830000     -1.0773390000
O                  4.3191490000      2.3719410000      1.2813800000
O                  5.3266330000      0.1502280000      0.7597130000
H                  2.4662900000     -3.1306400000     -0.3076820000
H                  4.5817660000     -1.2011370000      0.2195840000
H                  1.6383240000      2.2609500000      0.4354960000
H                 -3.1898700000      2.6404900000      0.2522760000
H                 -5.4560950000      1.6100360000      0.0204120000
H                 -5.6472750000     -0.8626880000     -0.3119160000
H                 -3.5696700000     -2.2441020000     -0.4505350000
$end
$rem
MAX_SCF_CYCLES=200
BASIS  =  6-311++G(d,p)
GUI  =  2
JOB_TYPE  =  SP
METHOD  =  B3LYP
SOLVENT_METHOD = COSMO
$end
$solvent
dielectric 37.219
opticaldielectric 1.43
$end

--------------------------------------------------------------

             Standard Nuclear Orientation (Angstroms)
    I     Atom           X                Y                Z
 ----------------------------------------------------------------
    1      O      -0.4501240795    -3.1091187950    -0.0321118836
    2      C      -0.5352793806    -1.7328650527    -0.0106543218
    3      C      -1.8270868381    -1.2126356054    -0.0142581742
    4      O      -2.8530918484    -2.1405276999    -0.0365518714
    5      C      -2.0463129564     0.1852211384    -0.0321990492
    6      C      -0.9508771085     1.0262026421    -0.0375869728
    7      C       0.3724520372     0.5322452015    -0.0209956486
    8      C       1.4575619450     1.5182720403    -0.0315224294
    9      O       1.2327606978     2.7680724375    -0.0483871528
   10      C       2.8059081093     0.9767296092    -0.0071333528
   11      C       3.9162348080     1.8569353413     0.0120495560
   12      C       5.2185283082     1.3957723248     0.0154497339
   13      C       5.4635369168    -0.0018725093    -0.0020869009
   14      C       4.3975229379    -0.8812715702    -0.0019945580
   15      C       3.0516585539    -0.4379959091     0.0138075217
   16      C       1.9801717880    -1.4339539037     0.0362194886
   17      O       2.2468244506    -2.6735248120     0.0696828198
   18      C       0.6183858899    -0.8959210527     0.0021931172
   19      S      -3.7440225912     0.8387573900     0.0306526135
   20      O      -4.0984982069     1.0589573451     1.4592113396
   21      O      -3.7952918941     2.0689869051    -0.7950832954
   22      O      -4.5693647340    -0.2919137160    -0.5711890805
   23      H      -1.3736937459    -3.3964221945    -0.0867274821
   24      H      -3.6794724849    -1.6271970576    -0.2583572884
   25      H      -1.0796017565     2.1008443188    -0.0611394246
   26      H       3.6965980057     2.9196181885     0.0201173544
   27      H       6.0561599620     2.0926936316     0.0260556111
   28      H       6.4887779082    -0.3715940604    -0.0124613485
   29      H       4.5554484231    -1.9546905515    -0.0102243017
 ----------------------------------------------------------------

   30   -1462.6580430162      8.38e-06  Convergence criterion met
 Total energy in the final basis set =    -1462.6580430162
    6   -1463.1686422545      3.60e-06  Convergence criterion met
 Total energy in the final basis set =    -1463.1686422545

                    Orbital Energies (a.u.)
 --------------------------------------------------------------

 Alpha MOs
 -- Occupied --
-89.0516 -19.1311 -19.1300 -19.0981 -19.0975 -19.0952 -19.0281 -19.0196
-10.2121 -10.2113 -10.1820 -10.1808 -10.1804 -10.1561 -10.1491 -10.1485
-10.1478 -10.1472 -10.1458 -10.1438 -10.1369 -10.1365  -8.1104  -6.0735
 -6.0731  -6.0718  -1.1125  -1.0572  -1.0239  -0.9791  -0.9722  -0.9538
 -0.9472  -0.8336  -0.8244  -0.7591  -0.7275  -0.7224  -0.7124  -0.6542
 -0.6264  -0.6080  -0.5859  -0.5702  -0.5498  -0.5330  -0.5108  -0.4985
 -0.4773  -0.4662  -0.4584  -0.4579  -0.4491  -0.4328  -0.4200  -0.4072
 -0.4015  -0.3959  -0.3896  -0.3781  -0.3737  -0.3671  -0.3632  -0.3541
 -0.3438  -0.3409  -0.3395  -0.3326  -0.3267  -0.3242  -0.3123  -0.3067
 -0.3027  -0.2914  -0.2872  -0.2635  -0.2323  -0.2291  -0.2198  -0.2083
 -0.2013  -0.1958  -0.1029

          Ground-State Mulliken Net Atomic Charges

     Atom                 Charge (a.u.)
  ----------------------------------------
      1 O                    -0.312160
      2 C                    -0.379030
      3 C                    -0.741250
      4 O                    -0.460425
      5 C                    -0.309849
      6 C                    -0.154479
      7 C                     0.640355
      8 C                    -0.519134
      9 O                    -0.656078
     10 C                     0.315016
     11 C                    -0.051419
     12 C                    -0.552948
     13 C                    -0.607344
     14 C                    -0.003858
     15 C                     0.024098
     16 C                    -0.357509
     17 O                    -0.680779
     18 C                     0.574388
     19 S                     0.919975
     20 O                    -0.334070
     21 O                    -0.384523
     22 O                    -0.519056
     23 H                     0.322896
     24 H                     0.392027
     25 H                     0.171016
     26 H                     0.152455
     27 H                     0.179716
     28 H                     0.178046
     29 H                     0.153921
  ----------------------------------------
  Sum of atomic charges =    -3.000001

                    Cartesian Multipole Moments
 -----------------------------------------------------------------
    Charge (ESU x 10^10)
               -14.4096
    Dipole Moment (Debye)
         X       4.4983      Y      -2.8908      Z      -0.7098
       Tot       5.3940
    Quadrupole Moments (Debye-Ang)
        XX    -279.8730     XY      27.9539     YY    -215.2964
        XZ       1.9138     YZ       2.0284     ZZ    -155.0031

 Total job time:  231.32s(wall), 1556.29s(cpu)
        *  Thank you very much for using Q-Chem.  Have a nice day.  *
