 Q-Chem 5.4, Q-Chem, Inc., Pleasanton, CA (2021)
 Q-Chem 5.4.0 for Intel X86 EM64T Linux

User input:
--------------------------------------------------------------
$molecule
0 1
O                  3.8812790000      2.6944240000      1.0330110000
C                  2.9960680000      1.8687500000      1.0451400000
N                  2.9049270000      0.8736190000      2.0164550000
C                  1.9459410000     -0.1367630000      2.1530920000
O                  1.9987270000     -0.9356930000      3.0564260000
C                  0.8972580000     -0.1018480000      1.0876130000
N                 -0.0596390000     -0.9971840000      1.1036810000
C                 -0.9926250000     -0.9366480000      0.1242980000
C                 -2.0466690000     -1.8856750000      0.1022640000
C                 -2.9954000000     -1.8296030000     -0.8880020000
C                 -2.9292570000     -0.8284100000     -1.8904500000
C                 -1.9208050000      0.1057690000     -1.8972270000
C                 -0.9268770000      0.0749550000     -0.8895530000
N                  0.0712540000      0.9953100000     -0.8917600000
C                  0.9565420000      0.9054110000      0.0721630000
N                  1.9868460000      1.8270650000      0.1000560000
H                  3.6371240000      0.8908220000      2.7160550000
H                 -2.0686610000     -2.6373340000      0.8819690000
H                 -3.8026780000     -2.5520780000     -0.9095840000
H                 -3.6892700000     -0.8028470000     -2.6631490000
H                 -1.8587050000      0.8754560000     -2.6568400000
H                  2.0146200000      2.5325020000     -0.6246210000
$end

$rem
BASIS  =  6-311++G(d,p)
GUI  =  2
JOB_TYPE  =  SP
METHOD  =  B3LYP
SCF_CONVERGENCE  = 8
SOLVENT_METHOD = sm12
$end

$smx
solvent dimethylformamide
charges CM5
$end

--------------------------------------------------------------

             Standard Nuclear Orientation (Angstroms)
    I     Atom           X                Y                Z
 ----------------------------------------------------------------
    1      O       3.8812790000     2.6944240000     1.0330110000
    2      C       2.9960680000     1.8687500000     1.0451400000
    3      N       2.9049270000     0.8736190000     2.0164550000
    4      C       1.9459410000    -0.1367630000     2.1530920000
    5      O       1.9987270000    -0.9356930000     3.0564260000
    6      C       0.8972580000    -0.1018480000     1.0876130000
    7      N      -0.0596390000    -0.9971840000     1.1036810000
    8      C      -0.9926250000    -0.9366480000     0.1242980000
    9      C      -2.0466690000    -1.8856750000     0.1022640000
   10      C      -2.9954000000    -1.8296030000    -0.8880020000
   11      C      -2.9292570000    -0.8284100000    -1.8904500000
   12      C      -1.9208050000     0.1057690000    -1.8972270000
   13      C      -0.9268770000     0.0749550000    -0.8895530000
   14      N       0.0712540000     0.9953100000    -0.8917600000
   15      C       0.9565420000     0.9054110000     0.0721630000
   16      N       1.9868460000     1.8270650000     0.1000560000
   17      H       3.6371240000     0.8908220000     2.7160550000
   18      H      -2.0686610000    -2.6373340000     0.8819690000
   19      H      -3.8026780000    -2.5520780000    -0.9095840000
   20      H      -3.6892700000    -0.8028470000    -2.6631490000
   21      H      -1.8587050000     0.8754560000    -2.6568400000
   22      H       2.0146200000     2.5325020000    -0.6246210000
 ----------------------------------------------------------------

   15    -754.3906996466      6.60e-09  Convergence criterion met
 Total energy in the final basis set =     -754.4260503009

                    Orbital Energies (a.u.)
 --------------------------------------------------------------

 Alpha MOs
 -- Occupied --
-19.1279 -19.1211 -14.3856 -14.3829 -14.3598 -14.3496 -10.3403 -10.3163
-10.2943 -10.2565 -10.2461 -10.2397 -10.2006 -10.1969 -10.1957 -10.1946
 -1.1006  -1.0775  -1.0303  -0.9843  -0.9560  -0.9301  -0.8730  -0.7961
 -0.7763  -0.7248  -0.7004  -0.6780  -0.6385  -0.6268  -0.5903  -0.5861
 -0.5495  -0.5220  -0.5080  -0.5009  -0.4935  -0.4695  -0.4625  -0.4593
 -0.4527  -0.4514  -0.4380  -0.3918  -0.3888  -0.3837  -0.3706  -0.3437
 -0.3262  -0.3221  -0.3098  -0.3011  -0.2805  -0.2736  -0.2558

          Ground-State Mulliken Net Atomic Charges

     Atom                 Charge (a.u.)
  ----------------------------------------
      1 O                    -0.386247
      2 C                     0.447386
      3 N                    -0.333785
      4 C                     0.247979
      5 O                    -0.396638
      6 C                    -0.886990
      7 N                    -0.114191
      8 C                    -1.761579
      9 C                     0.311649
     10 C                     0.260806
     11 C                     0.610380
     12 C                     0.655457
     13 C                    -1.023575
     14 N                    -0.206375
     15 C                     0.632390
     16 N                    -0.232371
     17 H                     0.499318
     18 H                     0.256318
     19 H                     0.330716
     20 H                     0.344348
     21 H                     0.257058
     22 H                     0.487946
  ----------------------------------------
  Sum of atomic charges =     0.000000

                    Cartesian Multipole Moments
 -----------------------------------------------------------------
    Charge (ESU x 10^10)
                 0.0000
    Dipole Moment (Debye)
         X      -4.1209      Y      -0.1082      Z      -3.9242
       Tot       5.6915
    Quadrupole Moments (Debye-Ang)
        XX     -87.9796     XY       1.0043     YY     -95.5074
        XZ       2.1434     YZ       5.0560     ZZ     -95.3491

 Total job time:  355.61s(wall), 2478.01s(cpu)
        *  Thank you very much for using Q-Chem.  Have a nice day.  *
