 Gaussian 16, Revision A.03,
 Gaussian 16:  ES64L-G16RevA.03 25-Dec-2016

 ----------------------------------------------------------------------
 #P UB3LYP/6-311++G(d,p) nosym opt freq SCRF=(PCM,Solvent=n,n-DiMethylF
 ormamide)
 ----------------------------------------------------------------------

 -------
 Reduced
 -------
 Symbolic Z-matrix:
 Charge = -2 Multiplicity = 1

 SCF Done:  E(UB3LYP) =  -1055.30877790     A.U. after   18 cycles
 SCF Done:  E(UB3LYP) =  -1055.30971262     A.U. after   15 cycles
 SCF Done:  E(UB3LYP) =  -1055.31037667     A.U. after   15 cycles
 SCF Done:  E(UB3LYP) =  -1055.31036537     A.U. after   14 cycles
 SCF Done:  E(UB3LYP) =  -1055.31046640     A.U. after   13 cycles
 SCF Done:  E(UB3LYP) =  -1055.31052024     A.U. after   13 cycles
 SCF Done:  E(UB3LYP) =  -1055.31053104     A.U. after   12 cycles
 SCF Done:  E(UB3LYP) =  -1055.31052923     A.U. after   12 cycles
 SCF Done:  E(UB3LYP) =  -1055.31053404     A.U. after   12 cycles
 SCF Done:  E(UB3LYP) =  -1055.31053619     A.U. after   11 cycles
 SCF Done:  E(UB3LYP) =  -1055.31053665     A.U. after   11 cycles
 SCF Done:  E(UB3LYP) =  -1055.31053690     A.U. after   10 cycles
 SCF Done:  E(UB3LYP) =  -1055.31053696     A.U. after   10 cycles
 Optimization completed.
    -- Stationary point found.
 Normal termination of Gaussian 16 at Sat Feb 10 14:15:58 2024.

 ----------------------------------------------------------------------
 #P Geom=AllCheck Guess=TCheck SCRF=Check GenChk UB3LYP/6-311++G(d,p) F
 req
 ----------------------------------------------------------------------

 Structure from the checkpoint file:  "103-an.chk"
 -------
 Reduced
 -------
 Charge = -2 Multiplicity = 1

                          Input orientation:
 ---------------------------------------------------------------------
 Center     Atomic      Atomic             Coordinates (Angstroms)
 Number     Number       Type             X           Y           Z
 ---------------------------------------------------------------------
      1          6           0       -0.051480    1.873713    5.075620
      2          6           0        1.103089    1.302001    4.458172
      3          6           0        1.388886    1.282671    3.087205
      4          6           0        0.447099    1.869913    2.159273
      5          6           0       -0.712567    2.424311    2.758881
      6          6           0       -0.966964    2.447125    4.143580
      7          8           0       -0.224253    1.855222    6.375608
      8          8           0        0.619401    1.899407    0.853747
      9         16           0       -2.426355    3.326531    4.712617
     10          6           0       -3.428687    2.029942    5.596091
     11          6           0       -4.565719    2.736904    6.333778
     12          6           0       -3.939541    0.949400    4.646180
     13          6           0        2.699584    0.654932    2.565781
     14          6           0        3.576741    0.052906    3.681209
     15          6           0        3.541075    1.740522    1.852047
     16          6           0        2.378490   -0.483540    1.568235
     17          1           0        1.812845    0.863755    5.152707
     18          1           0       -1.447708    2.864751    2.088911
     19          1           0       -2.731454    1.595583    6.314188
     20          1           0       -4.186447    3.471321    7.048888
     21          1           0       -5.166484    2.006586    6.885278
     22          1           0       -5.231824    3.253761    5.634535
     23          1           0       -3.117598    0.485014    4.096923
     24          1           0       -4.646212    1.364478    3.920262
     25          1           0       -4.454771    0.163185    5.210774
     26          1           0        3.063058   -0.748865    4.219935
     27          1           0        3.888237    0.804886    4.411905
     28          1           0        4.483029   -0.373138    3.237862
     29          1           0        3.853909    2.511264    2.564863
     30          1           0        2.954026    2.211233    1.063024
     31          1           0        4.446302    1.302973    1.413352
     32          1           0        1.838132   -1.292754    2.071779
     33          1           0        3.302467   -0.905417    1.154049
     34          1           0        1.760835   -0.101907    0.755180
 ---------------------------------------------------------------------

 SCF Done:  E(UB3LYP) =  -1055.31053696     A.U. after    1 cycles

 Alpha  occ. eigenvalues --  -88.81304 -19.00960 -19.00271 -10.18324 -10.16572
 Alpha  occ. eigenvalues --  -10.16259 -10.16137 -10.15475 -10.14990 -10.14566
 Alpha  occ. eigenvalues --  -10.13948 -10.13253 -10.13134 -10.12929 -10.11727
 Alpha  occ. eigenvalues --  -10.11587  -7.89903  -5.86273  -5.85925  -5.85329
 Alpha  occ. eigenvalues --   -0.91656  -0.90915  -0.80299  -0.79852  -0.76752
 Alpha  occ. eigenvalues --   -0.71324  -0.67966  -0.66714  -0.66163  -0.65912
 Alpha  occ. eigenvalues --   -0.63340  -0.56899  -0.54795  -0.53012  -0.48932
 Alpha  occ. eigenvalues --   -0.44922  -0.43904  -0.43476  -0.42879  -0.41735
 Alpha  occ. eigenvalues --   -0.40715  -0.40071  -0.39010  -0.38346  -0.37907
 Alpha  occ. eigenvalues --   -0.37624  -0.35804  -0.34850  -0.34590  -0.34371
 Alpha  occ. eigenvalues --   -0.34129  -0.33747  -0.32177  -0.31388  -0.31148
 Alpha  occ. eigenvalues --   -0.30216  -0.29681  -0.29460  -0.28692  -0.22393
 Alpha  occ. eigenvalues --   -0.21287  -0.19410  -0.18902  -0.18056  -0.11463
 Alpha virt. eigenvalues --   -0.00132   0.00431   0.01459   0.01650   0.02066
 Alpha virt. eigenvalues --    0.02212   0.02748   0.03071   0.03599   0.03900
 Alpha virt. eigenvalues --    0.04140   0.04531   0.04786   0.05255   0.05800

  Beta  occ. eigenvalues --  -88.81304 -19.00960 -19.00271 -10.18324 -10.16572
  Beta  occ. eigenvalues --  -10.16259 -10.16137 -10.15475 -10.14990 -10.14566
  Beta  occ. eigenvalues --  -10.13948 -10.13253 -10.13134 -10.12929 -10.11727
  Beta  occ. eigenvalues --  -10.11587  -7.89903  -5.86273  -5.85925  -5.85329
  Beta  occ. eigenvalues --   -0.91656  -0.90915  -0.80299  -0.79852  -0.76752
  Beta  occ. eigenvalues --   -0.71324  -0.67966  -0.66714  -0.66163  -0.65912
  Beta  occ. eigenvalues --   -0.63340  -0.56899  -0.54795  -0.53012  -0.48932
  Beta  occ. eigenvalues --   -0.44922  -0.43904  -0.43476  -0.42879  -0.41735
  Beta  occ. eigenvalues --   -0.40715  -0.40071  -0.39010  -0.38346  -0.37907
  Beta  occ. eigenvalues --   -0.37624  -0.35804  -0.34850  -0.34590  -0.34371
  Beta  occ. eigenvalues --   -0.34129  -0.33747  -0.32177  -0.31388  -0.31148
  Beta  occ. eigenvalues --   -0.30216  -0.29681  -0.29460  -0.28692  -0.22393
  Beta  occ. eigenvalues --   -0.21287  -0.19410  -0.18902  -0.18056  -0.11463
  Beta virt. eigenvalues --   -0.00132   0.00431   0.01459   0.01650   0.02066
  Beta virt. eigenvalues --    0.02212   0.02748   0.03071   0.03599   0.03900
  Beta virt. eigenvalues --    0.04140   0.04531   0.04786   0.05255   0.05800

 Mulliken charges and spin densities:
               1          2
     1  C   -0.821750  -0.000000
     2  C   -0.436791   0.000000
     3  C    0.952560  -0.000000
     4  C   -1.026644   0.000000
     5  C   -0.747005   0.000000
     6  C    1.790454  -0.000000
     7  O   -0.693848   0.000000
     8  O   -0.688984  -0.000000
     9  S   -0.579380  -0.000000
    10  C    0.198050   0.000000
    11  C   -0.654897  -0.000000
    12  C   -0.694706  -0.000000
    13  C    0.652868   0.000000
    14  C   -0.549752  -0.000000
    15  C   -0.702812  -0.000000
    16  C   -0.676037  -0.000000
    17  H    0.153403   0.000000
    18  H    0.144767   0.000000
    19  H    0.240681   0.000000
    20  H    0.152509  -0.000000
    21  H    0.142777  -0.000000
    22  H    0.140567   0.000000
    23  H    0.148647  -0.000000
    24  H    0.154043   0.000000
    25  H    0.134197   0.000000
    26  H    0.125208  -0.000000
    27  H    0.124771  -0.000000
    28  H    0.159147  -0.000000
    29  H    0.117173  -0.000000
    30  H    0.179441   0.000000
    31  H    0.133335   0.000000
    32  H    0.117404  -0.000000
    33  H    0.132303   0.000000
    34  H    0.178301   0.000000
 Sum of Mulliken charges =  -2.00000  -0.00000

 Dipole moment (field-independent basis, Debye):
    X=             -0.3550    Y=            -20.6632    Z=            -34.7723  Tot=             40.4501
 Quadrupole moment (field-independent basis, Debye-Ang):
   XX=           -125.9762   YY=           -167.9605   ZZ=           -302.7857
   XY=              7.8475   XZ=              6.9127   YZ=            -78.2446

  Exact polarizability: 336.950 -42.625 248.943 -34.852   3.015 332.180
 Approx polarizability: 336.946 -40.485 262.910 -25.778  -4.566 363.202

                      1                      2                      3
                      A                      A                      A
 Frequencies --     36.1872                45.0022                51.6350
 Red. masses --      3.8272                 3.5428                 2.7884
 Frc consts  --      0.0030                 0.0042                 0.0044
 IR Inten    --      8.5031                 7.3573                 2.7704

                      4                      5                      6
                      A                      A                      A
 Frequencies --     73.3180               105.5223               171.0712
 Red. masses --      4.1678                 4.5945                 4.9016
 Frc consts  --      0.0132                 0.0301                 0.0845
 IR Inten    --      0.9115                12.2221                14.2741

                      7                      8                      9
                      A                      A                      A
 Frequencies --    181.3846               213.6774               222.6171
 Red. masses --      4.3041                 4.6257                 1.1687
 Frc consts  --      0.0834                 0.1244                 0.0341
 IR Inten    --     12.5905                 0.3370                 0.1960

                     10                     11                     12
                      A                      A                      A
 Frequencies --    231.2602               236.5588               238.6851
 Red. masses --      1.0437                 3.1400                 2.1091
 Frc consts  --      0.0329                 0.1035                 0.0708
 IR Inten    --      0.6374                 0.4202                 2.9887

                     13                     14                     15
                      A                      A                      A
 Frequencies --    257.6827               267.0025               294.0561
 Red. masses --      1.2531                 1.5262                 2.7010
 Frc consts  --      0.0490                 0.0641                 0.1376
 IR Inten    --      2.5213                 0.5356                 7.1304

                     16                     17                     18
                      A                      A                      A
 Frequencies --    301.5948               324.7756               331.7946
 Red. masses --      3.5715                 2.6111                 1.1265
 Frc consts  --      0.1914                 0.1623                 0.0731
 IR Inten    --      0.4840                15.3033                 1.9821

                     19                     20                     21
                      A                      A                      A
 Frequencies --    341.5022               366.0582               385.8453
 Red. masses --      3.2039                 5.1189                 2.6746
 Frc consts  --      0.2201                 0.4041                 0.2346
 IR Inten    --      2.0122                 6.2565                 0.8329

                     22                     23                     24
                      A                      A                      A
 Frequencies --    410.2056               417.2520               445.3676
 Red. masses --      2.6186                 2.6771                 4.3301
 Frc consts  --      0.2596                 0.2746                 0.5060
 IR Inten    --      4.2211                 3.3565                 5.7672

                     25                     26                     27
                      A                      A                      A
 Frequencies --    473.5669               501.1543               508.1226
 Red. masses --      4.0017                 6.3575                 3.5632
 Frc consts  --      0.5288                 0.9408                 0.5420
 IR Inten    --      1.3417                 4.1126                 4.2930

                     28                     29                     30
                      A                      A                      A
 Frequencies --    598.2698               613.7161               641.0869
 Red. masses --      4.4338                 3.8675                 4.8760
 Frc consts  --      0.9350                 0.8582                 1.1807
 IR Inten    --     19.4541                 3.4578                 0.9009

                     31                     32                     33
                      A                      A                      A
 Frequencies --    700.7139               706.5396               735.2405
 Red. masses --      4.8232                 6.8611                 2.6887
 Frc consts  --      1.3953                 2.0180                 0.8564
 IR Inten    --      2.5832                 3.9364                 0.2073

                     34                     35                     36
                      A                      A                      A
 Frequencies --    811.1085               833.1597               837.6108
 Red. masses --      3.7124                 1.8986                 3.9184
 Frc consts  --      1.4390                 0.7765                 1.6197
 IR Inten    --    101.4350                16.5372               183.3007

                     37                     38                     39
                      A                      A                      A
 Frequencies --    862.2945               879.2836               922.0303
 Red. masses --      1.6101                 2.6143                 1.7679
 Frc consts  --      0.7054                 1.1909                 0.8855
 IR Inten    --     65.9034                 4.7392                 0.5239

                     40                     41                     42
                      A                      A                      A
 Frequencies --    928.4625               936.9020               952.2161
 Red. masses --      1.7416                 1.1793                 1.2067
 Frc consts  --      0.8845                 0.6099                 0.6446
 IR Inten    --      5.1811                 4.7552                 0.7689

                     43                     44                     45
                      A                      A                      A
 Frequencies --    957.6467               980.0415              1032.5391
 Red. masses --      1.4044                 4.8621                 1.4844
 Frc consts  --      0.7588                 2.7515                 0.9324
 IR Inten    --      0.7377                 4.8397                54.9123

                     46                     47                     48
                      A                      A                      A
 Frequencies --   1044.0750              1068.7747              1085.5628
 Red. masses --      1.3824                 1.3640                 2.1807
 Frc consts  --      0.8879                 0.9180                 1.5141
 IR Inten    --      0.4211                79.3742                78.8439

                     49                     50                     51
                      A                      A                      A
 Frequencies --   1124.5790              1171.2973              1178.3893
 Red. masses --      2.4255                 1.8832                10.1922
 Frc consts  --      1.8073                 1.5222                 8.3387
 IR Inten    --      3.4550                19.9994               208.7057

                     52                     53                     54
                      A                      A                      A
 Frequencies --   1209.4028              1209.9885              1232.6580
 Red. masses --      2.4668                 2.7313                 2.2021
 Frc consts  --      2.1258                 2.3561                 1.9714
 IR Inten    --    103.8483                 9.7885               353.7965

                     55                     56                     57
                      A                      A                      A
 Frequencies --   1253.2921              1260.6189              1271.5126
 Red. masses --      1.3061                 1.5984                 2.6923
 Frc consts  --      1.2088                 1.4966                 2.5646
 IR Inten    --     19.7400                69.1672               153.9626

                     58                     59                     60
                      A                      A                      A
 Frequencies --   1304.7581              1361.6747              1362.9495
 Red. masses --      8.9757                 1.3723                 3.5896
 Frc consts  --      9.0028                 1.4991                 3.9288
 IR Inten    --    120.0179               165.9201               842.5077

                     61                     62                     63
                      A                      A                      A
 Frequencies --   1369.0272              1375.3054              1390.6015
 Red. masses --      1.2812                 1.2936                 1.2718
 Frc consts  --      1.4148                 1.4416                 1.4490
 IR Inten    --      6.6281                44.6463                14.0836

                     64                     65                     66
                      A                      A                      A
 Frequencies --   1402.8720              1405.4850              1446.1181
 Red. masses --      1.2997                 1.2332                 2.4614
 Frc consts  --      1.5070                 1.4353                 3.0327
 IR Inten    --     25.3034                 2.2337               644.4231

                     67                     68                     69
                      A                      A                      A
 Frequencies --   1460.7623              1465.8784              1475.3648
 Red. masses --      6.2247                 1.0590                 1.0552
 Frc consts  --      7.8258                 1.3408                 1.3532
 IR Inten    --     18.8198                 0.2684                 3.7126

                     70                     71                     72
                      A                      A                      A
 Frequencies --   1476.9010              1484.6000              1485.2455
 Red. masses --      1.0416                 1.0446                 1.0472
 Frc consts  --      1.3387                 1.3565                 1.3611
 IR Inten    --      1.1612                 7.9789                 1.2942

                     73                     74                     75
                      A                      A                      A
 Frequencies --   1486.3117              1487.2189              1494.1576
 Red. masses --      1.1031                 1.0789                 1.0460
 Frc consts  --      1.4358                 1.4060                 1.3758
 IR Inten    --      5.9964                12.2113                 9.5926

                     76                     77                     78
                      A                      A                      A
 Frequencies --   1498.6360              1512.7483              1590.4195
 Red. masses --      1.0521                 1.0599                 6.6034
 Frc consts  --      1.3923                 1.4290                 9.8410
 IR Inten    --      6.9263                10.0204                 6.1113

                     79                     80                     81
                      A                      A                      A
 Frequencies --   2991.8204              2996.7151              3004.7248
 Red. masses --      1.0384                 1.0385                 1.0380
 Frc consts  --      5.4762                 5.4945                 5.5217
 IR Inten    --     95.1436               136.2762                62.2676

                     82                     83                     84
                      A                      A                      A
 Frequencies --   3011.7079              3012.3185              3047.5825
 Red. masses --      1.0357                 1.0361                 1.0999
 Frc consts  --      5.5348                 5.5395                 6.0189
 IR Inten    --    130.3066                69.0186                57.2562

                     85                     86                     87
                      A                      A                      A
 Frequencies --   3050.7685              3054.2721              3063.7377
 Red. masses --      1.0989                 1.0931                 1.0989
 Frc consts  --      6.0257                 6.0079                 6.0772
 IR Inten    --     84.0303                37.2005                 0.9387

                     88                     89                     90
                      A                      A                      A
 Frequencies --   3067.3146              3077.4047              3077.7927
 Red. masses --      1.1003                 1.1016                 1.0954
 Frc consts  --      6.0993                 6.1469                 6.1139
 IR Inten    --    138.0632                74.2413                89.3596

                     91                     92                     93
                      A                      A                      A
 Frequencies --   3085.7552              3095.1329              3102.1978
 Red. masses --      1.0999                 1.0995                 1.0996
 Frc consts  --      6.1704                 6.2057                 6.2346
 IR Inten    --     45.2039                36.0394                 6.7234

                     94                     95                     96
                      A                      A                      A
 Frequencies --   3107.5597              3125.4165              3152.4371
 Red. masses --      1.0983                 1.0873                 1.0855
 Frc consts  --      6.2491                 6.2579                 6.3559
 IR Inten    --     17.3062                73.8264                58.2803

 - Thermochemistry -
 -------------------
 Temperature   298.150 Kelvin.  Pressure   1.00000 Atm.
 Atom     1 has atomic number  6 and mass  12.00000

 Molecular mass:   238.10275 amu.
 Principal axes and moments of inertia in atomic units:
                           1         2         3
     Eigenvalues --  1726.199077610.337548230.15707
           X            0.85682   0.40434   0.31995
           Y           -0.24077  -0.23496   0.94171
           Z           -0.45595   0.88391   0.10397
 This molecule is an asymmetric top.
 Rotational symmetry number  1.
 Warning -- assumption of classical behavior for rotation
           may cause significant error
 Rotational temperatures (Kelvin)      0.05018     0.01138     0.01052
 Rotational constants (GHZ):           1.04550     0.23714     0.21928
 Zero-point vibrational energy     729324.9 (Joules/Mol)
                                  174.31284 (Kcal/Mol)
 Warning -- explicit consideration of  29 degrees of freedom as
           vibrations may cause significant error
 Vibrational temperatures:     52.07    64.75    74.29   105.49   151.82
          (Kelvin)            246.13   260.97   307.43   320.30   332.73
                              340.36   343.41   370.75   384.16   423.08
                              433.93   467.28   477.38   491.35   526.68
                              555.15   590.19   600.33   640.78   681.36
                              721.05   731.08   860.78   883.00   922.38
                             1008.17  1016.55  1057.85  1167.00  1198.73
                             1205.14  1240.65  1265.09  1326.60  1335.85
                             1347.99  1370.03  1377.84  1410.06  1485.59
                             1502.19  1537.73  1561.88  1618.02  1685.24
                             1695.44  1740.06  1740.90  1773.52  1803.21
                             1813.75  1829.42  1877.26  1959.15  1960.98
                             1969.72  1978.76  2000.77  2018.42  2022.18
                             2080.64  2101.71  2109.07  2122.72  2124.93
                             2136.01  2136.94  2138.47  2139.78  2149.76
                             2156.20  2176.51  2288.26  4304.56  4311.60
                             4323.13  4333.18  4334.05  4384.79  4389.38
                             4394.42  4408.04  4413.18  4427.70  4428.26
                             4439.71  4453.21  4463.37  4471.09  4496.78
                             4535.65

 Zero-point correction=                           0.277785 (Hartree/Particle)
 Thermal correction to Energy=                    0.295374
 Thermal correction to Enthalpy=                  0.296319
 Thermal correction to Gibbs Free Energy=         0.232865
 Sum of electronic and zero-point Energies=          -1055.032752
 Sum of electronic and thermal Energies=             -1055.015163
 Sum of electronic and thermal Enthalpies=           -1055.014218
 Sum of electronic and thermal Free Energies=        -1055.077672

                     E (Thermal)             CV                S
                      KCal/Mol        Cal/Mol-Kelvin    Cal/Mol-Kelvin
 Total                  185.350             67.250            133.550
 Electronic               0.000              0.000              0.000
 Translational            0.889              2.981             42.304
 Rotational               0.889              2.981             33.047
 Vibrational            183.573             61.289             58.199
 Vibration     1          0.594              1.982              5.458
 Vibration     2          0.595              1.979              5.026
 Vibration     3          0.596              1.977              4.754
 Vibration     4          0.599              1.967              4.062
 Vibration     5          0.605              1.945              3.350
 Vibration     6          0.626              1.878              2.424
 Vibration     7          0.630              1.865              2.314
 Vibration     8          0.644              1.820              2.012
 Vibration     9          0.648              1.807              1.938
 Vibration    10          0.653              1.793              1.869
 Vibration    11          0.655              1.785              1.829
 Vibration    12          0.657              1.781              1.813
 Vibration    13          0.667              1.750              1.677
 Vibration    14          0.672              1.734              1.616
 Vibration    15          0.689              1.685              1.451
 Vibration    16          0.694              1.671              1.408
 Vibration    17          0.709              1.626              1.286
 Vibration    18          0.714              1.612              1.251
 Vibration    19          0.721              1.593              1.205
 Vibration    20          0.739              1.542              1.096
 Vibration    21          0.755              1.500              1.016
 Vibration    22          0.774              1.448              0.926
 Vibration    23          0.780              1.433              0.901
 Vibration    24          0.805              1.371              0.810
 Vibration    25          0.830              1.309              0.728
 Vibration    26          0.857              1.247              0.655
 Vibration    27          0.863              1.232              0.638
 Vibration    28          0.956              1.035              0.453
 Vibration    29          0.973              1.003              0.427

 Optimization completed.
    -- Stationary point found.
 Normal termination of Gaussian 16 at Sat Feb 10 15:44:39 2024.
