 Q-Chem 5.4, Q-Chem, Inc., Pleasanton, CA (2021)
 Q-Chem 5.4.0 for Intel X86 EM64T Linux

User input:
--------------------------------------------------------------
$molecule
-2 1
C                 -2.9857520000      3.7689990000      0.5287770000
C                 -4.2323360000      3.2024660000      0.5762260000
C                 -4.4257640000      1.8095190000      0.4306560000
C                 -1.8320000000      2.9698960000      0.3364170000
C                 -2.0011580000      1.5459900000      0.1857350000
C                 -3.3123390000      1.0169720000      0.2439180000
C                 -0.5326470000      3.6167330000      0.2840680000
C                  0.5855840000      2.7150270000      0.0697120000
C                  0.4212460000      1.2905930000     -0.0813410000
C                 -0.8807310000      0.6451920000     -0.0319030000
C                  1.8929200000      3.2547280000     -0.0096770000
C                  2.9763290000      2.4425940000     -0.2191490000
C                  2.8426580000      1.0432810000     -0.3708250000
C                  1.5763590000      0.5015850000     -0.2949320000
O                 -0.3858720000      4.8757280000      0.4113820000
O                 -1.0286510000     -0.6112710000     -0.1718340000
H                 -3.4094120000     -0.0573150000      0.1288640000
H                  1.4229230000     -0.5667930000     -0.4034790000
H                 -2.8499150000      4.8400300000      0.6255580000
H                  2.0047500000      4.3283220000      0.0893850000
H                  3.7151800000      0.4212030000     -0.5280310000
O                  4.2373940000      3.0802190000     -0.4002470000
C                  5.3305230000      2.7153760000      0.2954570000
C                  6.5371940000      3.5039830000     -0.1728570000
O                  5.3767160000      1.8589680000      1.1482680000
O                 -5.3437820000      4.0900270000      0.6576160000
H                  6.2555080000      4.4894350000     -0.5439670000
H                  7.0301940000      2.9631550000     -0.9908810000
H                  7.2525710000      3.5914840000      0.6446360000
C                 -6.3109040000      3.9429150000      1.5823240000
C                 -7.4013520000      4.9737040000      1.3685620000
O                 -6.3462150000      3.0956280000      2.4446910000
H                 -5.4206880000      1.3843340000      0.4791780000
H                 -7.0087970000      5.8899040000      0.9273000000
H                 -7.8921820000      5.1845420000      2.3184640000
H                 -8.1577640000      4.5670200000      0.6850950000
$end
$rem
MAX_SCF_CYCLES=200
BASIS  =  6-311++G(d,p)
GUI  =  2
JOB_TYPE  =  SP
METHOD  =  B3LYP
SOLVENT_METHOD = PCM
$end
$pcm
theory = CPCM
$end
$solvent
dielectric 37.219
opticaldielectric 1.43
$end

--------------------------------------------------------------

             Standard Nuclear Orientation (Angstroms)
    I     Atom           X                Y                Z
 ----------------------------------------------------------------
    1      C      -2.9857520000     3.7689990000     0.5287770000
    2      C      -4.2323360000     3.2024660000     0.5762260000
    3      C      -4.4257640000     1.8095190000     0.4306560000
    4      C      -1.8320000000     2.9698960000     0.3364170000
    5      C      -2.0011580000     1.5459900000     0.1857350000
    6      C      -3.3123390000     1.0169720000     0.2439180000
    7      C      -0.5326470000     3.6167330000     0.2840680000
    8      C       0.5855840000     2.7150270000     0.0697120000
    9      C       0.4212460000     1.2905930000    -0.0813410000
   10      C      -0.8807310000     0.6451920000    -0.0319030000
   11      C       1.8929200000     3.2547280000    -0.0096770000
   12      C       2.9763290000     2.4425940000    -0.2191490000
   13      C       2.8426580000     1.0432810000    -0.3708250000
   14      C       1.5763590000     0.5015850000    -0.2949320000
   15      O      -0.3858720000     4.8757280000     0.4113820000
   16      O      -1.0286510000    -0.6112710000    -0.1718340000
   17      H      -3.4094120000    -0.0573150000     0.1288640000
   18      H       1.4229230000    -0.5667930000    -0.4034790000
   19      H      -2.8499150000     4.8400300000     0.6255580000
   20      H       2.0047500000     4.3283220000     0.0893850000
   21      H       3.7151800000     0.4212030000    -0.5280310000
   22      O       4.2373940000     3.0802190000    -0.4002470000
   23      C       5.3305230000     2.7153760000     0.2954570000
   24      C       6.5371940000     3.5039830000    -0.1728570000
   25      O       5.3767160000     1.8589680000     1.1482680000
   26      O      -5.3437820000     4.0900270000     0.6576160000
   27      H       6.2555080000     4.4894350000    -0.5439670000
   28      H       7.0301940000     2.9631550000    -0.9908810000
   29      H       7.2525710000     3.5914840000     0.6446360000
   30      C      -6.3109040000     3.9429150000     1.5823240000
   31      C      -7.4013520000     4.9737040000     1.3685620000
   32      O      -6.3462150000     3.0956280000     2.4446910000
   33      H      -5.4206880000     1.3843340000     0.4791780000
   34      H      -7.0087970000     5.8899040000     0.9273000000
   35      H      -7.8921820000     5.1845420000     2.3184640000
   36      H      -8.1577640000     4.5670200000     0.6850950000
 ----------------------------------------------------------------

    9   -1145.1013652012      5.74e-06  Convergence criterion met
 Total energy in the final basis set =    -1145.1013652012

                    Orbital Energies (a.u.)
 --------------------------------------------------------------

 Alpha MOs
 -- Occupied --
-19.1759 -19.1759 -19.1181 -19.1181 -19.0285 -19.0262 -10.3108 -10.3108
-10.2190 -10.2190 -10.1823 -10.1794 -10.1723 -10.1723 -10.1580 -10.1580
-10.1561 -10.1561 -10.1549 -10.1549 -10.1444 -10.1444 -10.1416 -10.1416
 -1.1128  -1.1128  -1.0319  -1.0318  -0.9532  -0.9494  -0.8416  -0.8368
 -0.7752  -0.7617  -0.7457  -0.7335  -0.7300  -0.7114  -0.6560  -0.6341
 -0.6326  -0.5884  -0.5818  -0.5587  -0.5340  -0.5051  -0.5024  -0.4925
 -0.4878  -0.4861  -0.4797  -0.4712  -0.4668  -0.4438  -0.4407  -0.4217
 -0.4169  -0.4105  -0.4105  -0.4094  -0.4019  -0.3950  -0.3879  -0.3861
 -0.3816  -0.3755  -0.3718  -0.3671  -0.3543  -0.3387  -0.3370  -0.3356
 -0.3345  -0.3167  -0.3113  -0.3010  -0.2890  -0.2886  -0.2428  -0.2343
 -0.2303  -0.2204  -0.2114  -0.2033  -0.1095

          Ground-State Mulliken Net Atomic Charges

     Atom                 Charge (a.u.)
  ----------------------------------------
      1 C                    -0.099337
      2 C                    -0.771838
      3 C                    -0.066832
      4 C                     0.392623
      5 C                     0.358068
      6 C                     0.057522
      7 C                    -0.692357
      8 C                     0.405649
      9 C                     0.363985
     10 C                    -0.453718
     11 C                    -0.111116
     12 C                    -0.793561
     13 C                    -0.057575
     14 C                     0.055245
     15 O                    -0.661446
     16 O                    -0.650782
     17 H                     0.158589
     18 H                     0.157946
     19 H                     0.171914
     20 H                     0.172009
     21 H                     0.221426
     22 O                    -0.043310
     23 C                     0.180504
     24 C                    -0.542900
     25 O                    -0.348364
     26 O                    -0.043646
     27 H                     0.179455
     28 H                     0.204471
     29 H                     0.181063
     30 C                     0.182369
     31 C                    -0.543390
     32 O                    -0.349137
     33 H                     0.221419
     34 H                     0.179485
     35 H                     0.181012
     36 H                     0.204543
  ----------------------------------------
  Sum of atomic charges =    -2.000010

                    Cartesian Multipole Moments
 -----------------------------------------------------------------
    Charge (ESU x 10^10)
                -9.6065
    Dipole Moment (Debye)
         X       6.5202      Y     -18.2782      Z      -5.6609
       Tot      20.2151
    Quadrupole Moments (Debye-Ang)
        XX    -172.3258     XY       9.9232     YY    -223.4752
        XZ       4.5604     YZ     -13.3295     ZZ    -162.0643

 Total job time:  119.86s(wall), 582.84s(cpu)
        *  Thank you very much for using Q-Chem.  Have a nice day.  *
