 Gaussian 16, Revision A.03,
 Gaussian 16:  ES64L-G16RevA.03 25-Dec-2016

 --------------------------------------
 #P UB3LYP/6-311++G(d,p) nosym opt freq
 --------------------------------------

 -------
 Reduced
 -------
 Symbolic Z-matrix:
 Charge = -2 Multiplicity = 1

 SCF Done:  E(UB3LYP) =  -1144.83980111     A.U. after   90 cycles
 SCF Done:  E(UB3LYP) =  -1144.83979973     A.U. after   27 cycles
 SCF Done:  E(UB3LYP) =  -1144.83982396     A.U. after   29 cycles
 SCF Done:  E(UB3LYP) =  -1144.83983332     A.U. after   27 cycles
 SCF Done:  E(UB3LYP) =  -1144.83983533     A.U. after   28 cycles
 SCF Done:  E(UB3LYP) =  -1144.83983680     A.U. after   28 cycles
 SCF Done:  E(UB3LYP) =  -1144.83983728     A.U. after   28 cycles
 SCF Done:  E(UB3LYP) =  -1144.83983797     A.U. after   30 cycles
 SCF Done:  E(UB3LYP) =  -1144.83983850     A.U. after   28 cycles
 SCF Done:  E(UB3LYP) =  -1144.83983860     A.U. after   26 cycles
 Optimization completed.
    -- Stationary point found.
 Normal termination of Gaussian 16 at Wed Dec 27 23:47:40 2023.

 ----------------------------------------------------------------------
 #P Geom=AllCheck Guess=TCheck SCRF=Check GenChk UB3LYP/6-311++G(d,p) F
 req
 ----------------------------------------------------------------------

 Structure from the checkpoint file:  "148-an.chk"
 -------
 Reduced
 -------
 Charge = -2 Multiplicity = 1

                          Input orientation:
 ---------------------------------------------------------------------
 Center     Atomic      Atomic             Coordinates (Angstroms)
 Number     Number       Type             X           Y           Z
 ---------------------------------------------------------------------
      1          6           0       -2.985752    3.768999    0.528777
      2          6           0       -4.232336    3.202466    0.576226
      3          6           0       -4.425764    1.809519    0.430656
      4          6           0       -1.832000    2.969896    0.336417
      5          6           0       -2.001158    1.545990    0.185735
      6          6           0       -3.312339    1.016972    0.243918
      7          6           0       -0.532647    3.616733    0.284068
      8          6           0        0.585584    2.715027    0.069712
      9          6           0        0.421246    1.290593   -0.081341
     10          6           0       -0.880731    0.645192   -0.031903
     11          6           0        1.892920    3.254728   -0.009677
     12          6           0        2.976329    2.442594   -0.219149
     13          6           0        2.842658    1.043281   -0.370825
     14          6           0        1.576359    0.501585   -0.294932
     15          8           0       -0.385872    4.875728    0.411382
     16          8           0       -1.028651   -0.611271   -0.171834
     17          1           0       -3.409412   -0.057315    0.128864
     18          1           0        1.422923   -0.566793   -0.403479
     19          1           0       -2.849915    4.840030    0.625558
     20          1           0        2.004750    4.328322    0.089385
     21          1           0        3.715180    0.421203   -0.528031
     22          8           0        4.237394    3.080219   -0.400247
     23          6           0        5.330523    2.715376    0.295457
     24          6           0        6.537194    3.503983   -0.172857
     25          8           0        5.376716    1.858968    1.148268
     26          8           0       -5.343782    4.090027    0.657616
     27          1           0        6.255508    4.489435   -0.543967
     28          1           0        7.030194    2.963155   -0.990881
     29          1           0        7.252571    3.591484    0.644636
     30          6           0       -6.310904    3.942915    1.582324
     31          6           0       -7.401352    4.973704    1.368562
     32          8           0       -6.346215    3.095628    2.444691
     33          1           0       -5.420688    1.384334    0.479178
     34          1           0       -7.008797    5.889904    0.927300
     35          1           0       -7.892182    5.184542    2.318464
     36          1           0       -8.157764    4.567020    0.685095
 ---------------------------------------------------------------------

 SCF Done:  E(UB3LYP) =  -1144.83983860     A.U. after    4 cycles

 Alpha  occ. eigenvalues --  -18.99605 -18.99603 -18.94029 -18.94029 -18.82898
 Alpha  occ. eigenvalues --  -18.82833 -10.13516 -10.13506 -10.02781 -10.02777
 Alpha  occ. eigenvalues --  -10.02263 -10.02243  -9.98752  -9.98646  -9.96822
 Alpha  occ. eigenvalues --   -9.96816  -9.96191  -9.96187  -9.96160  -9.96156
 Alpha  occ. eigenvalues --   -9.95071  -9.95067  -9.94724  -9.94714  -0.93346
 Alpha  occ. eigenvalues --   -0.93340  -0.85275  -0.85270  -0.75050  -0.74684
 Alpha  occ. eigenvalues --   -0.64815  -0.64477  -0.59988  -0.59501  -0.56317
 Alpha  occ. eigenvalues --   -0.54285  -0.54277  -0.52638  -0.46993  -0.45001
 Alpha  occ. eigenvalues --   -0.44197  -0.39911  -0.39103  -0.36842  -0.34033
 Alpha  occ. eigenvalues --   -0.33045  -0.32636  -0.31281  -0.31078  -0.30907
 Alpha  occ. eigenvalues --   -0.30568  -0.28805  -0.28793  -0.26130  -0.25582
 Alpha  occ. eigenvalues --   -0.25474  -0.25332  -0.23424  -0.23376  -0.22370
 Alpha  occ. eigenvalues --   -0.22137  -0.21280  -0.20822  -0.19610  -0.19081
 Alpha  occ. eigenvalues --   -0.19047  -0.18142  -0.16527  -0.16396  -0.14989
 Alpha  occ. eigenvalues --   -0.14630  -0.14253  -0.13016  -0.12832  -0.11363
 Alpha  occ. eigenvalues --   -0.11130  -0.11026  -0.10537  -0.04583  -0.03486
 Alpha  occ. eigenvalues --   -0.02721  -0.02504  -0.00564   0.00112   0.09778
 Alpha virt. eigenvalues --    0.10978   0.11833   0.14145   0.14646   0.15620
 Alpha virt. eigenvalues --    0.15813   0.16228   0.16572   0.16669   0.17168
 Alpha virt. eigenvalues --    0.17763   0.18210   0.18594   0.19666   0.19805

  Beta  occ. eigenvalues --  -18.99605 -18.99603 -18.94034 -18.94024 -18.82898
  Beta  occ. eigenvalues --  -18.82833 -10.13520 -10.13502 -10.02781 -10.02777
  Beta  occ. eigenvalues --  -10.02267 -10.02238  -9.98752  -9.98646  -9.96824
  Beta  occ. eigenvalues --   -9.96815  -9.96190  -9.96188  -9.96159  -9.96157
  Beta  occ. eigenvalues --   -9.95072  -9.95067  -9.94725  -9.94713  -0.93349
  Beta  occ. eigenvalues --   -0.93337  -0.85279  -0.85266  -0.75050  -0.74684
  Beta  occ. eigenvalues --   -0.64815  -0.64477  -0.59989  -0.59501  -0.56318
  Beta  occ. eigenvalues --   -0.54286  -0.54276  -0.52638  -0.46993  -0.45001
  Beta  occ. eigenvalues --   -0.44197  -0.39911  -0.39103  -0.36842  -0.34033
  Beta  occ. eigenvalues --   -0.33045  -0.32636  -0.31281  -0.31078  -0.30907
  Beta  occ. eigenvalues --   -0.30568  -0.28805  -0.28793  -0.26130  -0.25583
  Beta  occ. eigenvalues --   -0.25474  -0.25332  -0.23424  -0.23376  -0.22370
  Beta  occ. eigenvalues --   -0.22137  -0.21280  -0.20822  -0.19610  -0.19081
  Beta  occ. eigenvalues --   -0.19047  -0.18142  -0.16527  -0.16397  -0.14989
  Beta  occ. eigenvalues --   -0.14630  -0.14253  -0.13016  -0.12832  -0.11363
  Beta  occ. eigenvalues --   -0.11130  -0.11025  -0.10538  -0.04583  -0.03486
  Beta  occ. eigenvalues --   -0.02722  -0.02504  -0.00565   0.00112   0.09776
  Beta virt. eigenvalues --    0.10976   0.11837   0.14145   0.14646   0.15616
  Beta virt. eigenvalues --    0.15817   0.16228   0.16574   0.16668   0.17168
  Beta virt. eigenvalues --    0.17763   0.18210   0.18594   0.19667   0.19805

 Mulliken charges and spin densities:
               1          2
     1  C   -0.077105   0.012089
     2  C   -0.761156  -0.076994
     3  C    0.058798   0.007965
     4  C    0.536878  -0.002147
     5  C    0.476277   0.014877
     6  C    0.137441   0.080049
     7  C   -0.911607  -0.000097
     8  C    0.537050   0.002334
     9  C    0.476661  -0.015112
    10  C   -0.798953  -0.000059
    11  C   -0.079007  -0.011083
    12  C   -0.761282   0.077671
    13  C    0.059465  -0.008995
    14  C    0.136679  -0.080528
    15  O   -0.447433  -0.000099
    16  O   -0.446718  -0.000062
    17  H    0.147860  -0.002021
    18  H    0.147822   0.002041
    19  H    0.168852   0.003658
    20  H    0.168858  -0.003679
    21  H    0.149250   0.005805
    22  O   -0.026455   0.002553
    23  C   -0.489120   0.571371
    24  C    0.668367  -1.192531
    25  O   -0.279888   0.008332
    26  O   -0.026554  -0.002558
    27  H   -0.022871   0.179607
    28  H   -0.302180   0.467784
    29  H   -0.081565   0.230073
    30  C   -0.490027  -0.571761
    31  C    0.667439   1.191604
    32  O   -0.279680  -0.008246
    33  H    0.149059  -0.005843
    34  H   -0.022713  -0.179444
    35  H   -0.081673  -0.230212
    36  H   -0.300770  -0.466342
 Sum of Mulliken charges =  -2.00000  -0.00000

 Dipole moment (field-independent basis, Debye):
    X=              6.0171    Y=            -23.9639    Z=             -4.7040  Tot=             25.1516
 Quadrupole moment (field-independent basis, Debye-Ang):
   XX=           -357.7180   YY=           -260.0114   ZZ=           -169.5025
   XY=             31.3445   XZ=             23.7662   YZ=            -14.4125

  Exact polarizability:********3005.302 568.0013121.487-145.289 265.386
 Approx polarizability:****************2021.496******** 219.254 648.763

                      1                      2                      3
                      A                      A                      A
 Frequencies --     18.6371                27.5827                38.9397
 Red. masses --      8.6682                 8.1085                 7.3240
 Frc consts  --      0.0018                 0.0036                 0.0065
 IR Inten    --      0.7561                96.6433                 3.9354

                      4                      5                      6
                      A                      A                      A
 Frequencies --     53.6540                57.4173                66.8067
 Red. masses --      4.4648                 3.7177                 1.0575
 Frc consts  --      0.0076                 0.0072                 0.0028
 IR Inten    --      2.8568                 0.2289                 8.7828

                      7                      8                      9
                      A                      A                      A
 Frequencies --     67.3206                80.5646                82.7558
 Red. masses --      1.0549                 4.3027                 7.0298
 Frc consts  --      0.0028                 0.0165                 0.0284
 IR Inten    --      6.1288                80.7101                 2.5968

                     10                     11                     12
                      A                      A                      A
 Frequencies --    139.0451               151.6770               164.8753
 Red. masses --      4.6511                 6.2370                 9.0580
 Frc consts  --      0.0530                 0.0845                 0.1451
 IR Inten    --     85.6427                 4.0106                 6.1835

                     13                     14                     15
                      A                      A                      A
 Frequencies --    180.4159               204.3111               232.6804
 Red. masses --      8.2264                 7.6148                 4.9715
 Frc consts  --      0.1578                 0.1873                 0.1586
 IR Inten    --      3.5706               494.1282                 1.1774

                     16                     17                     18
                      A                      A                      A
 Frequencies --    247.2650               285.8721               305.0424
 Red. masses --      9.8353                 5.4043                 6.6097
 Frc consts  --      0.3543                 0.2602                 0.3624
 IR Inten    --     33.8353               278.0130                 6.0261

                     19                     20                     21
                      A                      A                      A
 Frequencies --    343.3934               378.6425               394.4376
 Red. masses --      5.6232                10.1658                 5.2302
 Frc consts  --      0.3907                 0.8587                 0.4794
 IR Inten    --    152.6553                32.4604                 2.5416

                     22                     23                     24
                      A                      A                      A
 Frequencies --    397.7548               411.7881               423.6991
 Red. masses --      4.9156                 5.6462                 4.2929
 Frc consts  --      0.4582                 0.5641                 0.4541
 IR Inten    --      0.6144                75.9088                 1.5344

                     25                     26                     27
                      A                      A                      A
 Frequencies --    458.8427               465.5713               477.6614
 Red. masses --      5.5486                 4.9541                 3.1250
 Frc consts  --      0.6883                 0.6327                 0.4201
 IR Inten    --     11.2477               879.5826                70.5608

                     28                     29                     30
                      A                      A                      A
 Frequencies --    485.5964               552.9205               559.1357
 Red. masses --      9.0023                 4.9821                 4.8961
 Frc consts  --      1.2507                 0.8974                 0.9019
 IR Inten    --     78.9784               481.2249                 1.0250

                     31                     32                     33
                      A                      A                      A
 Frequencies --    569.7710               597.1499               609.9495
 Red. masses --      4.6237                 3.0910                 3.2457
 Frc consts  --      0.8844                 0.6494                 0.7115
 IR Inten    --    835.9381                10.8361              1244.4660

                     34                     35                     36
                      A                      A                      A
 Frequencies --    633.0258               643.7442               672.0012
 Red. masses --      3.6778                 7.0065                 5.0376
 Frc consts  --      0.8683                 1.7107                 1.3403
 IR Inten    --     14.8846                 8.3383                10.8563

                     37                     38                     39
                      A                      A                      A
 Frequencies --    688.1772               706.5202               713.3218
 Red. masses --      6.1460                 5.8203                 4.4814
 Frc consts  --      1.7149                 1.7118                 1.3435
 IR Inten    --    462.1514                10.4381                23.0747

                     40                     41                     42
                      A                      A                      A
 Frequencies --    717.6441               753.6780               765.4257
 Red. masses --      3.6110                 7.1554                 2.0476
 Frc consts  --      1.0957                 2.3947                 0.7068
 IR Inten    --     19.8574                12.1987                 7.5794

                     43                     44                     45
                      A                      A                      A
 Frequencies --    773.4210               798.5118               822.0427
 Red. masses --      1.5908                 4.9871                 4.3457
 Frc consts  --      0.5607                 1.8735                 1.7302
 IR Inten    --    109.3262              6728.8633                 5.0545

                     46                     47                     48
                      A                      A                      A
 Frequencies --    870.2680               906.5557               924.0828
 Red. masses --      5.4997                 2.8810                 1.7753
 Frc consts  --      2.4541                 1.3950                 0.8932
 IR Inten    --      8.9632               782.7178                17.4230

                     49                     50                     51
                      A                      A                      A
 Frequencies --    930.7377               937.3265               950.8401
 Red. masses --      2.7289                 3.3156                 3.5039
 Frc consts  --      1.3928                 1.7163                 1.8664
 IR Inten    --    440.2502               639.8272                80.1059

                     52                     53                     54
                      A                      A                      A
 Frequencies --    970.8874               974.3117              1002.5650
 Red. masses --      1.3052                 1.3350                 2.5155
 Frc consts  --      0.7249                 0.7467                 1.4897
 IR Inten    --     65.6514                 7.9796              2469.0152

                     55                     56                     57
                      A                      A                      A
 Frequencies --   1017.3715              1023.2748              1045.1383
 Red. masses --      1.7044                 1.6196                 1.7501
 Frc consts  --      1.0394                 0.9992                 1.1263
 IR Inten    --     43.2164              6505.6620               223.9793

                     58                     59                     60
                      A                      A                      A
 Frequencies --   1045.7803              1086.6414              1108.9853
 Red. masses --      1.7554                 2.1140                 1.5870
 Frc consts  --      1.1311                 1.4707                 1.1499
 IR Inten    --    299.6019                22.7112              1074.8270

                     61                     62                     63
                      A                      A                      A
 Frequencies --   1119.1963              1133.1313              1181.2465
 Red. masses --      1.8147                 3.0278                 1.9320
 Frc consts  --      1.3393                 2.2906                 1.5883
 IR Inten    --     15.6538             13677.2347                13.2086

                     64                     65                     66
                      A                      A                      A
 Frequencies --   1201.1529              1201.2422              1206.0463
 Red. masses --      7.7006                 6.7657                 1.7653
 Frc consts  --      6.5459                 5.7521                 1.5128
 IR Inten    --    230.9667               223.9568                 0.3990

                     67                     68                     69
                      A                      A                      A
 Frequencies --   1222.3243              1238.8543              1269.3895
 Red. masses --      3.4770                 2.0592                 3.4351
 Frc consts  --      3.0608                 1.8621                 3.2613
 IR Inten    --    257.1824                64.4375             74990.4115

                     70                     71                     72
                      A                      A                      A
 Frequencies --   1313.2895              1344.9670              1358.8226
 Red. masses --      2.2755                 7.5053                 6.3940
 Frc consts  --      2.3123                 7.9991                 6.9558
 IR Inten    --     82.6463               333.7711              3306.3302

                     73                     74                     75
                      A                      A                      A
 Frequencies --   1374.6344              1381.1806              1427.0464
 Red. masses --      2.2404                 1.7809                 1.5980
 Frc consts  --      2.4943                 2.0016                 1.9174
 IR Inten    --    116.5953               386.6651            161361.7521

                     76                     77                     78
                      A                      A                      A
 Frequencies --   1448.7161              1462.4043              1462.6471
 Red. masses --      3.3801                 1.0755                 1.0647
 Frc consts  --      4.1797                 1.3552                 1.3420
 IR Inten    --   8436.6058               168.4579               547.7177

                     79                     80                     81
                      A                      A                      A
 Frequencies --   1464.9920              1472.8585              1472.8811
 Red. masses --      3.3459                 1.0676                 1.0650
 Frc consts  --      4.2310                 1.3645                 1.3613
 IR Inten    --    434.8447               114.0782                74.6251

                     82                     83                     84
                      A                      A                      A
 Frequencies --   1480.0415              1485.1204              1501.0095
 Red. masses --      7.2266                 4.1757                 5.7307
 Frc consts  --      9.3268                 5.4263                 7.6072
 IR Inten    --    258.0031             12384.2528               573.4179

                     85                     86                     87
                      A                      A                      A
 Frequencies --   1538.8685              1569.7948              1603.2230
 Red. masses --      6.5029                 7.7595                 7.2541
 Frc consts  --      9.0732                11.2660                10.9856
 IR Inten    --   5410.3338               734.5186                40.0855

                     88                     89                     90
                      A                      A                      A
 Frequencies --   1604.8857              1760.6132              1760.7477
 Red. masses --      6.5492                11.3606                11.3471
 Frc consts  --      9.9387                20.7482                20.7267
 IR Inten    --   7527.8865              1220.7593              1975.7495

                     91                     92                     93
                      A                      A                      A
 Frequencies --   2998.6161              2999.0720              3087.4927
 Red. masses --      1.0539                 1.0537                 1.0786
 Frc consts  --      5.5835                 5.5840                 6.0578
 IR Inten    --    489.9058              2047.3388                39.7110

                     94                     95                     96
                      A                      A                      A
 Frequencies --   3088.6826              3137.2480              3137.3345
 Red. masses --      1.0788                 1.1054                 1.1054
 Frc consts  --      6.0638                 6.4103                 6.4104
 IR Inten    --   7077.3122                 9.0745               601.0795

                     97                     98                     99
                      A                      A                      A
 Frequencies --   3165.4060              3165.5843              3183.9737
 Red. masses --      1.0861                 1.0862                 1.0899
 Frc consts  --      6.4120                 6.4128                 6.5097
 IR Inten    --     13.1063                 4.0279              1075.4440

                    100                    101                    102
                      A                      A                      A
 Frequencies --   3184.2219              3185.3328              3185.4977
 Red. masses --      1.0899                 1.0938                 1.0936
 Frc consts  --      6.5110                 6.5390                 6.5382
 IR Inten    --      3.6815               175.1735              2196.6846

 - Thermochemistry -
 -------------------
 Temperature   298.150 Kelvin.  Pressure   1.00000 Atm.
 Atom     1 has atomic number  6 and mass  12.00000

 Molecular mass:   324.06339 amu.
 Principal axes and moments of inertia in atomic units:
                           1         2         3
     Eigenvalues --  2664.97706********************
           X            0.98854   0.11967   0.09205
           Y           -0.10424   0.98203  -0.15734
           Z           -0.10922   0.14594   0.98325
 This molecule is an asymmetric top.
 Rotational symmetry number  1.
 Warning -- assumption of classical behavior for rotation
           may cause significant error
 Rotational temperatures (Kelvin)      0.03250     0.00450     0.00407
 Rotational constants (GHZ):           0.67721     0.09375     0.08473
 Zero-point vibrational energy     673457.2 (Joules/Mol)
                                  160.96013 (Kcal/Mol)
 Warning -- explicit consideration of  33 degrees of freedom as
           vibrations may cause significant error
 Vibrational temperatures:     26.81    39.69    56.03    77.20    82.61
          (Kelvin)             96.12    96.86   115.91   119.07   200.05
                              218.23   237.22   259.58   293.96   334.78
                              355.76   411.31   438.89   494.07   544.78
                              567.51   572.28   592.47   609.61   660.17
                              669.85   687.25   698.66   795.53   804.47
                              819.77   859.17   877.58   910.78   926.20
                              966.86   990.13  1016.52  1026.31  1032.53
                             1084.37  1101.28  1112.78  1148.88  1182.74
                             1252.12  1304.33  1329.55  1339.12  1348.60
                             1368.05  1396.89  1401.82  1442.47  1463.77
                             1472.26  1503.72  1504.64  1563.43  1595.58
                             1610.27  1630.32  1699.55  1728.19  1728.32
                             1735.23  1758.65  1782.44  1826.37  1889.53
                             1935.11  1955.04  1977.79  1987.21  2053.20
                             2084.38  2104.07  2104.42  2107.80  2119.11
                             2119.15  2129.45  2136.76  2159.62  2214.09
                             2258.58  2306.68  2309.07  2533.13  2533.32
                             4314.34  4315.00  4442.21  4443.93  4513.80
                             4513.92  4554.31  4554.57  4581.03  4581.39
                             4582.98  4583.22

 Zero-point correction=                           0.256506 (Hartree/Particle)
 Thermal correction to Energy=                    0.277588
 Thermal correction to Enthalpy=                  0.278532
 Thermal correction to Gibbs Free Energy=         0.203491
 Sum of electronic and zero-point Energies=          -1144.583332
 Sum of electronic and thermal Energies=             -1144.562251
 Sum of electronic and thermal Enthalpies=           -1144.561307
 Sum of electronic and thermal Free Energies=        -1144.636348

                     E (Thermal)             CV                S
                      KCal/Mol        Cal/Mol-Kelvin    Cal/Mol-Kelvin
 Total                  174.189             78.678            157.937
 Electronic               0.000              0.000              0.000
 Translational            0.889              2.981             43.223
 Rotational               0.889              2.981             35.345
 Vibrational            172.411             72.716             79.369
 Vibration     1          0.593              1.986              6.774
 Vibration     2          0.593              1.984              5.996
 Vibration     3          0.594              1.981              5.312
 Vibration     4          0.596              1.976              4.678
 Vibration     5          0.596              1.975              4.544
 Vibration     6          0.598              1.970              4.245
 Vibration     7          0.598              1.970              4.230
 Vibration     8          0.600              1.962              3.877
 Vibration     9          0.600              1.961              3.824
 Vibration    10          0.615              1.914              2.817
 Vibration    11          0.619              1.901              2.651
 Vibration    12          0.623              1.886              2.493
 Vibration    13          0.629              1.866              2.324
 Vibration    14          0.640              1.834              2.094
 Vibration    15          0.653              1.791              1.858
 Vibration    16          0.661              1.767              1.750
 Vibration    17          0.684              1.700              1.498
 Vibration    18          0.696              1.664              1.389
 Vibration    19          0.722              1.589              1.196
 Vibration    20          0.749              1.516              1.045
 Vibration    21          0.761              1.482              0.983
 Vibration    22          0.764              1.475              0.971
 Vibration    23          0.776              1.445              0.920
 Vibration    24          0.786              1.419              0.879
 Vibration    25          0.817              1.341              0.769
 Vibration    26          0.823              1.326              0.750
 Vibration    27          0.834              1.300              0.716
 Vibration    28          0.842              1.282              0.695
 Vibration    29          0.908              1.133              0.538
 Vibration    30          0.915              1.120              0.526
 Vibration    31          0.926              1.097              0.505
 Vibration    32          0.955              1.038              0.455
 Vibration    33          0.969              1.011              0.433

                           ! Non-Optimized Parameters !
 Normal termination of Gaussian 16 at Thu Dec 28 01:54:07 2023.
