 Q-Chem 5.4, Q-Chem, Inc., Pleasanton, CA (2021)
 Q-Chem 5.4.0 for Intel X86 EM64T Linux

User input:
--------------------------------------------------------------
$molecule
-1 2
C                 -2.9083910000      0.4142110000      0.5256970000
C                 -1.9368300000     -0.4094610000     -0.3408670000
C                 -2.2803150000     -0.3324690000     -1.8406350000
C                 -0.4661280000     -0.1424700000     -0.0349560000
C                  0.2241770000      1.0284800000     -0.2211720000
Br                -0.6207300000      2.6259590000     -0.9494650000
C                  1.6323760000      1.2403430000      0.0858080000
O                  2.2197900000      2.3313860000     -0.1022690000
C                  2.3392700000      0.0812000000      0.6389470000
C                  1.6573080000     -1.0890180000      0.8264770000
Br                 2.5818410000     -2.6304300000      1.5571990000
C                  0.2559560000     -1.3053300000      0.5230560000
O                 -0.3167170000     -2.4036390000      0.7174190000
C                  3.7957950000      0.2646600000      0.9681830000
H                 -2.8678820000      1.4806850000      0.2988740000
H                 -2.6796700000      0.2826990000      1.5872110000
H                 -3.9357860000      0.0687080000      0.3593600000
H                 -2.0700470000     -1.4522490000     -0.0471390000
H                 -2.1941140000      0.6805280000     -2.2367780000
H                 -1.6168390000     -0.9819640000     -2.4189110000
H                 -3.3091650000     -0.6757950000     -2.0024640000
H                  4.4196190000     -0.4357900000      0.4035130000
H                  4.0886980000      1.2854000000      0.7255720000
H                  3.9877860000      0.0743550000      2.0290970000
$end
$rem
MAX_SCF_CYCLES=200
BASIS  =  6-311++G(d,p)
GUI  =  2
JOB_TYPE  =  SP
METHOD  =  B3LYP
SOLVENT_METHOD = COSMO
$end
$solvent
dielectric 37.219
opticaldielectric 1.43
$end

--------------------------------------------------------------

             Standard Nuclear Orientation (Angstroms)
    I     Atom           X                Y                Z
 ----------------------------------------------------------------
    1      C      -2.3848033694     2.2754207602    -1.2800753572
    2      C      -1.5436189776     2.1072185014    -0.0004596628
    3      C      -2.3841240175     2.2757794388     1.2795216869
    4      C      -0.6721560006     0.8548677637    -0.0003323136
    5      C      -1.0912074565    -0.4515460714    -0.0000818043
    6      Br     -2.9785752600    -0.9353437326     0.0004523882
    7      C      -0.2220086994    -1.6205801082    -0.0002090319
    8      O      -0.6534512800    -2.7972960010    -0.0001901086
    9      C       1.2164860898    -1.3377248820    -0.0004032668
   10      C       1.6408467666    -0.0378911548    -0.0000353736
   11      Br      3.5420586412     0.3494847613     0.0003776264
   12      C       0.7803421316     1.1292310970    -0.0002224848
   13      O       1.2284250850     2.3002288159    -0.0003196123
   14      C       2.1439440360    -2.5223515834    -0.0009753761
   15      H      -3.1619862370     1.5150701233    -1.3712353509
   16      H      -1.7472974804     2.2190891733    -2.1671118096
   17      H      -2.8687311526     3.2594881781    -1.2776209095
   18      H      -0.8158095867     2.9206821397    -0.0008056676
   19      H      -3.1607481374     1.5149382760     1.3717090630
   20      H      -1.7460777331     2.2204287044     2.1662462918
   21      H      -2.8687243585     3.2595217233     1.2768166412
   22      H       2.7962108955    -2.5137024097     0.8782924614
   23      H       1.5518618865    -3.4366816138    -0.0022929441
   24      H       2.7973901035    -2.5117753855    -0.8793326118
 ----------------------------------------------------------------

   10   -5686.0334930828      7.91e-06  Convergence criterion met
 Total energy in the final basis set =    -5686.0334930828
    4   -5686.1096008625      8.72e-06  Convergence criterion met
 Total energy in the final basis set =    -5686.1096008625

                    Orbital Energies (a.u.)
 --------------------------------------------------------------

 Alpha MOs
 -- Occupied --
********-482.8215 -62.4772 -62.4744 -56.2976 -56.2947 -56.2941 -56.2937
-56.2912 -56.2908 -19.0909 -19.0907 -10.2407 -10.2400 -10.2220 -10.2198
-10.1913 -10.1899 -10.1716 -10.1593 -10.1506 -10.1506  -8.6859  -8.6831
 -6.5167  -6.5141  -6.5051  -6.5040  -6.5023  -6.5012  -2.6277  -2.6251
 -2.6246  -2.6239  -2.6218  -2.6211  -2.6145  -2.6145  -2.6117  -2.6117
 -1.0210  -1.0184  -0.8577  -0.8263  -0.7846  -0.7720  -0.7442  -0.6863
 -0.6782  -0.6743  -0.6030  -0.5671  -0.5478  -0.5089  -0.4653  -0.4425
 -0.4405  -0.4350  -0.4270  -0.4133  -0.4018  -0.3979  -0.3932  -0.3903
 -0.3864  -0.3804  -0.3624  -0.3455  -0.3400  -0.3233  -0.3191  -0.3150
 -0.2869  -0.2798  -0.2745  -0.2607  -0.2489  -0.2421  -0.1720

 Beta MOs
 -- Occupied --
********-482.8215 -62.4772 -62.4744 -56.2976 -56.2948 -56.2940 -56.2937
-56.2912 -56.2908 -19.0842 -19.0839 -10.2393 -10.2385 -10.2211 -10.2190
-10.1899 -10.1885 -10.1717 -10.1594 -10.1505 -10.1505  -8.6859  -8.6831
 -6.5168  -6.5141  -6.5050  -6.5040  -6.5022  -6.5012  -2.6277  -2.6251
 -2.6246  -2.6239  -2.6218  -2.6212  -2.6145  -2.6145  -2.6117  -2.6116
 -1.0094  -1.0066  -0.8527  -0.8249  -0.7835  -0.7702  -0.7416  -0.6841
 -0.6780  -0.6662  -0.6008  -0.5626  -0.5454  -0.5066  -0.4619  -0.4381
 -0.4325  -0.4309  -0.4231  -0.4090  -0.3995  -0.3964  -0.3879  -0.3848
 -0.3773  -0.3658  -0.3608  -0.3441  -0.3385  -0.3227  -0.3130  -0.3041
 -0.2866  -0.2792  -0.2547  -0.2534  -0.2433  -0.2362

          Ground-State Mulliken Net Atomic Charges

     Atom                 Charge (a.u.)    Spin (a.u.)
  --------------------------------------------------------
      1 C                    -0.717261       0.002208
      2 C                     0.281966      -0.001410
      3 C                    -0.716971       0.002212
      4 C                     1.098720       0.127647
      5 C                     0.278222       0.055908
      6 Br                   -0.124745       0.004016
      7 C                    -1.388630       0.094304
      8 O                    -0.405966       0.243514
      9 C                     0.818735       0.106692
     10 C                     0.138895       0.025699
     11 Br                   -0.230533       0.003429
     12 C                    -1.009810       0.090678
     13 O                    -0.393673       0.241426
     14 C                    -0.308058      -0.000684
     15 H                     0.148785      -0.000506
     16 H                     0.156172       0.000223
     17 H                     0.156954       0.000500
     18 H                     0.216070      -0.003127
     19 H                     0.148676      -0.000507
     20 H                     0.156190       0.000222
     21 H                     0.156910       0.000501
     22 H                     0.175777       0.004628
     23 H                     0.188018      -0.002187
     24 H                     0.175558       0.004615
  --------------------------------------------------------
  Sum of atomic charges =    -1.000000

                    Cartesian Multipole Moments
 -----------------------------------------------------------------
    Charge (ESU x 10^10)
                -4.8032
    Dipole Moment (Debye)
         X      -1.1570      Y       1.3571      Z      -0.0003
       Tot       1.7834
    Quadrupole Moments (Debye-Ang)
        XX    -129.4198     XY     -18.3631     YY    -141.5249
        XZ      -0.0007     YZ      -0.0025     ZZ    -112.6084

 Total job time:  67.36s(wall), 509.89s(cpu)
        *  Thank you very much for using Q-Chem.  Have a nice day.  *
