 Q-Chem 5.4, Q-Chem, Inc., Pleasanton, CA (2021)
 Q-Chem 5.4.0 for Intel X86 EM64T Linux

User input:
--------------------------------------------------------------
$molecule
0 1
C                  1.0527490000      1.7081760000     -0.4877050000
C                 -0.2415340000      1.2259830000      0.0973780000
C                 -0.5344650000     -0.0965930000      0.1371740000
C                  0.4225710000     -1.0879370000     -0.4410830000
C                  1.6760830000     -0.6002340000     -1.0750420000
C                  1.9641130000      0.7022890000     -1.1027990000
O                  1.3518620000      2.8873570000     -0.4431430000
O                  0.1953640000     -2.2854760000     -0.4064750000
S                  3.4616310000      1.2379200000     -2.0080650000
C                  4.5083200000      2.0427620000     -0.7856980000
C                  4.4157230000      3.4215930000     -0.6099750000
C                  5.4204180000      1.2660760000     -0.0721590000
C                  6.2508000000      1.8914160000      0.8544970000
C                  5.2576180000      4.0330220000      0.3155560000
C                  6.1685350000      3.2705450000      1.0467030000
O                  3.0402040000      2.2213460000     -3.0047640000
O                  4.1274540000     -0.0064220000     -2.4101530000
H                  3.6996910000      3.9913210000     -1.1859390000
H                  5.4882820000      0.2015820000     -0.2578790000
H                  5.2033920000      5.1053290000      0.4623430000
H                  2.3310560000     -1.3451090000     -1.5133850000
H                  6.9686510000      1.3041690000      1.4150370000
C                 -1.7776030000     -0.7027350000      0.7228020000
C                 -1.1132010000      2.3293820000      0.6260660000
H                  6.8204850000      3.7534180000      1.7657560000
H                 -2.3666990000      0.0141360000      1.2897040000
H                 -1.5146960000     -1.5395010000      1.3734250000
H                 -2.4054730000     -1.1208740000     -0.0706900000
H                 -1.2574040000      3.0933470000     -0.1415820000
H                 -0.6246340000      2.8316830000      1.4661850000
H                 -2.0871460000      1.9709200000      0.9502700000
$end

$rem
BASIS  =  6-311++G(d,p)
GUI  =  2
JOB_TYPE  =  SP
METHOD  =  B3LYP
SCF_CONVERGENCE  = 8
SOLVENT_METHOD = sm12
$end

$smx
solvent dimethylformamide
charges CM5
$end

--------------------------------------------------------------

             Standard Nuclear Orientation (Angstroms)
    I     Atom           X                Y                Z
 ----------------------------------------------------------------
    1      C       1.0527490000     1.7081760000    -0.4877050000
    2      C      -0.2415340000     1.2259830000     0.0973780000
    3      C      -0.5344650000    -0.0965930000     0.1371740000
    4      C       0.4225710000    -1.0879370000    -0.4410830000
    5      C       1.6760830000    -0.6002340000    -1.0750420000
    6      C       1.9641130000     0.7022890000    -1.1027990000
    7      O       1.3518620000     2.8873570000    -0.4431430000
    8      O       0.1953640000    -2.2854760000    -0.4064750000
    9      S       3.4616310000     1.2379200000    -2.0080650000
   10      C       4.5083200000     2.0427620000    -0.7856980000
   11      C       4.4157230000     3.4215930000    -0.6099750000
   12      C       5.4204180000     1.2660760000    -0.0721590000
   13      C       6.2508000000     1.8914160000     0.8544970000
   14      C       5.2576180000     4.0330220000     0.3155560000
   15      C       6.1685350000     3.2705450000     1.0467030000
   16      O       3.0402040000     2.2213460000    -3.0047640000
   17      O       4.1274540000    -0.0064220000    -2.4101530000
   18      H       3.6996910000     3.9913210000    -1.1859390000
   19      H       5.4882820000     0.2015820000    -0.2578790000
   20      H       5.2033920000     5.1053290000     0.4623430000
   21      H       2.3310560000    -1.3451090000    -1.5133850000
   22      H       6.9686510000     1.3041690000     1.4150370000
   23      C      -1.7776030000    -0.7027350000     0.7228020000
   24      C      -1.1132010000     2.3293820000     0.6260660000
   25      H       6.8204850000     3.7534180000     1.7657560000
   26      H      -2.3666990000     0.0141360000     1.2897040000
   27      H      -1.5146960000    -1.5395010000     1.3734250000
   28      H      -2.4054730000    -1.1208740000    -0.0706900000
   29      H      -1.2574040000     3.0933470000    -0.1415820000
   30      H      -0.6246340000     2.8316830000     1.4661850000
   31      H      -2.0871460000     1.9709200000     0.9502700000
 ----------------------------------------------------------------

   16   -1239.9589755917      2.43e-09  Convergence criterion met
 Total energy in the final basis set =    -1239.9858564580

                    Orbital Energies (a.u.)
 --------------------------------------------------------------

 Alpha MOs
 -- Occupied --
-89.0673 -19.1469 -19.1468 -19.1312 -19.1308 -10.2974 -10.2919 -10.2457
-10.2308 -10.2237 -10.2207 -10.2188 -10.2035 -10.2013 -10.1961 -10.1941
-10.1934 -10.1735 -10.1735  -8.1311  -6.0936  -6.0931  -6.0922  -1.1274
 -1.0813  -1.0778  -1.0241  -0.8858  -0.8803  -0.8325  -0.7899  -0.7720
 -0.7563  -0.7243  -0.7009  -0.6754  -0.6310  -0.6241  -0.6062  -0.5865
 -0.5547  -0.5453  -0.5235  -0.4967  -0.4887  -0.4865  -0.4717  -0.4687
 -0.4622  -0.4604  -0.4524  -0.4449  -0.4375  -0.4300  -0.4165  -0.4120
 -0.4028  -0.3968  -0.3935  -0.3874  -0.3794  -0.3689  -0.3550  -0.3454
 -0.3330  -0.3221  -0.3202  -0.2993  -0.2890  -0.2818  -0.2788  -0.2748

          Ground-State Mulliken Net Atomic Charges

     Atom                 Charge (a.u.)
  ----------------------------------------
      1 C                    -0.858443
      2 C                     0.088721
      3 C                     1.098738
      4 C                    -1.016050
      5 C                     0.012678
      6 C                    -0.433649
      7 O                    -0.228060
      8 O                    -0.267342
      9 S                    -0.475406
     10 C                    -0.334854
     11 C                    -0.718723
     12 C                     0.101307
     13 C                    -0.096280
     14 C                    -0.066712
     15 C                     0.268155
     16 O                    -0.209904
     17 O                    -0.174104
     18 H                     0.224213
     19 H                     0.284121
     20 H                     0.300428
     21 H                     0.289398
     22 H                     0.302424
     23 C                     0.288913
     24 C                     0.106178
     25 H                     0.310866
     26 H                     0.221717
     27 H                     0.181337
     28 H                     0.193371
     29 H                     0.175881
     30 H                     0.200629
     31 H                     0.230451
  ----------------------------------------
  Sum of atomic charges =     0.000000

                    Cartesian Multipole Moments
 -----------------------------------------------------------------
    Charge (ESU x 10^10)
                -0.0000
    Dipole Moment (Debye)
         X      -1.5103      Y       1.8516      Z       6.2959
       Tot       6.7340
    Quadrupole Moments (Debye-Ang)
        XX    -101.2235     XY       5.9946     YY    -120.5429
        XZ      23.6448     YZ       9.9212     ZZ    -132.3395

 Total job time:  852.34s(wall), 6528.97s(cpu)
        *  Thank you very much for using Q-Chem.  Have a nice day.  *
