 Gaussian 16, Revision A.03,
 Gaussian 16:  ES64L-G16RevA.03 25-Dec-2016

 ----------------------------------------------------------------------
 #P UB3LYP/6-311++G(d,p) nosym opt freq SCRF=(PCM,Solvent=n,n-DiMethylF
 ormamide)
 ----------------------------------------------------------------------

 --------
 Oxidized
 --------
 Symbolic Z-matrix:
 Charge =  0 Multiplicity = 1

 SCF Done:  E(UB3LYP) =  -650.840868636     A.U. after   14 cycles
 SCF Done:  E(UB3LYP) =  -650.840986208     A.U. after   12 cycles
 SCF Done:  E(UB3LYP) =  -650.841003794     A.U. after   10 cycles
 SCF Done:  E(UB3LYP) =  -650.841003961     A.U. after    8 cycles
 Optimization completed.
    -- Stationary point found.
 Normal termination of Gaussian 16 at Sun Feb 11 15:17:30 2024.

 ----------------------------------------------------------------------
 #P Geom=AllCheck Guess=TCheck SCRF=Check GenChk UB3LYP/6-311++G(d,p) F
 req
 ----------------------------------------------------------------------

 Structure from the checkpoint file:  "335.chk"
 --------
 Oxidized
 --------
 Charge =  0 Multiplicity = 1

                          Input orientation:
 ---------------------------------------------------------------------
 Center     Atomic      Atomic             Coordinates (Angstroms)
 Number     Number       Type             X           Y           Z
 ---------------------------------------------------------------------
      1          8           0        0.125317    0.408430    2.655036
      2          6           0        0.067801    0.221185    1.439271
      3          6           0       -1.207926    0.111281    0.711732
      4          6           0       -2.442780    0.217538    1.378215
      5          6           0       -3.633585    0.112357    0.683516
      6          6           0       -3.613835   -0.103346   -0.704496
      7          6           0       -2.413027   -0.211831   -1.386634
      8          6           0       -1.215035   -0.103643   -0.674367
      9          8           0       -0.066045   -0.218700   -1.402964
     10          6           0        1.146511   -0.123551   -0.782607
     11          6           0        2.272559   -0.251921   -1.600987
     12          6           0        3.532226   -0.164700   -1.031108
     13          6           0        3.682135    0.049767    0.349135
     14          6           0        2.561560    0.175117    1.149320
     15          6           0        1.269560    0.090592    0.598115
     16          1           0       -2.431333    0.383783    2.448258
     17          1           0       -4.579428    0.195545    1.204663
     18          1           0       -4.545426   -0.186377   -1.251897
     19          1           0       -2.379792   -0.377906   -2.456167
     20          1           0        2.139190   -0.416939   -2.662864
     21          1           0        4.408528   -0.263644   -1.660927
     22          1           0        4.672802    0.116118    0.781898
     23          1           0        2.650023    0.340845    2.215856
 ---------------------------------------------------------------------

 SCF Done:  E(UB3LYP) =  -650.841003961     A.U. after    1 cycles

 Alpha  occ. eigenvalues --  -19.20771 -19.11536 -10.27470 -10.26863 -10.26861
 Alpha  occ. eigenvalues --  -10.20305 -10.20302 -10.19964 -10.19963 -10.19684
 Alpha  occ. eigenvalues --  -10.19681 -10.19490 -10.19489 -10.18997 -10.18997
 Alpha  occ. eigenvalues --   -1.13024  -1.04763  -0.88986  -0.87782  -0.80345
 Alpha  occ. eigenvalues --   -0.79477  -0.77269  -0.75478  -0.67762  -0.67033
 Alpha  occ. eigenvalues --   -0.61981  -0.61978  -0.58319  -0.57113  -0.52410
 Alpha  occ. eigenvalues --   -0.50739  -0.49029  -0.48723  -0.48648  -0.45622
 Alpha  occ. eigenvalues --   -0.45433  -0.44788  -0.44559  -0.41698  -0.41474
 Alpha  occ. eigenvalues --   -0.40078  -0.39571  -0.37895  -0.37656  -0.35917
 Alpha  occ. eigenvalues --   -0.35696  -0.28428  -0.28102  -0.27690  -0.27430
 Alpha  occ. eigenvalues --   -0.24644
 Alpha virt. eigenvalues --   -0.08782  -0.03965  -0.02776  -0.01694  -0.00629
 Alpha virt. eigenvalues --    0.00157   0.00964   0.01728   0.02155   0.03394
 Alpha virt. eigenvalues --    0.03447   0.04172   0.04233   0.04265   0.06123

  Beta  occ. eigenvalues --  -19.20771 -19.11536 -10.27470 -10.26863 -10.26861
  Beta  occ. eigenvalues --  -10.20305 -10.20302 -10.19964 -10.19963 -10.19684
  Beta  occ. eigenvalues --  -10.19681 -10.19490 -10.19489 -10.18997 -10.18997
  Beta  occ. eigenvalues --   -1.13024  -1.04763  -0.88986  -0.87782  -0.80345
  Beta  occ. eigenvalues --   -0.79477  -0.77269  -0.75478  -0.67762  -0.67033
  Beta  occ. eigenvalues --   -0.61981  -0.61978  -0.58319  -0.57113  -0.52410
  Beta  occ. eigenvalues --   -0.50739  -0.49029  -0.48723  -0.48648  -0.45622
  Beta  occ. eigenvalues --   -0.45433  -0.44788  -0.44559  -0.41698  -0.41474
  Beta  occ. eigenvalues --   -0.40078  -0.39571  -0.37895  -0.37656  -0.35917
  Beta  occ. eigenvalues --   -0.35696  -0.28428  -0.28102  -0.27690  -0.27430
  Beta  occ. eigenvalues --   -0.24644
  Beta virt. eigenvalues --   -0.08782  -0.03965  -0.02776  -0.01694  -0.00629
  Beta virt. eigenvalues --    0.00157   0.00964   0.01728   0.02155   0.03394
  Beta virt. eigenvalues --    0.03447   0.04172   0.04233   0.04265   0.06123

 Mulliken charges and spin densities:
               1          2
     1  O   -0.356369  -0.000000
     2  C   -0.334477   0.000000
     3  C    1.175927   0.000000
     4  C    0.390604   0.000000
     5  C   -0.304763   0.000000
     6  C   -0.340026  -0.000000
     7  C   -0.368031  -0.000000
     8  C   -1.003541  -0.000000
     9  O   -0.035394   0.000000
    10  C   -1.003613  -0.000000
    11  C   -0.367856  -0.000000
    12  C   -0.339938   0.000000
    13  C   -0.304881   0.000000
    14  C    0.391418  -0.000000
    15  C    1.176122  -0.000000
    16  H    0.196037   0.000000
    17  H    0.198367  -0.000000
    18  H    0.206003   0.000000
    19  H    0.211996  -0.000000
    20  H    0.211961  -0.000000
    21  H    0.205980   0.000000
    22  H    0.198369  -0.000000
    23  H    0.196103  -0.000000
 Sum of Mulliken charges =  -0.00000  -0.00000

 Dipole moment (field-independent basis, Debye):
    X=             -0.2143    Y=             -0.6929    Z=             -4.5141  Tot=              4.5720
 Quadrupole moment (field-independent basis, Debye-Ang):
   XX=            -60.8680   YY=            -90.3283   ZZ=            -91.2201
   XY=             -0.2621   XZ=             -1.3921   YZ=             -0.1152

  Exact polarizability: 317.324  -0.832 108.620  -3.366  20.863 240.035
 Approx polarizability: 339.873  -0.498 127.335  -1.082  29.105 310.640

                      1                      2                      3
                      A                      A                      A
 Frequencies --     60.8786               116.1240               143.6102
 Red. masses --      6.1349                 3.8743                 6.1739
 Frc consts  --      0.0134                 0.0308                 0.0750
 IR Inten    --      6.3438                 0.0001                 0.7988

                      4                      5                      6
                      A                      A                      A
 Frequencies --    232.6858               242.1928               286.9926
 Red. masses --      4.7909                 4.9956                 6.6550
 Frc consts  --      0.1528                 0.1726                 0.3230
 IR Inten    --      4.3982                 0.0002                 0.6603

                      7                      8                      9
                      A                      A                      A
 Frequencies --    320.9536               383.8398               418.0831
 Red. masses --      8.0706                 6.9187                 3.5600
 Frc consts  --      0.4898                 0.6006                 0.3666
 IR Inten    --     19.3504                 8.1668                 0.9436

                     10                     11                     12
                      A                      A                      A
 Frequencies --    446.4680               459.3883               522.4605
 Red. masses --      6.7672                 3.2296                 3.4796
 Frc consts  --      0.7948                 0.4016                 0.5596
 IR Inten    --      3.6565                 0.0007                 0.0001

                     13                     14                     15
                      A                      A                      A
 Frequencies --    528.8399               547.3605               601.3103
 Red. masses --     10.9345                 3.5248                 7.9652
 Frc consts  --      1.8018                 0.6222                 1.6968
 IR Inten    --      0.4114                14.7018                 5.4315

                     16                     17                     18
                      A                      A                      A
 Frequencies --    639.7725               663.2747               685.4893
 Red. masses --      6.9657                 6.6327                 3.5209
 Frc consts  --      1.6798                 1.7192                 0.9748
 IR Inten    --     32.8894                 4.0433                44.6154

                     19                     20                     21
                      A                      A                      A
 Frequencies --    709.6004               732.2249               770.1262
 Red. masses --      6.2846                 4.0248                 1.6729
 Frc consts  --      1.8645                 1.2714                 0.5846
 IR Inten    --      0.0010                 0.0001               190.0944

                     22                     23                     24
                      A                      A                      A
 Frequencies --    777.1680               815.1764               848.1693
 Red. masses --      1.2842                 2.6126                 6.3985
 Frc consts  --      0.4570                 1.0229                 2.7120
 IR Inten    --      0.0081                18.4261                10.1671

                     25                     26                     27
                      A                      A                      A
 Frequencies --    878.4455               885.1034               893.1736
 Red. masses --      1.4101                 1.6566                 6.5819
 Frc consts  --      0.6411                 0.7646                 3.0937
 IR Inten    --      0.0007                 2.6432                18.4062

                     28                     29                     30
                      A                      A                      A
 Frequencies --    942.5438               984.6027               986.3016
 Red. masses --      6.9570                 1.3519                 1.3710
 Frc consts  --      3.6415                 0.7722                 0.7858
 IR Inten    --     67.2599                 0.0018                 4.4600

                     31                     32                     33
                      A                      A                      A
 Frequencies --   1008.1875              1008.2496              1044.3956
 Red. masses --      1.3074                 1.3074                 2.2112
 Frc consts  --      0.7830                 0.7831                 1.4210
 IR Inten    --      0.0008                 0.0004                 0.8560

                     34                     35                     36
                      A                      A                      A
 Frequencies --   1049.4213              1122.6169              1132.3528
 Red. masses --      1.8715                 1.8109                 1.8680
 Frc consts  --      1.2143                 1.3447                 1.4112
 IR Inten    --     17.0108                53.7531                12.6087

                     37                     38                     39
                      A                      A                      A
 Frequencies --   1166.0767              1169.7636              1198.3964
 Red. masses --      1.2612                 1.2034                 2.2214
 Frc consts  --      1.0104                 0.9702                 1.8797
 IR Inten    --     67.8044                 9.4967                 9.8972

                     40                     41                     42
                      A                      A                      A
 Frequencies --   1227.1926              1234.0968              1247.9625
 Red. masses --      3.0373                 1.8659                 3.4291
 Frc consts  --      2.6950                 1.6743                 3.1466
 IR Inten    --     62.2279                65.6889                76.9328

                     43                     44                     45
                      A                      A                      A
 Frequencies --   1299.0413              1345.3005              1360.2286
 Red. masses --      1.6117                 3.0083                 8.3947
 Frc consts  --      1.6025                 3.2078                 9.1512
 IR Inten    --     17.0097               295.0812                32.1229

                     46                     47                     48
                      A                      A                      A
 Frequencies --   1369.1167              1482.0510              1487.4800
 Red. masses --      4.9580                 2.5013                 2.5533
 Frc consts  --      5.4756                 3.2370                 3.3285
 IR Inten    --    202.7031               379.8228                 0.2317

                     49                     50                     51
                      A                      A                      A
 Frequencies --   1496.5741              1506.3622              1597.7646
 Red. masses --      2.8538                 2.5304                 6.2978
 Frc consts  --      3.7659                 3.3830                 9.4725
 IR Inten    --    182.2568                47.7279                 2.4006

                     52                     53                     54
                      A                      A                      A
 Frequencies --   1618.9236              1636.5921              1641.6153
 Red. masses --      7.0056                 6.0338                 7.6510
 Frc consts  --     10.8181                 9.5219                12.1482
 IR Inten    --      4.9778               304.4268               514.1102

                     55                     56                     57
                      A                      A                      A
 Frequencies --   1673.9111              3179.5367              3179.6184
 Red. masses --      9.8570                 1.0871                 1.0871
 Frc consts  --     16.2727                 6.4753                 6.4757
 IR Inten    --    432.5550                 1.8436                 4.7913

                     58                     59                     60
                      A                      A                      A
 Frequencies --   3190.3521              3190.8058              3199.7712
 Red. masses --      1.0898                 1.0899                 1.0937
 Frc consts  --      6.5353                 6.5376                 6.5974
 IR Inten    --      7.5111                 7.0647                 7.2814

                     61                     62                     63
                      A                      A                      A
 Frequencies --   3200.5637              3204.2440              3204.9886
 Red. masses --      1.0937                 1.0973                 1.0971
 Frc consts  --      6.6008                 6.6378                 6.6395
 IR Inten    --      9.0697                21.9877                 7.6162

 - Thermochemistry -
 -------------------
 Temperature   298.150 Kelvin.  Pressure   1.00000 Atm.
 Atom     1 has atomic number  8 and mass  15.99491

 Molecular mass:   196.05243 amu.
 Principal axes and moments of inertia in atomic units:
                           1         2         3
     Eigenvalues --  1234.325363888.830925123.15461
           X            0.99892   0.04643   0.00145
           Y           -0.00853   0.15275   0.98823
           Z           -0.04566   0.98717  -0.15298
 This molecule is an asymmetric top.
 Rotational symmetry number  1.
 Warning -- assumption of classical behavior for rotation
           may cause significant error
 Rotational temperatures (Kelvin)      0.07017     0.02227     0.01691
 Rotational constants (GHZ):           1.46213     0.46408     0.35227
 Zero-point vibrational energy     455752.8 (Joules/Mol)
                                  108.92753 (Kcal/Mol)
 Warning -- explicit consideration of  15 degrees of freedom as
           vibrations may cause significant error
 Vibrational temperatures:     87.59   167.08   206.62   334.78   348.46
          (Kelvin)            412.92   461.78   552.26   601.53   642.37
                              660.96   751.70   760.88   787.53   865.15
                              920.49   954.30   986.27  1020.96  1053.51
                             1108.04  1118.17  1172.86  1220.33  1263.89
                             1273.47  1285.08  1356.11  1416.62  1419.07
                             1450.56  1450.65  1502.65  1509.88  1615.20
                             1629.20  1677.72  1683.03  1724.23  1765.66
                             1775.59  1795.54  1869.03  1935.59  1957.07
                             1969.85  2132.34  2140.15  2153.24  2167.32
                             2298.83  2329.27  2354.69  2361.92  2408.38
                             4574.64  4574.76  4590.21  4590.86  4603.76
                             4604.90  4610.19  4611.26

 Zero-point correction=                           0.173587 (Hartree/Particle)
 Thermal correction to Energy=                    0.183884
 Thermal correction to Enthalpy=                  0.184828
 Thermal correction to Gibbs Free Energy=         0.137384
 Sum of electronic and zero-point Energies=           -650.667417
 Sum of electronic and thermal Energies=              -650.657120
 Sum of electronic and thermal Enthalpies=            -650.656175
 Sum of electronic and thermal Free Energies=         -650.703620

                     E (Thermal)             CV                S
                      KCal/Mol        Cal/Mol-Kelvin    Cal/Mol-Kelvin
 Total                  115.389             42.724             99.855
 Electronic               0.000              0.000              0.000
 Translational            0.889              2.981             41.725
 Rotational               0.889              2.981             31.575
 Vibrational            113.612             36.762             26.555
 Vibration     1          0.597              1.973              4.429
 Vibration     2          0.608              1.936              3.164
 Vibration     3          0.616              1.910              2.755
 Vibration     4          0.653              1.791              1.858
 Vibration     5          0.658              1.776              1.787
 Vibration     6          0.684              1.698              1.492
 Vibration     7          0.706              1.633              1.305
 Vibration     8          0.753              1.505              1.024
 Vibration     9          0.781              1.431              0.899
 Vibration    10          0.806              1.369              0.807
 Vibration    11          0.817              1.340              0.768
 Vibration    12          0.877              1.200              0.604
 Vibration    13          0.884              1.186              0.590
 Vibration    14          0.903              1.145              0.550
 Vibration    15          0.960              1.029              0.447

 Optimization completed.
    -- Stationary point found.
 Normal termination of Gaussian 16 at Sun Feb 11 16:06:12 2024.
