 Gaussian 16, Revision A.03,
 Gaussian 16:  ES64L-G16RevA.03 25-Dec-2016

 --------------------------------------
 #P UB3LYP/6-311++G(d,p) nosym opt freq
 --------------------------------------

 -------
 Radical
 -------
 Symbolic Z-matrix:
 Charge = -1 Multiplicity = 2

 SCF Done:  E(UB3LYP) =  -799.774590852     A.U. after   20 cycles
 Optimization completed.
    -- Stationary point found.
 Normal termination of Gaussian 16 at Wed Dec 27 19:53:18 2023.

 ----------------------------------------------------------------------
 #P Geom=AllCheck Guess=TCheck SCRF=Check GenChk UB3LYP/6-311++G(d,p) F
 req
 ----------------------------------------------------------------------

 Structure from the checkpoint file:  "166-rad.chk"
 -------
 Radical
 -------
 Charge = -1 Multiplicity = 2

                          Input orientation:
 ---------------------------------------------------------------------
 Center     Atomic      Atomic             Coordinates (Angstroms)
 Number     Number       Type             X           Y           Z
 ---------------------------------------------------------------------
      1          7           0       -2.046095    2.899457   -0.206054
      2          6           0       -2.058326    1.517953   -0.000221
      3          6           0       -3.281524    0.856032    0.092851
      4          6           0       -3.351978   -0.531179    0.205762
      5          6           0       -2.202312   -1.319113    0.230430
      6          7           0       -2.330418   -2.709505    0.250040
      7          6           0       -0.919864   -0.684069    0.187862
      8          6           0        0.291454   -1.487645    0.312556
      9          8           0        0.279138   -2.750988    0.452428
     10          6           0        1.570965   -0.786326    0.288649
     11          6           0        2.769874   -1.527404    0.389679
     12          6           0        3.999276   -0.900214    0.375738
     13          6           0        4.070704    0.506218    0.261612
     14          6           0        2.910832    1.247996    0.164443
     15          6           0        1.642606    0.624802    0.174130
     16          6           0        0.440378    1.445951    0.074356
     17          8           0        0.556335    2.710065    0.009274
     18          6           0       -0.846673    0.758727    0.070615
     19          1           0       -1.118717    3.301937   -0.057921
     20          1           0       -2.822824    3.393246    0.208191
     21          1           0       -4.197695    1.439016    0.042763
     22          1           0       -4.322558   -1.019356    0.243021
     23          1           0       -3.151011   -3.050459    0.728483
     24          1           0       -1.447273   -3.174900    0.467605
     25          1           0        2.683461   -2.603820    0.477570
     26          1           0        4.911000   -1.485620    0.451992
     27          1           0        5.037298    1.001498    0.250112
     28          1           0        2.933946    2.327700    0.077362
 ---------------------------------------------------------------------

 SCF Done:  E(UB3LYP) =  -799.774590852     A.U. after    2 cycles

 Alpha  occ. eigenvalues --  -18.94646 -18.94645 -14.18040 -14.18031 -10.09784
 Alpha  occ. eigenvalues --  -10.09783 -10.08547 -10.08537 -10.05686 -10.05639
 Alpha  occ. eigenvalues --  -10.04950 -10.04949 -10.04914 -10.04877 -10.04721
 Alpha  occ. eigenvalues --  -10.04698 -10.04676 -10.04644  -0.87392  -0.87111
 Alpha  occ. eigenvalues --   -0.79045  -0.78063  -0.73568  -0.69944  -0.65953
 Alpha  occ. eigenvalues --   -0.62885  -0.61770  -0.59253  -0.54138  -0.51544
 Alpha  occ. eigenvalues --   -0.50479  -0.46171  -0.43689  -0.42662  -0.41152
 Alpha  occ. eigenvalues --   -0.39038  -0.36637  -0.35572  -0.35104  -0.33992
 Alpha  occ. eigenvalues --   -0.32650  -0.31704  -0.30245  -0.29732  -0.28847
 Alpha  occ. eigenvalues --   -0.27920  -0.27163  -0.26265  -0.25650  -0.25343
 Alpha  occ. eigenvalues --   -0.24933  -0.22801  -0.22059  -0.21467  -0.21236
 Alpha  occ. eigenvalues --   -0.15079  -0.13833  -0.13380  -0.12513  -0.11669
 Alpha  occ. eigenvalues --   -0.10991  -0.06989  -0.00899
 Alpha virt. eigenvalues --    0.07598   0.08078   0.08365   0.09018   0.09821
 Alpha virt. eigenvalues --    0.10285   0.10791   0.12095   0.12641   0.12968
 Alpha virt. eigenvalues --    0.14117   0.15132   0.15641   0.15887   0.16019

  Beta  occ. eigenvalues --  -18.94134 -18.94133 -14.17993 -14.17984 -10.09625
  Beta  occ. eigenvalues --  -10.09624 -10.08521 -10.08512 -10.05636 -10.05588
  Beta  occ. eigenvalues --  -10.04961 -10.04959 -10.04898 -10.04860 -10.04632
  Beta  occ. eigenvalues --  -10.04586 -10.04581 -10.04527  -0.86533  -0.86221
  Beta  occ. eigenvalues --   -0.78888  -0.77936  -0.73366  -0.69765  -0.65557
  Beta  occ. eigenvalues --   -0.62701  -0.61590  -0.58985  -0.53482  -0.51373
  Beta  occ. eigenvalues --   -0.50225  -0.46085  -0.43511  -0.42426  -0.41066
  Beta  occ. eigenvalues --   -0.38963  -0.36512  -0.35475  -0.34803  -0.33887
  Beta  occ. eigenvalues --   -0.32520  -0.31569  -0.30217  -0.28855  -0.28688
  Beta  occ. eigenvalues --   -0.27388  -0.26982  -0.25861  -0.25511  -0.24673
  Beta  occ. eigenvalues --   -0.23764  -0.22653  -0.21361  -0.20886  -0.20279
  Beta  occ. eigenvalues --   -0.14320  -0.12768  -0.12060  -0.11988  -0.11212
  Beta  occ. eigenvalues --   -0.10523  -0.05947
  Beta virt. eigenvalues --    0.04482   0.08035   0.08356   0.08514   0.09060
  Beta virt. eigenvalues --    0.10275   0.10796   0.10846   0.12114   0.12647
  Beta virt. eigenvalues --    0.13275   0.14128   0.15169   0.15722   0.15918

 Mulliken charges and spin densities:
               1          2
     1  N   -0.377315   0.019574
     2  C   -0.159158   0.038551
     3  C   -0.285631   0.098474
     4  C   -0.285004   0.098662
     5  C   -0.157389   0.038332
     6  N   -0.377628   0.019611
     7  C    0.554349  -0.001822
     8  C   -0.475794   0.076294
     9  O   -0.380138   0.188522
    10  C    0.054013   0.036427
    11  C    0.126431   0.020210
    12  C   -0.442917   0.039519
    13  C   -0.442586   0.039447
    14  C    0.126244   0.020278
    15  C    0.054103   0.036437
    16  C   -0.476243   0.076367
    17  O   -0.380000   0.188622
    18  C    0.555781  -0.001740
    19  H    0.297398  -0.003263
    20  H    0.204063  -0.001417
    21  H    0.106894  -0.007170
    22  H    0.106673  -0.007190
    23  H    0.204187  -0.001419
    24  H    0.297578  -0.003266
    25  H    0.154843  -0.000638
    26  H    0.121199  -0.003383
    27  H    0.121195  -0.003378
    28  H    0.154851  -0.000643
 Sum of Mulliken charges =  -1.00000   1.00000

 Dipole moment (field-independent basis, Debye):
    X=             -1.6278    Y=              0.2121    Z=              0.6333  Tot=              1.7595
 Quadrupole moment (field-independent basis, Debye-Ang):
   XX=           -118.6670   YY=           -133.4012   ZZ=           -114.2832
   XY=             -1.1374   XZ=             -5.4003   YZ=              1.8504

  Exact polarizability: 354.531  -4.715 252.191   5.318 -12.264 105.147
 Approx polarizability: 551.226  -3.501 468.347   7.357 -24.897 168.153

                      1                      2                      3
                      A                      A                      A
 Frequencies --     50.3786                74.9863               127.0591
 Red. masses --      6.7703                 5.4478                 4.3263
 Frc consts  --      0.0101                 0.0180                 0.0412
 IR Inten    --      5.8243                 0.0554                 3.2122

                      4                      5                      6
                      A                      A                      A
 Frequencies --    134.0103               174.6312               219.9057
 Red. masses --      4.9556                 7.3335                 4.9522
 Frc consts  --      0.0524                 0.1318                 0.1411
 IR Inten    --      0.0316                 0.3847                 7.2624

                      7                      8                      9
                      A                      A                      A
 Frequencies --    248.9232               317.5098               324.9056
 Red. masses --      4.7324                 2.3850                 5.0783
 Frc consts  --      0.1728                 0.1417                 0.3159
 IR Inten    --      5.1629                62.9972                 3.0373

                     10                     11                     12
                      A                      A                      A
 Frequencies --    354.3263               383.5618               393.9798
 Red. masses --      5.1855                 5.3345                 1.4372
 Frc consts  --      0.3836                 0.4624                 0.1314
 IR Inten    --      3.8360                24.1425               121.5447

                     13                     14                     15
                      A                      A                      A
 Frequencies --    410.0044               412.5974               417.8996
 Red. masses --      4.9188                 2.9210                 2.7436
 Frc consts  --      0.4872                 0.2930                 0.2823
 IR Inten    --      6.5135                45.4793                58.3480

                     16                     17                     18
                      A                      A                      A
 Frequencies --    438.8000               447.0061               475.1305
 Red. masses --      3.9254                 5.0637                 4.0953
 Frc consts  --      0.4453                 0.5961                 0.5447
 IR Inten    --      5.1189                50.4044                11.0785

                     19                     20                     21
                      A                      A                      A
 Frequencies --    484.7675               498.3708               517.7840
 Red. masses --      3.7493                 4.5801                 7.4628
 Frc consts  --      0.5191                 0.6702                 1.1788
 IR Inten    --      0.5016                 0.5307                 0.8289

                     22                     23                     24
                      A                      A                      A
 Frequencies --    589.3748               598.0306               642.8485
 Red. masses --      2.8943                 5.1994                 4.8598
 Frc consts  --      0.5923                 1.0956                 1.1833
 IR Inten    --     53.8400                24.6813                 0.1567

                     25                     26                     27
                      A                      A                      A
 Frequencies --    661.7906               710.8286               714.9523
 Red. masses --      6.4284                 6.1837                 1.9133
 Frc consts  --      1.6588                 1.8409                 0.5762
 IR Inten    --      4.9487                 1.2450                 5.8824

                     28                     29                     30
                      A                      A                      A
 Frequencies --    726.1682               749.0914               765.7671
 Red. masses --      2.4227                 3.7625                 1.2239
 Frc consts  --      0.7527                 1.2439                 0.4229
 IR Inten    --    103.4447                61.7491               149.7990

                     31                     32                     33
                      A                      A                      A
 Frequencies --    780.8162               786.4323               801.1418
 Red. masses --      1.7215                 2.4503                 2.4025
 Frc consts  --      0.6184                 0.8929                 0.9085
 IR Inten    --     44.8712                39.0165                60.9098

                     34                     35                     36
                      A                      A                      A
 Frequencies --    803.8193               865.1554               868.4964
 Red. masses --      4.0931                 1.4660                 1.4044
 Frc consts  --      1.5582                 0.6465                 0.6241
 IR Inten    --     14.5807                 0.1199                 0.5888

                     37                     38                     39
                      A                      A                      A
 Frequencies --    871.7573               910.8489               965.2793
 Red. masses --      6.5598                 5.9967                 5.3979
 Frc consts  --      2.9372                 2.9313                 2.9634
 IR Inten    --     26.5311                 4.3144                19.0325

                     40                     41                     42
                      A                      A                      A
 Frequencies --    980.4831               981.3196              1030.7671
 Red. masses --      1.2521                 1.3622                 2.5646
 Frc consts  --      0.7092                 0.7729                 1.6055
 IR Inten    --      0.0011                 2.5122                31.0287

                     43                     44                     45
                      A                      A                      A
 Frequencies --   1054.5458              1110.2151              1146.2823
 Red. masses --      1.9814                 2.1325                 1.3694
 Frc consts  --      1.2983                 1.5486                 1.0601
 IR Inten    --      6.8780                27.2594                17.4329

                     46                     47                     48
                      A                      A                      A
 Frequencies --   1151.9708              1159.9920              1184.7214
 Red. masses --      1.4272                 2.2242                 1.2087
 Frc consts  --      1.1159                 1.7633                 0.9996
 IR Inten    --     56.3124                16.3981                59.3197

                     49                     50                     51
                      A                      A                      A
 Frequencies --   1208.4160              1231.3658              1252.7722
 Red. masses --      1.9917                 3.1490                 2.1091
 Frc consts  --      1.7136                 2.8132                 1.9502
 IR Inten    --      5.3448                 6.1109                85.8139

                     52                     53                     54
                      A                      A                      A
 Frequencies --   1271.7544              1299.3841              1343.6997
 Red. masses --      5.6314                 2.3881                 7.0975
 Frc consts  --      5.3663                 2.3757                 7.5503
 IR Inten    --      5.8882                 2.3442                21.3656

                     55                     56                     57
                      A                      A                      A
 Frequencies --   1368.0461              1372.8162              1417.8024
 Red. masses --     10.7355                 2.9030                 2.3888
 Frc consts  --     11.8378                 3.2234                 2.8292
 IR Inten    --      2.6184                 5.7902               351.0875

                     58                     59                     60
                      A                      A                      A
 Frequencies --   1427.5746              1474.1923              1479.6457
 Red. masses --      3.7531                 2.9016                 3.4981
 Frc consts  --      4.5065                 3.7153                 4.5123
 IR Inten    --     63.8070                13.2577                50.8879

                     61                     62                     63
                      A                      A                      A
 Frequencies --   1500.1478              1520.2449              1566.9515
 Red. masses --      2.8902                 5.3713                 3.4177
 Frc consts  --      3.8322                 7.3141                 4.9442
 IR Inten    --     15.7378               806.6575                75.3766

                     64                     65                     66
                      A                      A                      A
 Frequencies --   1592.4819              1604.0281              1613.5372
 Red. masses --      2.8117                 1.6458                 1.5922
 Frc consts  --      4.2012                 2.4948                 2.4423
 IR Inten    --    136.1659                 2.9177               159.0395

                     67                     68                     69
                      A                      A                      A
 Frequencies --   1622.8592              1632.3965              3122.3074
 Red. masses --      4.8204                 7.4091                 1.0846
 Frc consts  --      7.4799                11.6324                 6.2297
 IR Inten    --      0.2725                48.8438                40.2784

                     70                     71                     72
                      A                      A                      A
 Frequencies --   3132.9722              3143.1706              3152.4620
 Red. masses --      1.0847                 1.0933                 1.0916
 Frc consts  --      6.2732                 6.3639                 6.3915
 IR Inten    --     19.3600                65.5363                57.1688

                     73                     74                     75
                      A                      A                      A
 Frequencies --   3187.4024              3189.6263              3363.3182
 Red. masses --      1.0911                 1.0924                 1.0619
 Frc consts  --      6.5312                 6.5480                 7.0771
 IR Inten    --      8.6904                29.7080                 6.1028

                     76                     77                     78
                      A                      A                      A
 Frequencies --   3364.5212              3616.6586              3618.1013
 Red. masses --      1.0619                 1.0858                 1.0859
 Frc consts  --      7.0825                 8.3678                 8.3752
 IR Inten    --    160.9842                11.7276                14.9136

 - Thermochemistry -
 -------------------
 Temperature   298.150 Kelvin.  Pressure   1.00000 Atm.
 Atom     1 has atomic number  7 and mass  14.00307

 Molecular mass:   238.07423 amu.
 Principal axes and moments of inertia in atomic units:
                           1         2         3
     Eigenvalues --  2573.059354674.675817242.51731
           X            0.99837   0.05056  -0.02663
           Y           -0.04821   0.99544   0.08226
           Z            0.03067  -0.08084   0.99626
 This molecule is an asymmetric top.
 Rotational symmetry number  1.
 Warning -- assumption of classical behavior for rotation
           may cause significant error
 Rotational temperatures (Kelvin)      0.03366     0.01853     0.01196
 Rotational constants (GHZ):           0.70140     0.38607     0.24919
 Zero-point vibrational energy     551538.8 (Joules/Mol)
                                  131.82094 (Kcal/Mol)
 Warning -- explicit consideration of  23 degrees of freedom as
           vibrations may cause significant error
 Vibrational temperatures:     72.48   107.89   182.81   192.81   251.26
          (Kelvin)            316.40   358.14   456.83   467.47   509.80
                              551.86   566.85   589.90   593.64   601.26
                              631.34   643.14   683.61   697.47   717.04
                              744.98   847.98   860.43   924.92   952.17
                             1022.72  1028.66  1044.79  1077.78  1101.77
                             1123.42  1131.50  1152.66  1156.52  1244.77
                             1249.57  1254.26  1310.51  1388.82  1410.70
                             1411.90  1483.04  1517.26  1597.35  1649.24
                             1657.43  1668.97  1704.55  1738.64  1771.66
                             1802.46  1829.77  1869.52  1933.28  1968.31
                             1975.18  2039.90  2053.96  2121.03  2128.88
                             2158.38  2187.29  2254.49  2291.23  2307.84
                             2321.52  2334.93  2348.65  4492.30  4507.65
                             4522.32  4535.69  4585.96  4589.16  4839.06
                             4840.80  5203.56  5205.64

 Zero-point correction=                           0.210070 (Hartree/Particle)
 Thermal correction to Energy=                    0.223711
 Thermal correction to Enthalpy=                  0.224655
 Thermal correction to Gibbs Free Energy=         0.169690
 Sum of electronic and zero-point Energies=           -799.564521
 Sum of electronic and thermal Energies=              -799.550880
 Sum of electronic and thermal Enthalpies=            -799.549935
 Sum of electronic and thermal Free Energies=         -799.604900

                     E (Thermal)             CV                S
                      KCal/Mol        Cal/Mol-Kelvin    Cal/Mol-Kelvin
 Total                  140.381             56.815            115.683
 Electronic               0.000              0.000              1.377
 Translational            0.889              2.981             42.304
 Rotational               0.889              2.981             32.832
 Vibrational            138.603             50.853             39.170
 Vibration     1          0.595              1.977              4.802
 Vibration     2          0.599              1.966              4.018
 Vibration     3          0.611              1.926              2.990
 Vibration     4          0.613              1.919              2.888
 Vibration     5          0.627              1.874              2.385
 Vibration     6          0.647              1.811              1.960
 Vibration     7          0.662              1.765              1.738
 Vibration     8          0.704              1.640              1.323
 Vibration     9          0.709              1.626              1.285
 Vibration    10          0.730              1.566              1.147
 Vibration    11          0.753              1.505              1.025
 Vibration    12          0.761              1.483              0.985
 Vibration    13          0.774              1.449              0.927
 Vibration    14          0.776              1.443              0.917
 Vibration    15          0.781              1.431              0.899
 Vibration    16          0.799              1.386              0.830
 Vibration    17          0.806              1.367              0.805
 Vibration    18          0.832              1.305              0.723
 Vibration    19          0.841              1.284              0.697
 Vibration    20          0.854              1.254              0.662
 Vibration    21          0.873              1.211              0.615
 Vibration    22          0.947              1.054              0.468
 Vibration    23          0.956              1.036              0.453

                           ! Non-Optimized Parameters !
 Normal termination of Gaussian 16 at Wed Dec 27 21:12:14 2023.
