 Q-Chem 5.4, Q-Chem, Inc., Pleasanton, CA (2021)
 Q-Chem 5.4.0 for Intel X86 EM64T Linux

User input:
--------------------------------------------------------------
$molecule
-1 2
N                 -2.0460950000      2.8994570000     -0.2060540000
C                 -2.0583260000      1.5179530000     -0.0002210000
C                 -3.2815240000      0.8560320000      0.0928510000
C                 -3.3519780000     -0.5311790000      0.2057620000
C                 -2.2023120000     -1.3191130000      0.2304300000
N                 -2.3304180000     -2.7095050000      0.2500400000
C                 -0.9198640000     -0.6840690000      0.1878620000
C                  0.2914540000     -1.4876450000      0.3125560000
O                  0.2791380000     -2.7509880000      0.4524280000
C                  1.5709650000     -0.7863260000      0.2886490000
C                  2.7698740000     -1.5274040000      0.3896790000
C                  3.9992760000     -0.9002140000      0.3757380000
C                  4.0707040000      0.5062180000      0.2616120000
C                  2.9108320000      1.2479960000      0.1644430000
C                  1.6426060000      0.6248020000      0.1741300000
C                  0.4403780000      1.4459510000      0.0743560000
O                  0.5563350000      2.7100650000      0.0092740000
C                 -0.8466730000      0.7587270000      0.0706150000
H                 -1.1187170000      3.3019370000     -0.0579210000
H                 -2.8228240000      3.3932460000      0.2081910000
H                 -4.1976950000      1.4390160000      0.0427630000
H                 -4.3225580000     -1.0193560000      0.2430210000
H                 -3.1510110000     -3.0504590000      0.7284830000
H                 -1.4472730000     -3.1749000000      0.4676050000
H                  2.6834610000     -2.6038200000      0.4775700000
H                  4.9110000000     -1.4856200000      0.4519920000
H                  5.0372980000      1.0014980000      0.2501120000
H                  2.9339460000      2.3277000000      0.0773620000
$end
$rem
MAX_SCF_CYCLES=200
BASIS  =  6-311++G(d,p)
GUI  =  2
JOB_TYPE  =  SP
METHOD  =  B3LYP
SOLVENT_METHOD = COSMO
$end
$solvent
dielectric 37.219
opticaldielectric 1.43
$end

--------------------------------------------------------------

             Standard Nuclear Orientation (Angstroms)
    I     Atom           X                Y                Z
 ----------------------------------------------------------------
    1      N      -2.2330999902    -2.8174177508     0.1073482694
    2      C      -2.1725987372    -1.4249505251     0.0154529642
    3      C      -3.3591840980    -0.6966951052    -0.0529164685
    4      C      -3.3591931041     0.6968855142    -0.0531916091
    5      C      -2.1725214527     1.4251153074     0.0151616676
    6      N      -2.2326036468     2.8172353303     0.1066908146
    7      C      -0.9240363072     0.7247017270     0.0368745009
    8      C       0.3278049594     1.4734707674     0.0083675561
    9      O       0.3806203543     2.7429880689    -0.0275176928
   10      C       1.5706849009     0.7087407522     0.0059720421
   11      C       2.8064371746     1.3940109693    -0.0043962167
   12      C       4.0031580915     0.7064106175    -0.0118613610
   13      C       4.0031750117    -0.7064509004    -0.0119306544
   14      C       2.8064745416    -1.3940789790    -0.0045088868
   15      C       1.5706760824    -0.7088379099     0.0059137873
   16      C       0.3277724582    -1.4735451959     0.0083720142
   17      O       0.3805342264    -2.7430235459    -0.0277778432
   18      C      -0.9241074877    -0.7246995510     0.0369709484
   19      H      -1.3224241251    -3.2529659788    -0.0505463180
   20      H      -3.0206520590    -3.2362167024    -0.3649901824
   21      H      -4.3035413961    -1.2347648205    -0.0733793188
   22      H      -4.3035593771     1.2349085396    -0.0740271383
   23      H      -3.0217347138     3.2367837746    -0.3621177475
   24      H      -1.3221228509     3.2534573028    -0.0501761268
   25      H       2.7747445132     2.4769963829    -0.0056644706
   26      H       4.9439402913     1.2492309607    -0.0173783424
   27      H       4.9439540502    -1.2492611167    -0.0174405506
   28      H       2.7748322795    -2.4770725143    -0.0058708111
 ----------------------------------------------------------------

    9    -799.7745721257      9.96e-06  Convergence criterion met
 Total energy in the final basis set =     -799.7745721257
    4    -799.8601743798      6.94e-06  Convergence criterion met
 Total energy in the final basis set =     -799.8601743798

                    Orbital Energies (a.u.)
 --------------------------------------------------------------

 Alpha MOs
 -- Occupied --
-19.0771 -19.0771 -14.2976 -14.2976 -10.2263 -10.2263 -10.2066 -10.2065
-10.1727 -10.1724 -10.1712 -10.1708 -10.1705 -10.1701 -10.1680 -10.1680
-10.1636 -10.1631  -1.0052  -1.0027  -0.9100  -0.8992  -0.8569  -0.8201
 -0.7798  -0.7494  -0.7375  -0.7138  -0.6635  -0.6343  -0.6245  -0.5799
 -0.5588  -0.5442  -0.5297  -0.5072  -0.4841  -0.4741  -0.4709  -0.4579
 -0.4448  -0.4364  -0.4245  -0.4216  -0.4118  -0.4100  -0.3897  -0.3863
 -0.3847  -0.3705  -0.3700  -0.3469  -0.3444  -0.3367  -0.3354  -0.2762
 -0.2614  -0.2561  -0.2474  -0.2467  -0.2394  -0.1946  -0.1352

 Beta MOs
 -- Occupied --
-19.0725 -19.0725 -14.2969 -14.2969 -10.2244 -10.2244 -10.2061 -10.2060
-10.1728 -10.1724 -10.1708 -10.1703 -10.1698 -10.1693 -10.1680 -10.1680
-10.1624 -10.1619  -0.9973  -0.9945  -0.9081  -0.8976  -0.8549  -0.8183
 -0.7760  -0.7473  -0.7358  -0.7109  -0.6570  -0.6325  -0.6220  -0.5789
 -0.5568  -0.5419  -0.5287  -0.5064  -0.4827  -0.4711  -0.4698  -0.4569
 -0.4433  -0.4348  -0.4212  -0.4151  -0.4086  -0.4071  -0.3880  -0.3820
 -0.3691  -0.3679  -0.3673  -0.3455  -0.3350  -0.3329  -0.3280  -0.2666
 -0.2498  -0.2478  -0.2427  -0.2427  -0.2353  -0.1830

          Ground-State Mulliken Net Atomic Charges

     Atom                 Charge (a.u.)    Spin (a.u.)
  --------------------------------------------------------
      1 N                    -0.456416       0.029277
      2 C                    -0.141437       0.054900
      3 C                    -0.336362       0.093350
      4 C                    -0.335562       0.093715
      5 C                    -0.138767       0.054478
      6 N                    -0.456138       0.029372
      7 C                     0.526141      -0.015329
      8 C                    -0.302266       0.100370
      9 O                    -0.500129       0.163568
     10 C                    -0.055352       0.024933
     11 C                     0.098894       0.027904
     12 C                    -0.499472       0.035441
     13 C                    -0.499088       0.035259
     14 C                     0.098202       0.028069
     15 C                    -0.055815       0.024825
     16 C                    -0.302942       0.100646
     17 O                    -0.500168       0.163712
     18 C                     0.529505      -0.015238
     19 H                     0.318724      -0.002897
     20 H                     0.274940      -0.000984
     21 H                     0.193474      -0.006875
     22 H                     0.192932      -0.006904
     23 H                     0.275120      -0.000993
     24 H                     0.318772      -0.002899
     25 H                     0.176244      -0.000860
     26 H                     0.200303      -0.002990
     27 H                     0.200362      -0.002980
     28 H                     0.176301      -0.000870
  --------------------------------------------------------
  Sum of atomic charges =    -1.000000

                    Cartesian Multipole Moments
 -----------------------------------------------------------------
    Charge (ESU x 10^10)
                -4.8032
    Dipole Moment (Debye)
         X      -2.2467      Y       0.0166      Z      -2.3172
       Tot       3.2276
    Quadrupole Moments (Debye-Ang)
        XX     -98.2912     XY      -0.0431     YY    -133.7505
        XZ       6.7949     YZ       0.0302     ZZ    -114.3522

 Total job time:  78.09s(wall), 582.13s(cpu)
        *  Thank you very much for using Q-Chem.  Have a nice day.  *
