 Q-Chem 5.4, Q-Chem, Inc., Pleasanton, CA (2021)
 Q-Chem 5.4.0 for Intel X86 EM64T Linux

User input:
--------------------------------------------------------------
$molecule
0 1
C                  0.2640470000      0.7400240000     -0.5544590000
C                 -0.7005280000     -0.1266280000     -1.2817150000
C                 -1.1548400000     -1.2761130000     -0.7680940000
C                 -0.7066220000     -1.7371020000      0.5667170000
C                  0.2600320000     -0.8769590000      1.2942970000
C                  0.7416740000      0.2719880000      0.7846820000
O                  0.6171770000      1.8005380000     -1.0429610000
O                 -1.1107800000     -2.7795620000      1.0531120000
C                  1.7552940000      1.0522110000      1.6098070000
C                  2.7884430000      1.8973200000      0.9102360000
O                  1.7285110000      0.9368670000      2.8167870000
H                 -1.0151320000      0.2471750000     -2.2498900000
H                 -1.8625900000     -1.9132600000     -1.2865690000
H                  0.5731550000     -1.2223500000      2.2736510000
H                  2.3127240000      2.7785090000      0.4743000000
H                  3.2467110000      1.3527820000      0.0800860000
H                  3.5453840000      2.1951290000      1.6346240000
$end
$rem
MAX_SCF_CYCLES=200
BASIS  =  6-311++G(d,p)
GUI  =  2
JOB_TYPE  =  SP
METHOD  =  B3LYP
SOLVENT_METHOD = COSMO
$end
$solvent
dielectric 37.219
opticaldielectric 1.43
$end

--------------------------------------------------------------

             Standard Nuclear Orientation (Angstroms)
    I     Atom           X                Y                Z
 ----------------------------------------------------------------
    1      C       0.1057228200    -1.2735426428    -0.1121127062
    2      C      -1.3260382366    -1.6704157720    -0.0578549389
    3      C      -2.3129962670    -0.7707377176     0.0316712306
    4      C      -2.0120739167     0.6791304002     0.0812577147
    5      C      -0.5834686067     1.0794993799     0.0319612568
    6      C       0.4221646621     0.1876099751    -0.0387543096
    7      O       0.9690270766    -2.1261967232    -0.2374591249
    8      O      -2.8968380434     1.5143768367     0.1600134577
    9      C       1.8494080503     0.7166492121    -0.0486788405
   10      C       2.9571970472    -0.1263810184     0.5284773176
   11      O       2.0494964474     1.8296950990    -0.4867607676
   12      H      -1.5094347859    -2.7381010899    -0.1076641549
   13      H      -3.3606665153    -1.0480151136     0.0661238682
   14      H      -0.3781536091     2.1441571730     0.0606796960
   15      H       3.1587503081    -0.9742847261    -0.1297615465
   16      H       2.6684010880    -0.5489525352     1.4947642434
   17      H       3.8481263539     0.4913236931     0.6337090253
 ----------------------------------------------------------------

    9    -534.2457652301      8.95e-06  Convergence criterion met
 Total energy in the final basis set =     -534.2457652301
    5    -534.2630002317      7.21e-06  Convergence criterion met
 Total energy in the final basis set =     -534.2630002317

                    Orbital Energies (a.u.)
 --------------------------------------------------------------

 Alpha MOs
 -- Occupied --
-19.1535 -19.1523 -19.1397 -10.3002 -10.2969 -10.2922 -10.2295 -10.2255
-10.2173 -10.2158 -10.1754  -1.0851  -1.0826  -1.0758  -0.8746  -0.8104
 -0.7587  -0.7185  -0.6590  -0.6284  -0.5647  -0.5345  -0.5175  -0.4982
 -0.4828  -0.4703  -0.4595  -0.4547  -0.4485  -0.4383  -0.4298  -0.4169
 -0.4021  -0.3822  -0.3222  -0.3112  -0.3016  -0.2986  -0.2778

          Ground-State Mulliken Net Atomic Charges

     Atom                 Charge (a.u.)
  ----------------------------------------
      1 C                    -1.455760
      2 C                     0.285185
      3 C                     0.059953
      4 C                    -0.338713
      5 C                    -0.318240
      6 C                     1.631499
      7 O                    -0.260314
      8 O                    -0.298610
      9 C                     0.248926
     10 C                    -0.647186
     11 O                    -0.314881
     12 H                     0.269054
     13 H                     0.269399
     14 H                     0.266690
     15 H                     0.219065
     16 H                     0.194857
     17 H                     0.189077
  ----------------------------------------
  Sum of atomic charges =     0.000000

                    Cartesian Multipole Moments
 -----------------------------------------------------------------
    Charge (ESU x 10^10)
                 0.0000
    Dipole Moment (Debye)
         X      -0.6825      Y      -3.6058      Z       1.5735
       Tot       3.9929
    Quadrupole Moments (Debye-Ang)
        XX     -68.0010     XY       7.4011     YY     -74.0924
        XZ       4.4978     YZ       1.2126     ZZ     -62.2447

 Total job time:  109.26s(wall), 127.11s(cpu)
        *  Thank you very much for using Q-Chem.  Have a nice day.  *
