 Q-Chem 5.4, Q-Chem, Inc., Pleasanton, CA (2021)
 Q-Chem 5.4.0 for Intel X86 EM64T Linux

User input:
--------------------------------------------------------------
$molecule
-2 1
C                 -4.5661430000      0.2297230000      0.0311060000
C                 -3.1136780000     -0.1830270000     -0.0011990000
C                 -2.7691650000     -1.5614240000     -0.1480530000
C                 -1.4472020000     -1.9519060000     -0.1707140000
C                 -0.3795620000     -1.0256430000     -0.0643420000
C                  0.9867290000     -1.5065460000     -0.1169520000
O                  1.2829480000     -2.7466330000     -0.2606260000
C                  1.9946640000     -0.4724140000      0.0132300000
C                  3.3656050000     -0.8320810000     -0.0209290000
C                  4.3767070000      0.1004960000      0.0932620000
C                  4.0472050000      1.4768640000      0.2500370000
C                  2.7221230000      1.8602570000      0.2892590000
C                  1.6587060000      0.9281190000      0.1792990000
C                  0.2906090000      1.4068080000      0.2273900000
O                 -0.0009770000      2.6489970000      0.3664090000
C                 -0.7152050000      0.3720040000      0.1011880000
C                 -2.0895540000      0.7325610000      0.1295530000
H                 -5.1224300000     -0.2593320000      0.8512360000
H                 -5.0916510000     -0.0395490000     -0.8932560000
H                 -4.6707760000      1.3108690000      0.1661620000
H                 -3.5609770000     -2.3032220000     -0.2468840000
H                 -1.1716790000     -2.9960350000     -0.2842040000
H                  3.5826880000     -1.8890540000     -0.1428760000
H                  5.4192920000     -0.2119730000      0.0631120000
H                  4.8373010000      2.2208210000      0.3391330000
H                  2.4379430000      2.9014850000      0.4081510000
H                 -2.3035220000      1.7898350000      0.2589930000
$end

$rem
BASIS  =  6-311++G(d,p)
GUI  =  2
JOB_TYPE  =  SP
METHOD  =  B3LYP
SCF_CONVERGENCE  = 8
SOLVENT_METHOD = sm12
$end

$smx
solvent dimethylformamide
charges CM5
$end

--------------------------------------------------------------

             Standard Nuclear Orientation (Angstroms)
    I     Atom           X                Y                Z
 ----------------------------------------------------------------
    1      C      -4.5661430000     0.2297230000     0.0311060000
    2      C      -3.1136780000    -0.1830270000    -0.0011990000
    3      C      -2.7691650000    -1.5614240000    -0.1480530000
    4      C      -1.4472020000    -1.9519060000    -0.1707140000
    5      C      -0.3795620000    -1.0256430000    -0.0643420000
    6      C       0.9867290000    -1.5065460000    -0.1169520000
    7      O       1.2829480000    -2.7466330000    -0.2606260000
    8      C       1.9946640000    -0.4724140000     0.0132300000
    9      C       3.3656050000    -0.8320810000    -0.0209290000
   10      C       4.3767070000     0.1004960000     0.0932620000
   11      C       4.0472050000     1.4768640000     0.2500370000
   12      C       2.7221230000     1.8602570000     0.2892590000
   13      C       1.6587060000     0.9281190000     0.1792990000
   14      C       0.2906090000     1.4068080000     0.2273900000
   15      O      -0.0009770000     2.6489970000     0.3664090000
   16      C      -0.7152050000     0.3720040000     0.1011880000
   17      C      -2.0895540000     0.7325610000     0.1295530000
   18      H      -5.1224300000    -0.2593320000     0.8512360000
   19      H      -5.0916510000    -0.0395490000    -0.8932560000
   20      H      -4.6707760000     1.3108690000     0.1661620000
   21      H      -3.5609770000    -2.3032220000    -0.2468840000
   22      H      -1.1716790000    -2.9960350000    -0.2842040000
   23      H       3.5826880000    -1.8890540000    -0.1428760000
   24      H       5.4192920000    -0.2119730000     0.0631120000
   25      H       4.8373010000     2.2208210000     0.3391330000
   26      H       2.4379430000     2.9014850000     0.4081510000
   27      H      -2.3035220000     1.7898350000     0.2589930000
 ----------------------------------------------------------------

   18    -728.2406011533      2.37e-09  Convergence criterion met
 Total energy in the final basis set =     -728.5295398439

                    Orbital Energies (a.u.)
 --------------------------------------------------------------

 Alpha MOs
 -- Occupied --
-19.0322 -19.0292 -10.1905 -10.1878 -10.1773 -10.1765 -10.1749 -10.1742
-10.1707 -10.1705 -10.1701 -10.1697 -10.1636 -10.1550 -10.1546 -10.1540
-10.1536  -0.9505  -0.9466  -0.8482  -0.8441  -0.7809  -0.7532  -0.7443
 -0.7334  -0.6915  -0.6488  -0.6255  -0.5988  -0.5803  -0.5456  -0.5249
 -0.5090  -0.4641  -0.4562  -0.4497  -0.4390  -0.4226  -0.4215  -0.4191
 -0.4029  -0.3946  -0.3859  -0.3800  -0.3732  -0.3656  -0.3545  -0.3385
 -0.3362  -0.3337  -0.3155  -0.3133  -0.2554  -0.2424  -0.2372  -0.2315
 -0.2103  -0.2034  -0.1183

          Ground-State Mulliken Net Atomic Charges

     Atom                 Charge (a.u.)
  ----------------------------------------
      1 C                     3.280924
      2 C                     3.322332
      3 C                     1.599573
      4 C                     0.019128
      5 C                    -2.196986
      6 C                    -3.220776
      7 O                    -0.298511
      8 C                    -1.740611
      9 C                    -0.233469
     10 C                     1.725097
     11 C                     1.594693
     12 C                    -0.230925
     13 C                    -1.562262
     14 C                    -2.838288
     15 O                    -0.320951
     16 C                    -2.872730
     17 C                    -0.459896
     18 H                     0.273869
     19 H                     0.278874
     20 H                     0.427347
     21 H                     0.316616
     22 H                     0.162802
     23 H                     0.119843
     24 H                     0.412714
     25 H                     0.404463
     26 H                     0.118385
     27 H                    -0.081257
  ----------------------------------------
  Sum of atomic charges =    -2.000000

                    Cartesian Multipole Moments
 -----------------------------------------------------------------
    Charge (ESU x 10^10)
                -9.6064
    Dipole Moment (Debye)
         X      -7.0252      Y       0.3382      Z      -0.5513
       Tot       7.0549
    Quadrupole Moments (Debye-Ang)
        XX    -145.2800     XY       4.3536     YY    -159.3754
        XZ      -0.0162     YZ      -5.2269     ZZ    -114.8842

 Total job time:  690.25s(wall), 5235.44s(cpu)
        *  Thank you very much for using Q-Chem.  Have a nice day.  *
