 Q-Chem 5.4, Q-Chem, Inc., Pleasanton, CA (2021)
 Q-Chem 5.4.0 for Intel X86 EM64T Linux

User input:
--------------------------------------------------------------
$molecule
-2 1
C                  5.0647390000     -2.2622240000      0.6670290000
C                  5.8839250000     -1.4354870000     -0.0745640000
C                  5.3105280000     -0.5478580000     -1.0264250000
C                  3.6555720000     -2.2612800000      0.5163560000
C                  3.0728350000     -1.3594660000     -0.4521850000
C                  3.9413280000     -0.5239210000     -1.1976490000
C                  2.8557210000     -3.1614880000      1.3287750000
C                  1.4242180000     -3.0818030000      1.0977750000
C                  0.8442840000     -2.1813010000      0.1296080000
C                  1.6418130000     -1.2837170000     -0.6858030000
C                  0.5549950000     -3.9205180000      1.8412220000
C                 -0.5635770000     -2.1950730000     -0.0262120000
C                 -1.3762210000     -3.0319880000      0.7084000000
O                  3.3751220000     -3.9621170000      2.1787600000
O                  1.1262780000     -0.4879410000     -1.5435110000
H                  5.4715010000     -2.9509120000      1.4009840000
H                  6.9626900000     -1.4608810000      0.0672780000
H                  5.9491170000      0.1079140000     -1.6152110000
H                 -2.4529240000     -3.0263890000      0.5461960000
H                  3.4728370000      0.1416220000     -1.9160420000
H                  1.0274020000     -4.5841590000      2.5603010000
H                 -0.9771460000     -1.5176350000     -0.7666190000
C                 -0.8162730000     -3.9234640000      1.6719330000
C                 -1.7221610000     -4.8187950000      2.4944610000
C                 -2.3819780000     -4.0692360000      3.6503280000
O                 -3.3131890000     -4.9400670000      4.3196710000
H                 -1.1544270000     -5.6614440000      2.9020350000
H                 -2.5183760000     -5.2404370000      1.8672260000
H                 -2.9037320000     -3.1843140000      3.2645760000
H                 -1.6109730000     -3.7238620000      4.3517260000
H                 -3.7661580000     -4.4373190000      5.0140040000
$end
$rem
MAX_SCF_CYCLES=200
BASIS  =  6-311++G(d,p)
GUI  =  2
JOB_TYPE  =  SP
METHOD  =  B3LYP
SOLVENT_METHOD = PCM
$end
$pcm
theory = CPCM
$end
$solvent
dielectric 37.219
opticaldielectric 1.43
$end

--------------------------------------------------------------

             Standard Nuclear Orientation (Angstroms)
    I     Atom           X                Y                Z
 ----------------------------------------------------------------
    1      C       5.0647390000    -2.2622240000     0.6670290000
    2      C       5.8839250000    -1.4354870000    -0.0745640000
    3      C       5.3105280000    -0.5478580000    -1.0264250000
    4      C       3.6555720000    -2.2612800000     0.5163560000
    5      C       3.0728350000    -1.3594660000    -0.4521850000
    6      C       3.9413280000    -0.5239210000    -1.1976490000
    7      C       2.8557210000    -3.1614880000     1.3287750000
    8      C       1.4242180000    -3.0818030000     1.0977750000
    9      C       0.8442840000    -2.1813010000     0.1296080000
   10      C       1.6418130000    -1.2837170000    -0.6858030000
   11      C       0.5549950000    -3.9205180000     1.8412220000
   12      C      -0.5635770000    -2.1950730000    -0.0262120000
   13      C      -1.3762210000    -3.0319880000     0.7084000000
   14      O       3.3751220000    -3.9621170000     2.1787600000
   15      O       1.1262780000    -0.4879410000    -1.5435110000
   16      H       5.4715010000    -2.9509120000     1.4009840000
   17      H       6.9626900000    -1.4608810000     0.0672780000
   18      H       5.9491170000     0.1079140000    -1.6152110000
   19      H      -2.4529240000    -3.0263890000     0.5461960000
   20      H       3.4728370000     0.1416220000    -1.9160420000
   21      H       1.0274020000    -4.5841590000     2.5603010000
   22      H      -0.9771460000    -1.5176350000    -0.7666190000
   23      C      -0.8162730000    -3.9234640000     1.6719330000
   24      C      -1.7221610000    -4.8187950000     2.4944610000
   25      C      -2.3819780000    -4.0692360000     3.6503280000
   26      O      -3.3131890000    -4.9400670000     4.3196710000
   27      H      -1.1544270000    -5.6614440000     2.9020350000
   28      H      -2.5183760000    -5.2404370000     1.8672260000
   29      H      -2.9037320000    -3.1843140000     3.2645760000
   30      H      -1.6109730000    -3.7238620000     4.3517260000
   31      H      -3.7661580000    -4.4373190000     5.0140040000
 ----------------------------------------------------------------

    9    -843.0919338173      4.52e-06  Convergence criterion met
 Total energy in the final basis set =     -843.0919338173

                    Orbital Energies (a.u.)
 --------------------------------------------------------------

 Alpha MOs
 -- Occupied --
-19.1221 -19.0235 -19.0228 -10.2083 -10.1751 -10.1743 -10.1596 -10.1570
-10.1485 -10.1480 -10.1472 -10.1462 -10.1460 -10.1458 -10.1436 -10.1358
-10.1356 -10.1354 -10.1349  -1.0156  -0.9460  -0.9429  -0.8318  -0.8232
 -0.7723  -0.7402  -0.7230  -0.7181  -0.6969  -0.6359  -0.6173  -0.5997
 -0.5732  -0.5590  -0.5255  -0.5146  -0.5027  -0.4828  -0.4644  -0.4380
 -0.4320  -0.4269  -0.4145  -0.4106  -0.3989  -0.3967  -0.3810  -0.3778
 -0.3716  -0.3664  -0.3507  -0.3480  -0.3409  -0.3315  -0.3292  -0.3164
 -0.3137  -0.3001  -0.2993  -0.2778  -0.2348  -0.2268  -0.2256  -0.2141
 -0.2066  -0.1983  -0.1050

          Ground-State Mulliken Net Atomic Charges

     Atom                 Charge (a.u.)
  ----------------------------------------
      1 C                    -0.031938
      2 C                    -0.530381
      3 C                    -0.544745
      4 C                     0.331387
      5 C                     0.169819
      6 C                     0.011856
      7 C                    -0.532901
      8 C                     0.180161
      9 C                     0.101841
     10 C                    -0.584581
     11 C                    -0.378845
     12 C                     0.009764
     13 C                    -0.542065
     14 O                    -0.676002
     15 O                    -0.677936
     16 H                     0.141893
     17 H                     0.172357
     18 H                     0.170650
     19 H                     0.176851
     20 H                     0.145111
     21 H                     0.143213
     22 H                     0.151479
     23 C                     0.548356
     24 C                    -0.014821
     25 C                    -0.529587
     26 O                    -0.377328
     27 H                     0.167951
     28 H                     0.168770
     29 H                     0.167388
     30 H                     0.167237
     31 H                     0.295036
  ----------------------------------------
  Sum of atomic charges =    -2.000007

                    Cartesian Multipole Moments
 -----------------------------------------------------------------
    Charge (ESU x 10^10)
                -9.6064
    Dipole Moment (Debye)
         X     -21.4331      Y      23.4322      Z      -2.6579
       Tot      31.8671
    Quadrupole Moments (Debye-Ang)
        XX    -191.6883     XY      48.7539     YY    -212.1695
        XZ     -19.0385     YZ      36.0636     ZZ    -142.9583

 Total job time:  102.44s(wall), 441.58s(cpu)
        *  Thank you very much for using Q-Chem.  Have a nice day.  *
