 Gaussian 16, Revision A.03,
 Gaussian 16:  ES64L-G16RevA.03 25-Dec-2016

 ----------------------------------------------------------------
 #P UB3LYP/6-311++G(d,p) SCRF=(PCM,Solvent=n,n-DiMethylFormamide)
 ----------------------------------------------------------------

 -------
 Reduced
 -------
 Symbolic Z-matrix:
 Charge = -2 Multiplicity = 1

                         Standard orientation:
 ---------------------------------------------------------------------
 Center     Atomic      Atomic             Coordinates (Angstroms)
 Number     Number       Type             X           Y           Z
 ---------------------------------------------------------------------
      1          6           0        3.281929   -1.751826    0.058788
      2          6           0        4.586027   -1.323393    0.201246
      3          6           0        4.862908    0.068881    0.288530
      4          6           0        2.192723   -0.847313   -0.003990
      5          6           0        2.474514    0.568250    0.083755
      6          6           0        3.824014    0.975412    0.229361
      7          6           0        0.846084   -1.369780   -0.158106
      8          6           0       -0.196956   -0.360740   -0.211177
      9          6           0        0.086469    1.052303   -0.124267
     10          6           0        1.431489    1.576665    0.025974
     11          6           0       -1.547398   -0.767823   -0.360493
     12          6           0       -1.005071    1.951797   -0.201678
     13          6           0       -2.304698    1.518844   -0.356573
     14          8           0        0.601825   -2.621377   -0.242371
     15          8           0        1.680374    2.828485    0.101482
     16          1           0        3.037840   -2.807283   -0.010967
     17          1           0        5.399085   -2.045415    0.247275
     18          1           0        5.888393    0.415485    0.401437
     19          1           0       -3.114885    2.242520   -0.430882
     20          1           0        4.002048    2.044435    0.292708
     21          1           0       -1.721794   -1.838552   -0.422030
     22          1           0       -0.768081    3.009499   -0.144536
     23          6           0       -2.599066    0.124852   -0.439042
     24          6           0       -4.035028   -0.340778   -0.580480
     25          6           0       -4.785206   -0.315615    0.749868
     26          8           0       -6.166893   -0.656341    0.529943
     27          1           0       -4.066048   -1.359189   -0.980946
     28          1           0       -4.579009    0.299621   -1.286977
     29          1           0       -4.709764    0.684212    1.195707
     30          1           0       -4.322747   -1.028079    1.445726
     31          1           0       -6.643886   -0.581818    1.370751
 ---------------------------------------------------------------------

 SCF Done:  E(UB3LYP) =  -843.082484893     A.U. after   17 cycles

 The electronic state is 1-A.
 Alpha  occ. eigenvalues --  -19.12489 -19.01805 -19.01733 -10.21129 -10.17108
 Alpha  occ. eigenvalues --  -10.17037 -10.16163 -10.15560 -10.14716 -10.14669
 Alpha  occ. eigenvalues --  -10.14599 -10.14446 -10.14406 -10.14386 -10.14188
 Alpha  occ. eigenvalues --  -10.13264 -10.13248 -10.13224 -10.13185  -1.01857
 Alpha  occ. eigenvalues --   -0.94044  -0.93722  -0.82983  -0.82099  -0.77174
 Alpha  occ. eigenvalues --   -0.73863  -0.72053  -0.71618  -0.69581  -0.63381
 Alpha  occ. eigenvalues --   -0.61669  -0.59852  -0.57207  -0.55719  -0.52326
 Alpha  occ. eigenvalues --   -0.51633  -0.50107  -0.48146  -0.46608  -0.43542
 Alpha  occ. eigenvalues --   -0.43061  -0.42546  -0.41310  -0.41200  -0.39676
 Alpha  occ. eigenvalues --   -0.39480  -0.37764  -0.37599  -0.36677  -0.36303
 Alpha  occ. eigenvalues --   -0.35036  -0.34741  -0.34090  -0.33072  -0.32438
 Alpha  occ. eigenvalues --   -0.31470  -0.31138  -0.29724  -0.29629  -0.28007
 Alpha  occ. eigenvalues --   -0.23249  -0.22330  -0.22173  -0.21176  -0.20050
 Alpha  occ. eigenvalues --   -0.19257  -0.10083
 Alpha virt. eigenvalues --   -0.02493  -0.00234   0.00256   0.00417   0.01221
 Alpha virt. eigenvalues --    0.01543   0.02036   0.02367   0.02471   0.03321
 Alpha virt. eigenvalues --    0.04242   0.04802   0.05057   0.05563   0.05674

  Beta  occ. eigenvalues --  -19.12489 -19.01805 -19.01733 -10.21129 -10.17108
  Beta  occ. eigenvalues --  -10.17037 -10.16163 -10.15560 -10.14716 -10.14669
  Beta  occ. eigenvalues --  -10.14599 -10.14446 -10.14406 -10.14386 -10.14188
  Beta  occ. eigenvalues --  -10.13264 -10.13248 -10.13224 -10.13185  -1.01857
  Beta  occ. eigenvalues --   -0.94044  -0.93722  -0.82983  -0.82099  -0.77174
  Beta  occ. eigenvalues --   -0.73863  -0.72053  -0.71618  -0.69581  -0.63381
  Beta  occ. eigenvalues --   -0.61669  -0.59852  -0.57207  -0.55719  -0.52326
  Beta  occ. eigenvalues --   -0.51633  -0.50107  -0.48146  -0.46608  -0.43542
  Beta  occ. eigenvalues --   -0.43061  -0.42546  -0.41310  -0.41200  -0.39676
  Beta  occ. eigenvalues --   -0.39480  -0.37764  -0.37599  -0.36677  -0.36303
  Beta  occ. eigenvalues --   -0.35036  -0.34741  -0.34090  -0.33072  -0.32438
  Beta  occ. eigenvalues --   -0.31470  -0.31138  -0.29724  -0.29629  -0.28007
  Beta  occ. eigenvalues --   -0.23249  -0.22330  -0.22173  -0.21176  -0.20050
  Beta  occ. eigenvalues --   -0.19257  -0.10083
  Beta virt. eigenvalues --   -0.02493  -0.00234   0.00256   0.00417   0.01221
  Beta virt. eigenvalues --    0.01543   0.02036   0.02367   0.02471   0.03321
  Beta virt. eigenvalues --    0.04242   0.04802   0.05057   0.05563   0.05674

 Mulliken charges and spin densities:
               1          2
     1  C   -0.031896   0.000000
     2  C   -0.504920   0.000000
     3  C   -0.503723   0.000000
     4  C    0.357266  -0.000000
     5  C    0.192746  -0.000000
     6  C    0.015001   0.000000
     7  C   -0.614460  -0.000000
     8  C    0.189442   0.000000
     9  C    0.087412  -0.000000
    10  C   -0.703212   0.000000
    11  C   -0.359880   0.000000
    12  C    0.017114  -0.000000
    13  C   -0.537261   0.000000
    14  O   -0.646886   0.000000
    15  O   -0.648970  -0.000000
    16  H    0.139915  -0.000000
    17  H    0.155429  -0.000000
    18  H    0.154219  -0.000000
    19  H    0.158946   0.000000
    20  H    0.143808  -0.000000
    21  H    0.141544  -0.000000
    22  H    0.150816   0.000000
    23  C    0.584386  -0.000000
    24  C    0.029017  -0.000000
    25  C   -0.531088  -0.000000
    26  O   -0.355422  -0.000000
    27  H    0.160441  -0.000000
    28  H    0.160529  -0.000000
    29  H    0.159716  -0.000000
    30  H    0.161218   0.000000
    31  H    0.278752   0.000000
 Sum of Mulliken charges =  -2.00000  -0.00000

 Dipole moment (field-independent basis, Debye):
    X=            -10.0917    Y=             -0.3221    Z=              2.4086  Tot=             10.3802
 Quadrupole moment (field-independent basis, Debye-Ang):
   XX=           -162.1667   YY=           -172.7836   ZZ=           -121.2077
   XY=            -12.0133   XZ=            -12.4963   YZ=             -3.4719

 Normal termination of Gaussian 16 at Tue Jan 16 06:33:59 2024.
