 Q-Chem 5.4, Q-Chem, Inc., Pleasanton, CA (2021)
 Q-Chem 5.4.0 for Intel X86 EM64T Linux

User input:
--------------------------------------------------------------
$molecule
0 1
O                  3.8812790000      2.6944240000      1.0330110000
C                  2.9960680000      1.8687500000      1.0451400000
N                  2.9049270000      0.8736190000      2.0164550000
C                  1.9459410000     -0.1367630000      2.1530920000
O                  1.9987270000     -0.9356930000      3.0564260000
C                  0.8972580000     -0.1018480000      1.0876130000
N                 -0.0596390000     -0.9971840000      1.1036810000
C                 -0.9926250000     -0.9366480000      0.1242980000
C                 -2.0466690000     -1.8856750000      0.1022640000
C                 -2.9954000000     -1.8296030000     -0.8880020000
C                 -2.9292570000     -0.8284100000     -1.8904500000
C                 -1.9208050000      0.1057690000     -1.8972270000
C                 -0.9268770000      0.0749550000     -0.8895530000
N                  0.0712540000      0.9953100000     -0.8917600000
C                  0.9565420000      0.9054110000      0.0721630000
N                  1.9868460000      1.8270650000      0.1000560000
H                  3.6371240000      0.8908220000      2.7160550000
H                 -2.0686610000     -2.6373340000      0.8819690000
H                 -3.8026780000     -2.5520780000     -0.9095840000
H                 -3.6892700000     -0.8028470000     -2.6631490000
H                 -1.8587050000      0.8754560000     -2.6568400000
H                  2.0146200000      2.5325020000     -0.6246210000
$end
$rem
MAX_SCF_CYCLES=200
BASIS  =  6-311++G(d,p)
GUI  =  2
JOB_TYPE  =  SP
METHOD  =  B3LYP
SOLVENT_METHOD = COSMO
$end
$solvent
dielectric 37.219
opticaldielectric 1.43
$end

--------------------------------------------------------------

             Standard Nuclear Orientation (Angstroms)
    I     Atom           X                Y                Z
 ----------------------------------------------------------------
    1      O       4.1179218360    -1.4405460001     0.0000563648
    2      C       3.0774657382    -0.8217291543     0.0000187589
    3      N       3.0271907500     0.5709365066     0.0000448878
    4      C       1.9072476384     1.4105334517     0.0000257770
    5      O       2.0222818012     2.6121386129     0.0000412544
    6      C       0.6113474676     0.6643140897    -0.0000211646
    7      N      -0.5132021816     1.3373108861    -0.0000475770
    8      C      -1.6679882493     0.6303542525    -0.0000677429
    9      C      -2.9090610606     1.3172929504    -0.0000546038
   10      C      -4.0830757539     0.6062719794     0.0000397977
   11      C      -4.0640845896    -0.8119323937     0.0001035394
   12      C      -2.8783016467    -1.5073679245     0.0000506602
   13      C      -1.6501016811    -0.8032556490    -0.0000498023
   14      N      -0.4762061794    -1.4853795676    -0.0000773959
   15      C       0.6215759146    -0.7671604526    -0.0000653027
   16      N       1.8350553002    -1.4298958661    -0.0000563054
   17      H       3.9293971772     1.0312321851     0.0000788036
   18      H      -2.8891983780     2.4003535490    -0.0000880280
   19      H      -5.0338888685     1.1259719866     0.0000761888
   20      H      -5.0033774882    -1.3532879260     0.0002043585
   21      H      -2.8498188496    -2.5901768300     0.0000963918
   22      H       1.8252508190    -2.4415644789    -0.0000734360
 ----------------------------------------------------------------

    9    -754.3930219390      5.87e-06  Convergence criterion met
 Total energy in the final basis set =     -754.3930219390
    5    -754.4193199689      5.03e-06  Convergence criterion met
 Total energy in the final basis set =     -754.4193199689

                    Orbital Energies (a.u.)
 --------------------------------------------------------------

 Alpha MOs
 -- Occupied --
-19.1353 -19.1297 -14.3850 -14.3840 -14.3599 -14.3481 -10.3465 -10.3217
-10.2927 -10.2551 -10.2439 -10.2379 -10.1991 -10.1957 -10.1944 -10.1930
 -1.1061  -1.0854  -1.0298  -0.9852  -0.9566  -0.9294  -0.8715  -0.7948
 -0.7752  -0.7236  -0.7004  -0.6790  -0.6379  -0.6257  -0.5896  -0.5858
 -0.5487  -0.5220  -0.5074  -0.5032  -0.4958  -0.4726  -0.4713  -0.4598
 -0.4582  -0.4508  -0.4410  -0.3914  -0.3880  -0.3832  -0.3690  -0.3446
 -0.3307  -0.3268  -0.3151  -0.3074  -0.2838  -0.2725  -0.2553

          Ground-State Mulliken Net Atomic Charges

     Atom                 Charge (a.u.)
  ----------------------------------------
      1 O                    -0.393379
      2 C                     0.418797
      3 N                    -0.458548
      4 C                     0.412128
      5 O                    -0.377617
      6 C                    -0.120281
      7 N                    -0.010596
      8 C                    -0.011674
      9 C                    -0.173209
     10 C                    -0.331591
     11 C                    -0.245394
     12 C                    -0.226794
     13 C                     0.076022
     14 N                    -0.089614
     15 C                     0.224496
     16 N                    -0.458759
     17 H                     0.449084
     18 H                     0.235098
     19 H                     0.228086
     20 H                     0.232498
     21 H                     0.225676
     22 H                     0.395572
  ----------------------------------------
  Sum of atomic charges =     0.000000

                    Cartesian Multipole Moments
 -----------------------------------------------------------------
    Charge (ESU x 10^10)
                -0.0000
    Dipole Moment (Debye)
         X      -5.4384      Y      -3.0206      Z       0.0004
       Tot       6.2210
    Quadrupole Moments (Debye-Ang)
        XX     -83.7443     XY       3.2075     YY    -102.3686
        XZ      -0.0005     YZ      -0.0011     ZZ     -91.5213

 Total job time:  37.96s(wall), 271.92s(cpu)
        *  Thank you very much for using Q-Chem.  Have a nice day.  *
