 Gaussian 16, Revision A.03,
 Gaussian 16:  ES64L-G16RevA.03 25-Dec-2016

 --------------------------------------
 #P UB3LYP/6-311++G(d,p) nosym opt freq
 --------------------------------------

 -------
 Reduced
 -------
 Symbolic Z-matrix:
 Charge = -2 Multiplicity = 1

 SCF Done:  E(UB3LYP) =  -817.206502930     A.U. after   42 cycles
 SCF Done:  E(UB3LYP) =  -817.239430692     A.U. after   30 cycles
 SCF Done:  E(UB3LYP) =  -817.240438780     A.U. after   20 cycles
 SCF Done:  E(UB3LYP) =  -817.239138332     A.U. after   22 cycles
 SCF Done:  E(UB3LYP) =  -817.246973608     A.U. after   22 cycles
 SCF Done:  E(UB3LYP) =  -817.247832548     A.U. after   20 cycles
 SCF Done:  E(UB3LYP) =  -817.248361671     A.U. after   22 cycles
 SCF Done:  E(UB3LYP) =  -817.247759301     A.U. after   20 cycles
 SCF Done:  E(UB3LYP) =  -817.248559298     A.U. after   19 cycles
 SCF Done:  E(UB3LYP) =  -817.248614496     A.U. after   22 cycles
 SCF Done:  E(UB3LYP) =  -817.248636171     A.U. after   19 cycles
 SCF Done:  E(UB3LYP) =  -817.248637177     A.U. after   13 cycles
 SCF Done:  E(UB3LYP) =  -817.248639195     A.U. after   16 cycles
 Optimization completed.
    -- Stationary point found.
 Normal termination of Gaussian 16 at Wed Dec 20 03:13:11 2023.

 ----------------------------------------------------------------------
 #P Geom=AllCheck Guess=TCheck SCRF=Check GenChk UB3LYP/6-311++G(d,p) F
 req
 ----------------------------------------------------------------------

 Structure from the checkpoint file:  "099-an.chk"
 -------
 Reduced
 -------
 Charge = -2 Multiplicity = 1

                          Input orientation:
 ---------------------------------------------------------------------
 Center     Atomic      Atomic             Coordinates (Angstroms)
 Number     Number       Type             X           Y           Z
 ---------------------------------------------------------------------
      1          6           0       -0.129898   -0.815900    1.509406
      2          6           0       -0.183329   -0.748362    0.044130
      3          6           0       -0.676539   -1.854789   -0.690866
      4          6           0       -1.166082   -3.058892   -0.123332
      5          6           0       -1.108591   -3.093999    1.332370
      6          6           0       -0.627802   -2.058091    2.082020
      7          8           0        0.357312    0.079801    2.248065
      8          8           0       -1.643421   -4.048404   -0.790906
      9          6           0        0.467820    0.350340   -0.656928
     10          1           0       -1.481545   -4.000923    1.808720
     11          1           0       -0.746834   -1.777116   -1.773039
     12          1           0       -0.606978   -2.111115    3.169186
     13          6           0        0.422660    1.764887   -0.356627
     14          6           0        1.288624    2.665326   -1.030265
     15          6           0        2.122897    2.252462   -2.043452
     16          6           0        2.112708    0.892433   -2.430994
     17          6           0        1.305236   -0.000018   -1.751540
     18          7           0       -0.560736    2.367013    0.466763
     19          8           0       -0.572162    3.642971    0.577036
     20          8           0       -1.412428    1.663867    1.037777
     21          1           0        1.241248    3.702203   -0.728122
     22          1           0        2.778204    2.966771   -2.535781
     23          1           0        2.771287    0.536085   -3.219424
     24          1           0        1.355195   -1.052598   -2.003969
 ---------------------------------------------------------------------

 SCF Done:  E(UB3LYP) =  -817.248639195     A.U. after    2 cycles

 Alpha  occ. eigenvalues --  -18.86916 -18.85752 -18.81024 -18.78975 -14.24638
 Alpha  occ. eigenvalues --   -9.97323  -9.96304  -9.95324  -9.95229  -9.95179
 Alpha  occ. eigenvalues --   -9.94876  -9.94850  -9.94618  -9.91827  -9.91549
 Alpha  occ. eigenvalues --   -9.91161  -9.88839  -0.92077  -0.74663  -0.72957
 Alpha  occ. eigenvalues --   -0.70234  -0.63334  -0.56405  -0.55277  -0.53091
 Alpha  occ. eigenvalues --   -0.48057  -0.44400  -0.41798  -0.38087  -0.34844
 Alpha  occ. eigenvalues --   -0.33544  -0.30635  -0.28160  -0.25266  -0.24487
 Alpha  occ. eigenvalues --   -0.24161  -0.21652  -0.21362  -0.20766  -0.19544
 Alpha  occ. eigenvalues --   -0.19251  -0.17087  -0.14523  -0.13951  -0.13184
 Alpha  occ. eigenvalues --   -0.12679  -0.12337  -0.10367  -0.09620  -0.08831
 Alpha  occ. eigenvalues --   -0.04382  -0.03818  -0.02815  -0.02623  -0.00965
 Alpha  occ. eigenvalues --    0.00066   0.02080   0.02746   0.03773   0.11259
 Alpha virt. eigenvalues --    0.15215   0.16103   0.17183   0.18254   0.19748
 Alpha virt. eigenvalues --    0.20309   0.20512   0.21318   0.22192   0.24056
 Alpha virt. eigenvalues --    0.24450   0.25158   0.25816   0.25932   0.26891

  Beta  occ. eigenvalues --  -18.86916 -18.85752 -18.81024 -18.78975 -14.24638
  Beta  occ. eigenvalues --   -9.97323  -9.96304  -9.95324  -9.95229  -9.95179
  Beta  occ. eigenvalues --   -9.94876  -9.94850  -9.94618  -9.91827  -9.91549
  Beta  occ. eigenvalues --   -9.91161  -9.88839  -0.92077  -0.74663  -0.72957
  Beta  occ. eigenvalues --   -0.70234  -0.63334  -0.56405  -0.55277  -0.53091
  Beta  occ. eigenvalues --   -0.48057  -0.44400  -0.41798  -0.38087  -0.34844
  Beta  occ. eigenvalues --   -0.33544  -0.30635  -0.28160  -0.25266  -0.24487
  Beta  occ. eigenvalues --   -0.24161  -0.21652  -0.21362  -0.20766  -0.19544
  Beta  occ. eigenvalues --   -0.19251  -0.17087  -0.14523  -0.13951  -0.13184
  Beta  occ. eigenvalues --   -0.12679  -0.12337  -0.10367  -0.09620  -0.08831
  Beta  occ. eigenvalues --   -0.04382  -0.03818  -0.02815  -0.02623  -0.00965
  Beta  occ. eigenvalues --    0.00066   0.02080   0.02746   0.03773   0.11259
  Beta virt. eigenvalues --    0.15215   0.16103   0.17183   0.18254   0.19748
  Beta virt. eigenvalues --    0.20309   0.20512   0.21318   0.22192   0.24056
  Beta virt. eigenvalues --    0.24450   0.25158   0.25816   0.25932   0.26891

 Mulliken charges and spin densities:
               1          2
     1  C   -1.792012   0.000000
     2  C    2.020370   0.000000
     3  C   -0.544138  -0.000000
     4  C   -0.600912   0.000000
     5  C    0.018516   0.000000
     6  C    0.267377   0.000000
     7  O   -0.383787   0.000000
     8  O   -0.535699   0.000000
     9  C    1.545141  -0.000000
    10  H    0.096127  -0.000000
    11  H    0.116306  -0.000000
    12  H    0.102859  -0.000000
    13  C   -0.265020  -0.000000
    14  C   -0.394759  -0.000000
    15  C   -0.472586   0.000000
    16  C   -0.452065  -0.000000
    17  C   -0.715468   0.000000
    18  N   -0.340030  -0.000000
    19  O   -0.154934  -0.000000
    20  O   -0.061864  -0.000000
    21  H    0.212724   0.000000
    22  H    0.091740  -0.000000
    23  H    0.090725   0.000000
    24  H    0.151388  -0.000000
 Sum of Mulliken charges =  -2.00000  -0.00000

 Dipole moment (field-independent basis, Debye):
    X=              5.3400    Y=              3.3576    Z=             -2.8632  Tot=              6.9273
 Quadrupole moment (field-independent basis, Debye-Ang):
   XX=           -125.5755   YY=           -193.2197   ZZ=           -130.0020
   XY=            -17.1094   XZ=              0.8052   YZ=            -12.6372

  Exact polarizability: 181.788  76.848 407.111 -56.360 -50.205 226.852
 Approx polarizability: 308.760 194.3881149.723-114.868-167.518 419.373

                      1                      2                      3
                      A                      A                      A
 Frequencies --     41.6995                67.0770                94.2108
 Red. masses --     10.1439                 5.3594                 6.5540
 Frc consts  --      0.0104                 0.0142                 0.0343
 IR Inten    --      1.3437                 3.3897                 1.4293

                      4                      5                      6
                      A                      A                      A
 Frequencies --    105.9211               142.4932               172.6314
 Red. masses --      6.2780                 6.3134                12.2175
 Frc consts  --      0.0415                 0.0755                 0.2145
 IR Inten    --      2.8816                 2.4725                 3.5213

                      7                      8                      9
                      A                      A                      A
 Frequencies --    197.7187               261.8717               275.5246
 Red. masses --      9.3569                 7.3794                 6.9873
 Frc consts  --      0.2155                 0.2982                 0.3125
 IR Inten    --      0.7224                 0.3129                 0.9254

                     10                     11                     12
                      A                      A                      A
 Frequencies --    320.7420               347.8058               398.9444
 Red. masses --      7.0794                 5.5638                 9.8523
 Frc consts  --      0.4291                 0.3965                 0.9239
 IR Inten    --      2.8363                 0.1664                 3.5488

                     13                     14                     15
                      A                      A                      A
 Frequencies --    420.3602               441.6482               454.4919
 Red. masses --      5.7273                 4.1526                 6.5363
 Frc consts  --      0.5963                 0.4772                 0.7955
 IR Inten    --     33.7855                 3.4194                77.0773

                     16                     17                     18
                      A                      A                      A
 Frequencies --    476.9886               521.4022               546.4569
 Red. masses --      6.7722                 2.9337                 5.6393
 Frc consts  --      0.9078                 0.4699                 0.9922
 IR Inten    --     63.5288                 7.3707                 4.2683

                     19                     20                     21
                      A                      A                      A
 Frequencies --    575.0902               612.2249               638.6996
 Red. masses --      4.7847                 3.0614                 5.9386
 Frc consts  --      0.9323                 0.6761                 1.4273
 IR Inten    --      3.6796                16.3414                 1.4377

                     22                     23                     24
                      A                      A                      A
 Frequencies --    649.7909               665.4872               714.5332
 Red. masses --      5.5532                 6.5406                 7.2942
 Frc consts  --      1.3815                 1.7067                 2.1942
 IR Inten    --     17.3828                 7.6912                25.4276

                     25                     26                     27
                      A                      A                      A
 Frequencies --    723.6132               729.4959               749.2055
 Red. masses --      1.9310                 2.5216                 2.0145
 Frc consts  --      0.5957                 0.7906                 0.6662
 IR Inten    --     59.1753                15.1861                 3.0615

                     28                     29                     30
                      A                      A                      A
 Frequencies --    806.0120               818.6070               823.9799
 Red. masses --      1.7693                 3.4656                 2.8533
 Frc consts  --      0.6772                 1.3683                 1.1414
 IR Inten    --      9.6820                36.8482                 7.7875

                     31                     32                     33
                      A                      A                      A
 Frequencies --    826.3676               840.5244               891.7615
 Red. masses --      6.1413                 1.9848                 4.9290
 Frc consts  --      2.4709                 0.8262                 2.3094
 IR Inten    --     18.4317                45.7710                 4.7150

                     34                     35                     36
                      A                      A                      A
 Frequencies --    940.3544               944.6329               951.4715
 Red. masses --      1.2907                 1.2713                 1.3648
 Frc consts  --      0.6724                 0.6684                 0.7280
 IR Inten    --      3.3913                 3.4077                 0.6238

                     37                     38                     39
                      A                      A                      A
 Frequencies --    995.9264              1038.2549              1083.2906
 Red. masses --      3.2250                 2.2964                 3.2328
 Frc consts  --      1.8847                 1.4585                 2.2352
 IR Inten    --     34.1215                71.7525               102.8388

                     40                     41                     42
                      A                      A                      A
 Frequencies --   1095.8594              1143.0634              1162.5901
 Red. masses --      1.7486                 1.5539                 1.4223
 Frc consts  --      1.2373                 1.1962                 1.1327
 IR Inten    --     63.3486               264.6595                91.6647

                     43                     44                     45
                      A                      A                      A
 Frequencies --   1177.5159              1229.2807              1229.7816
 Red. masses --      2.0216                 2.0159                 3.3588
 Frc consts  --      1.6515                 1.7948                 2.9929
 IR Inten    --    474.3253               293.0036               828.5927

                     46                     47                     48
                      A                      A                      A
 Frequencies --   1252.2987              1278.1212              1325.4162
 Red. masses --      2.0360                 3.2606                 2.7971
 Frc consts  --      1.8812                 3.1383                 2.8951
 IR Inten    --    383.8454               289.0572                33.6265

                     49                     50                     51
                      A                      A                      A
 Frequencies --   1346.7750              1403.7611              1409.6269
 Red. masses --      4.1219                 6.9286                 4.7664
 Frc consts  --      4.4050                 8.0441                 5.5801
 IR Inten    --    149.8984               148.6662                30.0859

                     52                     53                     54
                      A                      A                      A
 Frequencies --   1427.6801              1455.8955              1474.0897
 Red. masses --      2.8474                 3.9907                 3.4398
 Frc consts  --      3.4195                 4.9837                 4.4038
 IR Inten    --     76.7094                46.3643               209.1449

                     55                     56                     57
                      A                      A                      A
 Frequencies --   1481.7263              1526.6034              1554.7192
 Red. masses --      3.4340                 6.4269                 7.0025
 Frc consts  --      4.4421                 8.8247                 9.9725
 IR Inten    --    113.8726               190.5610               270.3036

                     58                     59                     60
                      A                      A                      A
 Frequencies --   1592.4654              1619.0185              3089.4820
 Red. masses --      5.2095                 6.4783                 1.0842
 Frc consts  --      7.7837                10.0050                 6.0972
 IR Inten    --    140.6829               343.2681                64.1157

                     61                     62                     63
                      A                      A                      A
 Frequencies --   3112.2618              3121.0596              3125.9519
 Red. masses --      1.0835                 1.0920                 1.0886
 Frc consts  --      6.1837                 6.2671                 6.2674
 IR Inten    --     45.0051               148.4035                42.6909

                     64                     65                     66
                      A                      A                      A
 Frequencies --   3134.7465              3176.2104              3208.2768
 Red. masses --      1.0920                 1.0907                 1.0906
 Frc consts  --      6.3222                 6.4833                 6.6140
 IR Inten    --    103.6441                20.3298                14.1173

 - Thermochemistry -
 -------------------
 Temperature   298.150 Kelvin.  Pressure   1.00000 Atm.
 Atom     1 has atomic number  6 and mass  12.00000

 Molecular mass:   229.03751 amu.
 Principal axes and moments of inertia in atomic units:
                           1         2         3
     Eigenvalues --  2216.171515039.138236421.64680
           X            0.31321  -0.42806   0.84774
           Y            0.92881   0.32418  -0.17946
           Z           -0.19800   0.84360   0.49913
 This molecule is an asymmetric top.
 Rotational symmetry number  1.
 Warning -- assumption of classical behavior for rotation
           may cause significant error
 Rotational temperatures (Kelvin)      0.03908     0.01719     0.01349
 Rotational constants (GHZ):           0.81435     0.35814     0.28104
 Zero-point vibrational energy     427435.2 (Joules/Mol)
                                  102.15947 (Kcal/Mol)
 Warning -- explicit consideration of  20 degrees of freedom as
           vibrations may cause significant error
 Vibrational temperatures:     60.00    96.51   135.55   152.40   205.02
          (Kelvin)            248.38   284.47   376.77   396.42   461.48
                              500.41   573.99   604.80   635.43   653.91
                              686.28   750.18   786.23   827.43   880.86
                              918.95   934.90   957.49  1028.05  1041.12
                             1049.58  1077.94  1159.67  1177.79  1185.52
                             1188.96  1209.33  1283.05  1352.96  1359.12
                             1368.96  1432.92  1493.82  1558.61  1576.70
                             1644.61  1672.71  1694.18  1768.66  1769.38
                             1801.78  1838.93  1906.98  1937.71  2019.70
                             2028.14  2054.11  2094.71  2120.89  2131.87
                             2196.44  2236.89  2291.20  2329.41  4445.08
                             4477.85  4490.51  4497.55  4510.20  4569.86
                             4615.99

 Zero-point correction=                           0.162801 (Hartree/Particle)
 Thermal correction to Energy=                    0.176030
 Thermal correction to Enthalpy=                  0.176974
 Thermal correction to Gibbs Free Energy=         0.122408
 Sum of electronic and zero-point Energies=           -817.085838
 Sum of electronic and thermal Energies=              -817.072609
 Sum of electronic and thermal Enthalpies=            -817.071665
 Sum of electronic and thermal Free Energies=         -817.126231

                     E (Thermal)             CV                S
                      KCal/Mol        Cal/Mol-Kelvin    Cal/Mol-Kelvin
 Total                  110.460             52.008            114.844
 Electronic               0.000              0.000              0.000
 Translational            0.889              2.981             42.188
 Rotational               0.889              2.981             32.639
 Vibrational            108.683             46.047             40.017
 Vibration     1          0.594              1.981              5.177
 Vibration     2          0.598              1.970              4.237
 Vibration     3          0.603              1.953              3.571
 Vibration     4          0.605              1.944              3.342
 Vibration     5          0.616              1.911              2.770
 Vibration     6          0.626              1.876              2.407
 Vibration     7          0.637              1.843              2.154
 Vibration     8          0.669              1.743              1.649
 Vibration     9          0.677              1.719              1.561
 Vibration    10          0.706              1.634              1.306
 Vibration    11          0.725              1.580              1.176
 Vibration    12          0.765              1.472              0.967
 Vibration    13          0.783              1.426              0.891
 Vibration    14          0.801              1.379              0.821
 Vibration    15          0.813              1.351              0.782
 Vibration    16          0.834              1.301              0.718
 Vibration    17          0.876              1.203              0.607
 Vibration    18          0.902              1.147              0.552
 Vibration    19          0.931              1.085              0.495
 Vibration    20          0.971              1.006              0.429

                           ! Non-Optimized Parameters !
 Normal termination of Gaussian 16 at Wed Dec 20 04:08:00 2023.
