 Gaussian 16, Revision A.03,
 Gaussian 16:  ES64L-G16RevA.03 25-Dec-2016

 --------------------------------------
 #P UB3LYP/6-311++G(d,p) nosym opt freq
 --------------------------------------

 --------
 Oxidized
 --------
 Symbolic Z-matrix:
 Charge =  0 Multiplicity = 1

 SCF Done:  E(UB3LYP) =  -5764.56498353     A.U. after   16 cycles
 SCF Done:  E(UB3LYP) =  -5764.57831908     A.U. after   15 cycles
 SCF Done:  E(UB3LYP) =  -5764.58365167     A.U. after   15 cycles
 SCF Done:  E(UB3LYP) =  -5764.58826328     A.U. after   16 cycles
 SCF Done:  E(UB3LYP) =  -5764.58954456     A.U. after   16 cycles
 SCF Done:  E(UB3LYP) =  -5764.59027068     A.U. after   13 cycles
 SCF Done:  E(UB3LYP) =  -5764.59035863     A.U. after   13 cycles
 SCF Done:  E(UB3LYP) =  -5764.59036310     A.U. after   13 cycles
 SCF Done:  E(UB3LYP) =  -5764.59053713     A.U. after   12 cycles
 SCF Done:  E(UB3LYP) =  -5764.59055730     A.U. after   12 cycles
 SCF Done:  E(UB3LYP) =  -5764.59060542     A.U. after   12 cycles
 SCF Done:  E(UB3LYP) =  -5764.59062271     A.U. after   12 cycles
 SCF Done:  E(UB3LYP) =  -5764.59062556     A.U. after   11 cycles
 SCF Done:  E(UB3LYP) =  -5764.59062714     A.U. after   10 cycles
 SCF Done:  E(UB3LYP) =  -5764.59062728     A.U. after    9 cycles
 Optimization completed.
    -- Stationary point found.
 Normal termination of Gaussian 16 at Sun Dec 17 22:20:33 2023.

 ----------------------------------------------------------------------
 #P Geom=AllCheck Guess=TCheck SCRF=Check GenChk UB3LYP/6-311++G(d,p) F
 req
 ----------------------------------------------------------------------

 Structure from the checkpoint file:  "020.chk"
 --------
 Oxidized
 --------
 Charge =  0 Multiplicity = 1

                          Input orientation:
 ---------------------------------------------------------------------
 Center     Atomic      Atomic             Coordinates (Angstroms)
 Number     Number       Type             X           Y           Z
 ---------------------------------------------------------------------
      1          6           0       -2.026043    0.363584    1.509039
      2          6           0       -2.952658    1.224510    0.696535
      3          6           0       -2.570079    1.534824   -0.557210
      4          6           0       -1.284553    1.072145   -1.175579
      5          6           0       -0.358098    0.210970   -0.363198
      6          6           0       -0.740624   -0.099277    0.890594
      7          8           0       -0.994182    1.385863   -2.311636
      8          8           0       -2.316171    0.050162    2.645238
      9         35           0        0.312965   -1.181494    2.061013
     10         35           0       -3.623764    2.616962   -1.727596
     11          6           0        0.936764   -0.245026   -1.011738
     12          6           0        1.868805    0.936343   -1.350671
     13          6           0        0.690937   -1.157205   -2.231031
     14          6           0       -4.247709    1.680344    1.344837
     15          6           0       -4.002287    2.593316    2.563636
     16          6           0       -5.179463    0.498887    1.684271
     17          1           0        1.447791   -0.848127   -0.261159
     18          1           0        2.052121    1.560151   -0.471520
     19          1           0        1.456089    1.560987   -2.142606
     20          1           0        2.833306    0.546357   -1.687280
     21          1           0        0.047545   -2.001783   -1.969535
     22          1           0        1.647040   -1.562425   -2.573522
     23          1           0        0.233882   -0.611974   -3.056539
     24          1           0       -4.758875    2.282891    0.593901
     25          1           0       -4.958552    2.998413    2.905820
     26          1           0       -3.359157    3.437958    2.301703
     27          1           0       -3.545125    2.048708    3.389489
     28          1           0       -6.144158    0.888791    2.020420
     29          1           0       -4.766760   -0.125163    2.476671
     30          1           0       -5.362405   -0.125502    0.805452
 ---------------------------------------------------------------------

 SCF Done:  E(UB3LYP) =  -5764.59062728     A.U. after    1 cycles

 Alpha  occ. eigenvalues -- -482.84878-482.84878 -62.50151 -62.50151 -56.32196
 Alpha  occ. eigenvalues --  -56.32196 -56.31813 -56.31813 -56.31766 -56.31766
 Alpha  occ. eigenvalues --  -19.15083 -19.15082 -10.30410 -10.30409 -10.26733
 Alpha  occ. eigenvalues --  -10.26732 -10.23544 -10.23543 -10.20248 -10.20248
 Alpha  occ. eigenvalues --  -10.17013 -10.17013 -10.17011 -10.17011  -8.71123
 Alpha  occ. eigenvalues --   -8.71122  -6.54289  -6.54289  -6.53009  -6.53009
 Alpha  occ. eigenvalues --   -6.52875  -6.52874  -2.65380  -2.65380  -2.65037
 Alpha  occ. eigenvalues --   -2.65037  -2.64935  -2.64935  -2.63915  -2.63915
 Alpha  occ. eigenvalues --   -2.63914  -2.63914  -1.08877  -1.08675  -0.89840
 Alpha  occ. eigenvalues --   -0.86906  -0.81586  -0.81437  -0.79294  -0.74927
 Alpha  occ. eigenvalues --   -0.70259  -0.69793  -0.69786  -0.65909  -0.60903
 Alpha  occ. eigenvalues --   -0.60376  -0.57313  -0.55849  -0.49535  -0.48782
 Alpha  occ. eigenvalues --   -0.47590  -0.47438  -0.46291  -0.44780  -0.44747
 Alpha  occ. eigenvalues --   -0.44138  -0.43824  -0.42823  -0.42032  -0.40984
 Alpha  occ. eigenvalues --   -0.39448  -0.39370  -0.37792  -0.37217  -0.36811
 Alpha  occ. eigenvalues --   -0.36096  -0.35989  -0.35702  -0.34720  -0.34566
 Alpha  occ. eigenvalues --   -0.30834  -0.29969  -0.29356  -0.29337  -0.28656
 Alpha  occ. eigenvalues --   -0.27350
 Alpha virt. eigenvalues --   -0.14402  -0.04238  -0.03158  -0.03044  -0.01801
 Alpha virt. eigenvalues --   -0.01108  -0.00412   0.00976   0.01207   0.01436
 Alpha virt. eigenvalues --    0.01685   0.02599   0.03444   0.04076   0.04376

  Beta  occ. eigenvalues -- -482.84878-482.84878 -62.50151 -62.50151 -56.32196
  Beta  occ. eigenvalues --  -56.32196 -56.31813 -56.31813 -56.31766 -56.31766
  Beta  occ. eigenvalues --  -19.15083 -19.15082 -10.30410 -10.30409 -10.26733
  Beta  occ. eigenvalues --  -10.26732 -10.23544 -10.23543 -10.20248 -10.20248
  Beta  occ. eigenvalues --  -10.17013 -10.17013 -10.17011 -10.17011  -8.71123
  Beta  occ. eigenvalues --   -8.71122  -6.54289  -6.54289  -6.53009  -6.53009
  Beta  occ. eigenvalues --   -6.52875  -6.52874  -2.65380  -2.65380  -2.65037
  Beta  occ. eigenvalues --   -2.65037  -2.64935  -2.64935  -2.63915  -2.63915
  Beta  occ. eigenvalues --   -2.63914  -2.63914  -1.08877  -1.08675  -0.89840
  Beta  occ. eigenvalues --   -0.86906  -0.81586  -0.81437  -0.79294  -0.74927
  Beta  occ. eigenvalues --   -0.70259  -0.69793  -0.69786  -0.65909  -0.60903
  Beta  occ. eigenvalues --   -0.60376  -0.57313  -0.55849  -0.49535  -0.48782
  Beta  occ. eigenvalues --   -0.47590  -0.47438  -0.46291  -0.44780  -0.44747
  Beta  occ. eigenvalues --   -0.44138  -0.43824  -0.42823  -0.42032  -0.40984
  Beta  occ. eigenvalues --   -0.39448  -0.39370  -0.37792  -0.37217  -0.36811
  Beta  occ. eigenvalues --   -0.36096  -0.35989  -0.35702  -0.34720  -0.34566
  Beta  occ. eigenvalues --   -0.30834  -0.29969  -0.29356  -0.29337  -0.28656
  Beta  occ. eigenvalues --   -0.27350
  Beta virt. eigenvalues --   -0.14402  -0.04238  -0.03158  -0.03044  -0.01801
  Beta virt. eigenvalues --   -0.01108  -0.00412   0.00976   0.01207   0.01436
  Beta virt. eigenvalues --    0.01685   0.02599   0.03444   0.04076   0.04376

 Mulliken charges and spin densities:
               1          2
     1  C   -1.239994  -0.000000
     2  C    1.393673   0.000000
     3  C    0.026267   0.000000
     4  C   -1.239594  -0.000000
     5  C    1.393446   0.000000
     6  C    0.025937   0.000000
     7  O   -0.109002  -0.000000
     8  O   -0.108986   0.000000
     9  Br  -0.055812   0.000000
    10  Br  -0.055826  -0.000000
    11  C    0.219728   0.000000
    12  C   -0.692931   0.000000
    13  C   -0.692355   0.000000
    14  C    0.219730   0.000000
    15  C   -0.692394   0.000000
    16  C   -0.692936   0.000000
    17  H    0.179625  -0.000000
    18  H    0.130349   0.000000
    19  H    0.198576  -0.000000
    20  H    0.156600  -0.000000
    21  H    0.130265   0.000000
    22  H    0.156602   0.000000
    23  H    0.198525  -0.000000
    24  H    0.179573  -0.000000
    25  H    0.156626  -0.000000
    26  H    0.130279   0.000000
    27  H    0.198523   0.000000
    28  H    0.156601  -0.000000
    29  H    0.198556   0.000000
    30  H    0.130349   0.000000
 Sum of Mulliken charges =  -0.00000  -0.00000

 Dipole moment (field-independent basis, Debye):
    X=             -0.0006    Y=             -0.0003    Z=             -0.0004  Tot=              0.0008
 Quadrupole moment (field-independent basis, Debye-Ang):
   XX=           -113.2141   YY=           -121.1964   ZZ=           -132.5755
   XY=             -3.4417   XZ=             -1.7168   YZ=              5.9762

  Exact polarizability: 195.094 -28.768 160.711 -15.707 -29.654 223.963
 Approx polarizability: 261.027 -25.477 247.319 -21.985 -80.569 420.943

                      1                      2                      3
                      A                      A                      A
 Frequencies --     13.7069                34.8711                40.0927
 Red. masses --      4.4040                 5.7302                 3.5353
 Frc consts  --      0.0005                 0.0041                 0.0033
 IR Inten    --      1.9686                 0.3780                 0.0000

                      4                      5                      6
                      A                      A                      A
 Frequencies --     61.1092                82.9230               141.8795
 Red. masses --      3.5967                 4.4936                 6.4807
 Frc consts  --      0.0079                 0.0182                 0.0769
 IR Inten    --      0.2080                 0.0000                 0.4672

                      7                      8                      9
                      A                      A                      A
 Frequencies --    150.0661               153.9443               170.2814
 Red. masses --      5.3092                 2.9348                 5.0074
 Frc consts  --      0.0704                 0.0410                 0.0855
 IR Inten    --      0.0000                 2.8279                 1.0065

                     10                     11                     12
                      A                      A                      A
 Frequencies --    177.1909               192.2726               227.5125
 Red. masses --      2.0101                21.6263                 1.4848
 Frc consts  --      0.0372                 0.4711                 0.0453
 IR Inten    --      0.0000                 0.0000                 0.0002

                     13                     14                     15
                      A                      A                      A
 Frequencies --    229.1909               230.9440               234.9297
 Red. masses --      1.2377                 1.0431                 1.7247
 Frc consts  --      0.0383                 0.0328                 0.0561
 IR Inten    --      1.0570                 0.2959                 0.0000

                     16                     17                     18
                      A                      A                      A
 Frequencies --    235.7870               305.5035               311.8826
 Red. masses --      1.4171                 4.5325                 2.9110
 Frc consts  --      0.0464                 0.2492                 0.1668
 IR Inten    --      0.0001                 0.0057                 0.4466

                     19                     20                     21
                      A                      A                      A
 Frequencies --    313.3923               340.4188               344.0106
 Red. masses --      7.7012                 9.6242                13.6972
 Frc consts  --      0.4456                 0.6571                 0.9550
 IR Inten    --      0.0000                 0.0000                 1.7668

                     22                     23                     24
                      A                      A                      A
 Frequencies --    417.1525               464.1027               470.5893
 Red. masses --      2.9883                 2.8507                 4.3271
 Frc consts  --      0.3064                 0.3618                 0.5646
 IR Inten    --      0.0000                 0.1981                 0.0104

                     25                     26                     27
                      A                      A                      A
 Frequencies --    470.6823               503.4229               528.0780
 Red. masses --      5.4193                 5.0204                 6.1717
 Frc consts  --      0.7074                 0.7496                 1.0140
 IR Inten    --     35.8876                 0.0000                 0.0000

                     28                     29                     30
                      A                      A                      A
 Frequencies --    611.4008               723.0840               744.5569
 Red. masses --      8.4283                 3.9117                 6.4178
 Frc consts  --      1.8563                 1.2050                 2.0962
 IR Inten    --      0.6269               130.6513                 0.0000

                     31                     32                     33
                      A                      A                      A
 Frequencies --    755.4553               787.0221               796.4128
 Red. masses --      9.0493                 7.0076                10.2357
 Frc consts  --      3.0429                 2.5574                 3.8251
 IR Inten    --     16.2070                 0.0000                 0.0000

                     34                     35                     36
                      A                      A                      A
 Frequencies --    849.5029               865.9978               932.2524
 Red. masses --      4.8099                 3.1242                 3.1883
 Frc consts  --      2.0451                 1.3805                 1.6326
 IR Inten    --     23.6185                 0.0000                 2.0487

                     37                     38                     39
                      A                      A                      A
 Frequencies --    939.7327               939.7684               967.9667
 Red. masses --      1.1602                 1.1600                 1.5322
 Frc consts  --      0.6037                 0.6036                 0.8458
 IR Inten    --      0.2155                 2.0444                 0.1307

                     40                     41                     42
                      A                      A                      A
 Frequencies --    967.9857               987.3761              1043.4305
 Red. masses --      1.5304                 2.7720                 2.2758
 Frc consts  --      0.8449                 1.5922                 1.4599
 IR Inten    --      0.0408                 0.0000               222.6584

                     43                     44                     45
                      A                      A                      A
 Frequencies --   1111.5989              1114.3202              1123.0364
 Red. masses --      2.4743                 2.4851                 2.1143
 Frc consts  --      1.8014                 1.8181                 1.5711
 IR Inten    --      0.0000                 2.4905                 0.0000

                     46                     47                     48
                      A                      A                      A
 Frequencies --   1181.7819              1194.1491              1196.7857
 Red. masses --      2.6417                 2.7768                 2.0137
 Frc consts  --      2.1737                 2.3330                 1.6994
 IR Inten    --     44.5000                38.9427                 0.0001

                     49                     50                     51
                      A                      A                      A
 Frequencies --   1251.8701              1279.9790              1349.5491
 Red. masses --      5.6378                 6.5188                 1.2860
 Frc consts  --      5.2057                 6.2925                 1.3799
 IR Inten    --    219.3015                 0.0001                 3.0687

                     52                     53                     54
                      A                      A                      A
 Frequencies --   1349.6629              1383.4914              1383.6653
 Red. masses --      1.2843                 1.2703                 1.2684
 Frc consts  --      1.3783                 1.4325                 1.4307
 IR Inten    --      0.0446                 0.4169                10.3320

                     55                     56                     57
                      A                      A                      A
 Frequencies --   1394.7944              1394.8821              1415.4467
 Red. masses --      1.2014                 1.2015                 1.2099
 Frc consts  --      1.3771                 1.3774                 1.4282
 IR Inten    --      0.0777                13.9539                15.8393

                     58                     59                     60
                      A                      A                      A
 Frequencies --   1415.4684              1487.4626              1487.5950
 Red. masses --      1.2146                 1.0394                 1.0394
 Frc consts  --      1.4338                 1.3549                 1.3553
 IR Inten    --      2.2966                 0.0004                 3.1612

                     61                     62                     63
                      A                      A                      A
 Frequencies --   1501.3308              1501.3643              1501.4162
 Red. masses --      1.0478                 1.0477                 1.0429
 Frc consts  --      1.3914                 1.3914                 1.3852
 IR Inten    --      3.2420                 0.2478                 0.0780

                     64                     65                     66
                      A                      A                      A
 Frequencies --   1501.4844              1518.3341              1518.5469
 Red. masses --      1.0426                 1.0597                 1.0580
 Frc consts  --      1.3849                 1.4394                 1.4375
 IR Inten    --     32.4987                14.4551                 0.0185

                     67                     68                     69
                      A                      A                      A
 Frequencies --   1605.8730              1641.1059              1722.9027
 Red. masses --      9.7196                 9.9612                12.8068
 Frc consts  --     14.7680                15.8065                22.3981
 IR Inten    --    138.7943                 0.0000                 0.0000

                     70                     71                     72
                      A                      A                      A
 Frequencies --   1724.9595              3030.6667              3030.7335
 Red. masses --     12.6504                 1.0366                 1.0366
 Frc consts  --     22.1775                 5.6098                 5.6100
 IR Inten    --    386.0211                 0.0329                65.8085

                     73                     74                     75
                      A                      A                      A
 Frequencies --   3033.1502              3033.3702              3082.0190
 Red. masses --      1.0375                 1.0375                 1.0846
 Frc consts  --      5.6237                 5.6245                 6.0699
 IR Inten    --     48.8925                 0.0013                 0.2568

                     76                     77                     78
                      A                      A                      A
 Frequencies --   3082.0677              3087.7318              3087.8520
 Red. masses --      1.0846                 1.1021                 1.1021
 Frc consts  --      6.0702                 6.1907                 6.1912
 IR Inten    --      0.0590                 0.0110                25.3313

                     79                     80                     81
                      A                      A                      A
 Frequencies --   3089.9655              3090.1057              3125.5258
 Red. masses --      1.1010                 1.1010                 1.1004
 Frc consts  --      6.1939                 6.1941                 6.3336
 IR Inten    --     87.5401                 0.0323                 0.3436

                     82                     83                     84
                      A                      A                      A
 Frequencies --   3125.5617              3131.1356              3131.1955
 Red. masses --      1.1004                 1.0986                 1.0986
 Frc consts  --      6.3337                 6.3461                 6.3462
 IR Inten    --      0.2143                 1.7955                31.1959

 - Thermochemistry -
 -------------------
 Temperature   298.150 Kelvin.  Pressure   1.00000 Atm.
 Atom     1 has atomic number  6 and mass  12.00000

 Molecular mass:   347.93605 amu.
 Principal axes and moments of inertia in atomic units:
                           1         2         3
     Eigenvalues --  4323.710277832.15407**********
           X            0.73636  -0.49622   0.45994
           Y           -0.56774  -0.08339   0.81897
           Z            0.36804   0.86418   0.34313
 This molecule is an asymmetric top.
 Rotational symmetry number  1.
 Warning -- assumption of classical behavior for rotation
           may cause significant error
 Rotational temperatures (Kelvin)      0.02003     0.01106     0.00762
 Rotational constants (GHZ):           0.41741     0.23043     0.15887
 Zero-point vibrational energy     611123.2 (Joules/Mol)
                                  146.06195 (Kcal/Mol)
 Warning -- explicit consideration of  28 degrees of freedom as
           vibrations may cause significant error
 Vibrational temperatures:     19.72    50.17    57.68    87.92   119.31
          (Kelvin)            204.13   215.91   221.49   245.00   254.94
                              276.64   327.34   329.75   332.28   338.01
                              339.24   439.55   448.73   450.90   489.79
                              494.95   600.19   667.74   677.07   677.21
                              724.31   759.79   879.67  1040.36  1071.25
                             1086.93  1132.35  1145.86  1222.25  1245.98
                             1341.30  1352.07  1352.12  1392.69  1392.72
                             1420.61  1501.26  1599.34  1603.26  1615.80
                             1700.32  1718.11  1721.91  1801.16  1841.60
                             1941.70  1941.86  1990.54  1990.79  2006.80
                             2006.92  2036.51  2036.54  2140.13  2140.32
                             2160.08  2160.13  2160.20  2160.30  2184.54
                             2184.85  2310.49  2361.19  2478.87  2481.83
                             4360.45  4360.55  4364.03  4364.34  4434.34
                             4434.41  4442.56  4442.73  4445.77  4445.97
                             4496.93  4496.99  4505.01  4505.09

 Zero-point correction=                           0.232765 (Hartree/Particle)
 Thermal correction to Energy=                    0.250808
 Thermal correction to Enthalpy=                  0.251752
 Thermal correction to Gibbs Free Energy=         0.183917
 Sum of electronic and zero-point Energies=          -5764.357863
 Sum of electronic and thermal Energies=             -5764.339819
 Sum of electronic and thermal Enthalpies=           -5764.338875
 Sum of electronic and thermal Free Energies=        -5764.406710

                     E (Thermal)             CV                S
                      KCal/Mol        Cal/Mol-Kelvin    Cal/Mol-Kelvin
 Total                  157.384             64.124            142.770
 Electronic               0.000              0.000              0.000
 Translational            0.889              2.981             43.435
 Rotational               0.889              2.981             34.308
 Vibrational            155.607             58.162             65.027
 Vibration     1          0.593              1.986              7.385
 Vibration     2          0.594              1.983              5.531
 Vibration     3          0.594              1.981              5.254
 Vibration     4          0.597              1.973              4.421
 Vibration     5          0.600              1.961              3.820
 Vibration     6          0.615              1.911              2.778
 Vibration     7          0.618              1.903              2.671
 Vibration     8          0.619              1.898              2.623
 Vibration     9          0.625              1.879              2.432
 Vibration    10          0.628              1.870              2.358
 Vibration    11          0.634              1.851              2.206
 Vibration    12          0.651              1.799              1.898
 Vibration    13          0.652              1.796              1.885
 Vibration    14          0.653              1.794              1.872
 Vibration    15          0.655              1.787              1.841
 Vibration    16          0.655              1.786              1.834
 Vibration    17          0.696              1.663              1.387
 Vibration    18          0.700              1.651              1.352
 Vibration    19          0.701              1.648              1.344
 Vibration    20          0.720              1.595              1.210
 Vibration    21          0.723              1.587              1.193
 Vibration    22          0.780              1.433              0.902
 Vibration    23          0.822              1.330              0.754
 Vibration    24          0.828              1.315              0.736
 Vibration    25          0.828              1.315              0.736
 Vibration    26          0.859              1.242              0.650
 Vibration    27          0.883              1.188              0.592
 Vibration    28          0.971              1.008              0.430

 Optimization completed.
    -- Stationary point found.
 Normal termination of Gaussian 16 at Sun Dec 17 23:36:02 2023.
