 Gaussian 16, Revision A.03,
 Gaussian 16:  ES64L-G16RevA.03 25-Dec-2016

 --------------------------------------
 #P UB3LYP/6-311++G(d,p) nosym opt freq
 --------------------------------------

 -------
 Reduced
 -------
 Symbolic Z-matrix:
 Charge = -2 Multiplicity = 1

 SCF Done:  E(UB3LYP) =  -878.661061254     A.U. after   42 cycles
 SCF Done:  E(UB3LYP) =  -878.701483548     A.U. after   30 cycles
 SCF Done:  E(UB3LYP) =  -878.710495890     A.U. after   26 cycles
 SCF Done:  E(UB3LYP) =  -878.733817975     A.U. after   27 cycles
 SCF Done:  E(UB3LYP) =  -878.734569304     A.U. after   24 cycles
 SCF Done:  E(UB3LYP) =  -878.737221152     A.U. after   26 cycles
 SCF Done:  E(UB3LYP) =  -878.738669783     A.U. after   22 cycles
 SCF Done:  E(UB3LYP) =  -878.738936449     A.U. after   24 cycles
 SCF Done:  E(UB3LYP) =  -878.739388440     A.U. after   26 cycles
 SCF Done:  E(UB3LYP) =  -878.740008168     A.U. after   26 cycles
 SCF Done:  E(UB3LYP) =  -878.744362451     A.U. after   18 cycles
 SCF Done:  E(UB3LYP) =  -878.744372187     A.U. after   17 cycles
 SCF Done:  E(UB3LYP) =  -878.744376840     A.U. after   17 cycles
 SCF Done:  E(UB3LYP) =  -878.744378990     A.U. after   16 cycles
 SCF Done:  E(UB3LYP) =  -878.744379690     A.U. after   15 cycles
 SCF Done:  E(UB3LYP) =  -878.744380128     A.U. after   14 cycles
 SCF Done:  E(UB3LYP) =  -878.744380347     A.U. after   14 cycles
 SCF Done:  E(UB3LYP) =  -878.744380442     A.U. after   14 cycles
 SCF Done:  E(UB3LYP) =  -878.744380473     A.U. after   14 cycles
 Optimization completed.
    -- Stationary point found.
 Normal termination of Gaussian 16 at Thu Dec 21 11:09:51 2023.

 ----------------------------------------------------------------------
 #P Geom=AllCheck Guess=TCheck SCRF=Check GenChk UB3LYP/6-311++G(d,p) F
 req
 ----------------------------------------------------------------------

 Structure from the checkpoint file:  "179-an.chk"
 -------
 Reduced
 -------
 Charge = -2 Multiplicity = 1

                          Input orientation:
 ---------------------------------------------------------------------
 Center     Atomic      Atomic             Coordinates (Angstroms)
 Number     Number       Type             X           Y           Z
 ---------------------------------------------------------------------
      1          6           0       -3.441597   -2.753644   -0.353231
      2          8           0       -2.159640   -2.234837   -0.192418
      3          6           0       -2.003829   -0.847899   -0.201993
      4          6           0       -3.086546   -0.007497   -0.361436
      5          6           0       -2.935891    1.401592   -0.371899
      6          6           0       -1.692131    2.011423   -0.222417
      7          8           0       -1.545155    3.313754   -0.230951
      8          6           0       -0.524378    1.124345   -0.051274
      9          6           0        0.749587    1.725596    0.101475
     10          8           0        0.892628    3.095572    0.090375
     11          6           0        1.893615    0.936070    0.267211
     12          6           0        3.194628    1.511848    0.424090
     13          6           0        4.313695    0.728629    0.586343
     14          6           0        4.199977   -0.690677    0.601866
     15          6           0        2.950685   -1.267422    0.451821
     16          6           0        1.777499   -0.503106    0.283016
     17          6           0        0.495929   -1.192321    0.131398
     18          8           0        0.454108   -2.460549    0.153486
     19          6           0       -0.671832   -0.323448   -0.039432
     20          1           0       -3.334969   -3.842598   -0.317211
     21          1           0       -4.134360   -2.437966    0.446775
     22          1           0       -3.898369   -2.473009   -1.318698
     23          1           0       -4.084083   -0.414700   -0.482992
     24          1           0       -3.804610    2.043001   -0.499276
     25          1           0       -0.071550    3.423702   -0.042199
     26          1           0        3.269828    2.593793    0.410797
     27          1           0        5.290525    1.196363    0.703420
     28          1           0        5.084987   -1.310583    0.730199
     29          1           0        2.821248   -2.345430    0.458066
 ---------------------------------------------------------------------

 SCF Done:  E(UB3LYP) =  -878.744380473     A.U. after    1 cycles

 Alpha  occ. eigenvalues --  -18.90417 -18.84398 -18.79919 -18.78167 -10.01065
 Alpha  occ. eigenvalues --   -9.96705  -9.95250  -9.95216  -9.94346  -9.93630
 Alpha  occ. eigenvalues --   -9.92840  -9.92683  -9.92343  -9.91337  -9.91324
 Alpha  occ. eigenvalues --   -9.91200  -9.90980  -9.90542  -9.89226  -0.82068
 Alpha  occ. eigenvalues --   -0.76105  -0.70638  -0.70451  -0.60361  -0.57591
 Alpha  occ. eigenvalues --   -0.52957  -0.50168  -0.50011  -0.47752  -0.44291
 Alpha  occ. eigenvalues --   -0.41188  -0.37749  -0.36743  -0.32383  -0.31432
 Alpha  occ. eigenvalues --   -0.28810  -0.28209  -0.25159  -0.24510  -0.24044
 Alpha  occ. eigenvalues --   -0.22003  -0.20679  -0.19375  -0.18839  -0.18054
 Alpha  occ. eigenvalues --   -0.17247  -0.15529  -0.15013  -0.13854  -0.12917
 Alpha  occ. eigenvalues --   -0.12261  -0.12091  -0.11142  -0.10588  -0.09170
 Alpha  occ. eigenvalues --   -0.08465  -0.08253  -0.08055  -0.07261  -0.02807
 Alpha  occ. eigenvalues --   -0.01098  -0.00046   0.01527   0.02428   0.04968
 Alpha  occ. eigenvalues --    0.06646   0.12233
 Alpha virt. eigenvalues --    0.15120   0.15909   0.17643   0.17808   0.19002
 Alpha virt. eigenvalues --    0.19438   0.20232   0.20760   0.21241   0.22430
 Alpha virt. eigenvalues --    0.22873   0.23305   0.24036   0.25168   0.26259

  Beta  occ. eigenvalues --  -18.90417 -18.84398 -18.79919 -18.78167 -10.01065
  Beta  occ. eigenvalues --   -9.96705  -9.95250  -9.95216  -9.94346  -9.93630
  Beta  occ. eigenvalues --   -9.92840  -9.92683  -9.92343  -9.91337  -9.91324
  Beta  occ. eigenvalues --   -9.91200  -9.90980  -9.90542  -9.89226  -0.82068
  Beta  occ. eigenvalues --   -0.76105  -0.70638  -0.70451  -0.60361  -0.57591
  Beta  occ. eigenvalues --   -0.52957  -0.50168  -0.50011  -0.47752  -0.44291
  Beta  occ. eigenvalues --   -0.41188  -0.37749  -0.36743  -0.32383  -0.31432
  Beta  occ. eigenvalues --   -0.28810  -0.28209  -0.25159  -0.24510  -0.24044
  Beta  occ. eigenvalues --   -0.22003  -0.20679  -0.19375  -0.18839  -0.18054
  Beta  occ. eigenvalues --   -0.17247  -0.15529  -0.15013  -0.13854  -0.12917
  Beta  occ. eigenvalues --   -0.12261  -0.12091  -0.11142  -0.10588  -0.09170
  Beta  occ. eigenvalues --   -0.08465  -0.08253  -0.08055  -0.07261  -0.02807
  Beta  occ. eigenvalues --   -0.01098  -0.00046   0.01527   0.02428   0.04968
  Beta  occ. eigenvalues --    0.06646   0.12233
  Beta virt. eigenvalues --    0.15120   0.15909   0.17643   0.17808   0.19002
  Beta virt. eigenvalues --    0.19438   0.20232   0.20760   0.21241   0.22430
  Beta virt. eigenvalues --    0.22873   0.23305   0.24036   0.25168   0.26259

 Mulliken charges and spin densities:
               1          2
     1  C   -0.246295  -0.000000
     2  O   -0.084083   0.000000
     3  C   -0.320979  -0.000000
     4  C   -0.194985  -0.000000
     5  C   -0.098637   0.000000
     6  C   -0.791141  -0.000000
     7  O   -0.567253   0.000000
     8  C    0.758945   0.000000
     9  C    0.056444   0.000000
    10  O   -0.491254   0.000000
    11  C    0.385204  -0.000000
    12  C   -0.176879  -0.000000
    13  C   -0.487259  -0.000000
    14  C   -0.553024   0.000000
    15  C   -0.011902  -0.000000
    16  C    0.125234   0.000000
    17  C   -0.428048  -0.000000
    18  O   -0.474879  -0.000000
    19  C    0.327472   0.000000
    20  H    0.142976  -0.000000
    21  H    0.077102   0.000000
    22  H    0.077355   0.000000
    23  H    0.102908  -0.000000
    24  H    0.073063   0.000000
    25  H    0.404723  -0.000000
    26  H    0.119659  -0.000000
    27  H    0.073660  -0.000000
    28  H    0.075177   0.000000
    29  H    0.126696  -0.000000
 Sum of Mulliken charges =  -2.00000   0.00000

 Dipole moment (field-independent basis, Debye):
    X=             -1.5361    Y=             -4.7066    Z=             -0.4951  Tot=              4.9756
 Quadrupole moment (field-independent basis, Debye-Ang):
   XX=           -169.5142   YY=           -179.8991   ZZ=           -124.6573
   XY=             10.5314   XZ=             -6.2336   YZ=              2.3920

  Exact polarizability: 429.209  10.656 270.820  36.433  -0.962 153.795
 Approx polarizability: 681.835  -2.149 485.376  61.865  -6.101 215.930

                      1                      2                      3
                      A                      A                      A
 Frequencies --     24.9162                41.9592                63.8738
 Red. masses --      3.3545                 6.6741                 5.9522
 Frc consts  --      0.0012                 0.0069                 0.0143
 IR Inten    --      4.5808                 1.7148                 0.0179

                      4                      5                      6
                      A                      A                      A
 Frequencies --    101.1429               132.1772               171.8031
 Red. masses --      6.4411                 4.6595                 7.6005
 Frc consts  --      0.0388                 0.0480                 0.1322
 IR Inten    --      0.2006                 0.2538                 0.4844

                      7                      8                      9
                      A                      A                      A
 Frequencies --    174.3682               258.8424               261.0221
 Red. masses --      4.4398                 5.5273                 5.0847
 Frc consts  --      0.0795                 0.2182                 0.2041
 IR Inten    --      9.8289                 0.0061                 1.6404

                     10                     11                     12
                      A                      A                      A
 Frequencies --    269.3859               326.8240               350.6365
 Red. masses --      1.1765                 4.5522                 8.6074
 Frc consts  --      0.0503                 0.2865                 0.6235
 IR Inten    --      0.4111                 1.5601                10.7809

                     13                     14                     15
                      A                      A                      A
 Frequencies --    358.8547               362.4869               368.8470
 Red. masses --      8.8099                 4.9269                 7.4254
 Frc consts  --      0.6684                 0.3814                 0.5952
 IR Inten    --      0.1644                 0.0079                 0.1521

                     16                     17                     18
                      A                      A                      A
 Frequencies --    404.1972               429.4093               439.8484
 Red. masses --      6.6835                 8.3305                 3.3563
 Frc consts  --      0.6433                 0.9050                 0.3826
 IR Inten    --     35.8073                 2.3779                 1.4976

                     19                     20                     21
                      A                      A                      A
 Frequencies --    481.1126               487.9181               524.4528
 Red. masses --     11.3151                 4.4435                 8.1948
 Frc consts  --      1.5431                 0.6233                 1.3280
 IR Inten    --      2.4012                 0.7819                 2.5596

                     22                     23                     24
                      A                      A                      A
 Frequencies --    552.8269               580.7090               606.5360
 Red. masses --      6.7746                 2.8312                 4.3538
 Frc consts  --      1.2199                 0.5625                 0.9437
 IR Inten    --      4.3706                42.0603                 5.3516

                     25                     26                     27
                      A                      A                      A
 Frequencies --    610.6169               656.2831               687.5582
 Red. masses --      5.2972                 6.3810                 1.4906
 Frc consts  --      1.1637                 1.6193                 0.4152
 IR Inten    --     15.8742                 0.2936                12.8646

                     28                     29                     30
                      A                      A                      A
 Frequencies --    706.2596               709.6270               722.7114
 Red. masses --      3.3351                 5.7777                 2.0358
 Frc consts  --      0.9801                 1.7142                 0.6265
 IR Inten    --      4.3910                 5.6450                53.6999

                     31                     32                     33
                      A                      A                      A
 Frequencies --    743.8872               761.7096               778.5997
 Red. masses --      6.9129                 1.5865                 2.3813
 Frc consts  --      2.2539                 0.5423                 0.8505
 IR Inten    --     53.4448                 9.1137                 5.5731

                     34                     35                     36
                      A                      A                      A
 Frequencies --    781.7600               802.7010               835.2598
 Red. masses --      1.7611                 6.0456                 6.9644
 Frc consts  --      0.6341                 2.2951                 2.8627
 IR Inten    --     10.4344                 2.0536                30.0667

                     37                     38                     39
                      A                      A                      A
 Frequencies --    888.0901               930.5728               934.2795
 Red. masses --      8.7730                 1.2381                 5.8680
 Frc consts  --      4.0768                 0.6317                 3.0178
 IR Inten    --     73.4789                 2.2852                15.6936

                     40                     41                     42
                      A                      A                      A
 Frequencies --    958.2308              1013.1020              1013.2809
 Red. masses --      1.3122                 2.3000                 1.0509
 Frc consts  --      0.7099                 1.3909                 0.6358
 IR Inten    --      1.7342                61.1931                61.1222

                     43                     44                     45
                      A                      A                      A
 Frequencies --   1052.3045              1078.4316              1107.1402
 Red. masses --      3.4350                 3.9141                 2.8654
 Frc consts  --      2.2411                 2.6821                 2.0694
 IR Inten    --     42.0729               151.6387                98.3040

                     46                     47                     48
                      A                      A                      A
 Frequencies --   1126.0734              1147.9805              1156.4053
 Red. masses --      1.4916                 1.5062                 1.2887
 Frc consts  --      1.1144                 1.1695                 1.0153
 IR Inten    --    119.2840                54.3894                 0.4026

                     49                     50                     51
                      A                      A                      A
 Frequencies --   1170.2546              1191.3335              1213.0392
 Red. masses --      2.1314                 1.8625                 3.1175
 Frc consts  --      1.7198                 1.5575                 2.7028
 IR Inten    --     11.0113                73.7854                97.3307

                     52                     53                     54
                      A                      A                      A
 Frequencies --   1227.2378              1246.2541              1277.2326
 Red. masses --      2.3422                 2.1137                 5.8309
 Frc consts  --      2.0784                 1.9342                 5.6043
 IR Inten    --    246.7357                27.1448                 2.1382

                     55                     56                     57
                      A                      A                      A
 Frequencies --   1308.1828              1325.9859              1356.9111
 Red. masses --      3.8178                 4.1009                 5.7596
 Frc consts  --      3.8494                 4.2482                 6.2480
 IR Inten    --    181.7117                29.8483               161.8278

                     58                     59                     60
                      A                      A                      A
 Frequencies --   1380.0571              1409.1232              1431.8636
 Red. masses --      3.1289                 3.1786                 3.6436
 Frc consts  --      3.5111                 3.7187                 4.4014
 IR Inten    --     28.3646               186.0030               119.3546

                     61                     62                     63
                      A                      A                      A
 Frequencies --   1454.9087              1459.7175              1464.8830
 Red. masses --      2.2971                 1.4048                 1.0517
 Frc consts  --      2.8649                 1.7636                 1.3296
 IR Inten    --    382.7585                53.4691                 0.9628

                     64                     65                     66
                      A                      A                      A
 Frequencies --   1496.8744              1503.5747              1507.7112
 Red. masses --      2.6252                 1.2133                 4.5209
 Frc consts  --      3.4656                 1.6162                 6.0550
 IR Inten    --    429.8417                12.0506               138.5855

                     67                     68                     69
                      A                      A                      A
 Frequencies --   1522.2247              1562.3285              1576.3569
 Red. masses --      5.2643                 4.8955                 5.1508
 Frc consts  --      7.1870                 7.0402                 7.5411
 IR Inten    --    315.2973                49.1893                73.0316

                     70                     71                     72
                      A                      A                      A
 Frequencies --   1614.4442              1663.9510              2613.0022
 Red. masses --      5.6104                 1.7642                 1.0820
 Frc consts  --      8.6158                 2.8780                 4.3529
 IR Inten    --     81.8520                22.3978               735.3949

                     73                     74                     75
                      A                      A                      A
 Frequencies --   2906.7048              2923.2162              3044.9890
 Red. masses --      1.0387                 1.1015                 1.0900
 Frc consts  --      5.1708                 5.5456                 5.9543
 IR Inten    --    249.9502               237.7639                86.2341

                     76                     77                     78
                      A                      A                      A
 Frequencies --   3090.5477              3117.0089              3121.2441
 Red. masses --      1.0831                 1.0900                 1.0857
 Frc consts  --      6.0952                 6.2397                 6.2320
 IR Inten    --     50.2954               115.5102                78.0677

                     79                     80                     81
                      A                      A                      A
 Frequencies --   3157.9917              3159.8908              3168.7142
 Red. masses --      1.0905                 1.0890                 1.0909
 Frc consts  --      6.4075                 6.4068                 6.4538
 IR Inten    --     43.1398                56.0076                40.1203

 - Thermochemistry -
 -------------------
 Temperature   298.150 Kelvin.  Pressure   1.00000 Atm.
 Atom     1 has atomic number  6 and mass  12.00000

 Molecular mass:   254.05791 amu.
 Principal axes and moments of inertia in atomic units:
                           1         2         3
     Eigenvalues --  3034.428175451.096768474.10002
           X            0.97616  -0.17440  -0.12921
           Y            0.17853   0.98371   0.02104
           Z            0.12344  -0.04360   0.99139
 This molecule is an asymmetric top.
 Rotational symmetry number  1.
 Warning -- assumption of classical behavior for rotation
           may cause significant error
 Rotational temperatures (Kelvin)      0.02854     0.01589     0.01022
 Rotational constants (GHZ):           0.59475     0.33108     0.21297
 Zero-point vibrational energy     548157.5 (Joules/Mol)
                                  131.01278 (Kcal/Mol)
 Warning -- explicit consideration of  25 degrees of freedom as
           vibrations may cause significant error
 Vibrational temperatures:     35.85    60.37    91.90   145.52   190.17
          (Kelvin)            247.19   250.88   372.42   375.55   387.59
                              470.23   504.49   516.31   521.54   530.69
                              581.55   617.82   632.84   692.21   702.01
                              754.57   795.39   835.51   872.67   878.54
                              944.24   989.24  1016.15  1020.99  1039.82
                             1070.29  1095.93  1120.23  1124.78  1154.91
                             1201.75  1277.76  1338.89  1344.22  1378.68
                             1457.63  1457.89  1514.03  1551.62  1592.93
                             1620.17  1651.69  1663.81  1683.74  1714.06
                             1745.29  1765.72  1793.08  1837.65  1882.18
                             1907.80  1952.29  1985.59  2027.41  2060.13
                             2093.29  2100.21  2107.64  2153.67  2163.31
                             2169.26  2190.14  2247.84  2268.03  2322.83
                             2394.05  3759.53  4182.10  4205.86  4381.06
                             4446.61  4484.68  4490.77  4543.65  4546.38
                             4559.07

 Zero-point correction=                           0.208782 (Hartree/Particle)
 Thermal correction to Energy=                    0.223856
 Thermal correction to Enthalpy=                  0.224800
 Thermal correction to Gibbs Free Energy=         0.165759
 Sum of electronic and zero-point Energies=           -878.535598
 Sum of electronic and thermal Energies=              -878.520525
 Sum of electronic and thermal Enthalpies=            -878.519581
 Sum of electronic and thermal Free Energies=         -878.578622

                     E (Thermal)             CV                S
                      KCal/Mol        Cal/Mol-Kelvin    Cal/Mol-Kelvin
 Total                  140.471             59.928            124.262
 Electronic               0.000              0.000              0.000
 Translational            0.889              2.981             42.497
 Rotational               0.889              2.981             33.305
 Vibrational            138.694             53.966             48.460
 Vibration     1          0.593              1.985              6.198
 Vibration     2          0.595              1.980              5.164
 Vibration     3          0.597              1.972              4.334
 Vibration     4          0.604              1.948              3.432
 Vibration     5          0.612              1.921              2.914
 Vibration     6          0.626              1.877              2.416
 Vibration     7          0.627              1.874              2.388
 Vibration     8          0.668              1.748              1.670
 Vibration     9          0.669              1.744              1.655
 Vibration    10          0.674              1.730              1.600
 Vibration    11          0.710              1.622              1.276
 Vibration    12          0.728              1.574              1.163
 Vibration    13          0.734              1.557              1.127
 Vibration    14          0.736              1.550              1.111
 Vibration    15          0.741              1.536              1.085
 Vibration    16          0.769              1.461              0.947
 Vibration    17          0.791              1.406              0.861
 Vibration    18          0.800              1.383              0.827
 Vibration    19          0.837              1.292              0.707
 Vibration    20          0.844              1.277              0.689
 Vibration    21          0.879              1.196              0.600
 Vibration    22          0.908              1.134              0.538
 Vibration    23          0.937              1.073              0.484
 Vibration    24          0.965              1.018              0.439
 Vibration    25          0.970              1.009              0.432

                           ! Non-Optimized Parameters !
 Normal termination of Gaussian 16 at Thu Dec 21 11:44:47 2023.
