 Q-Chem 5.4, Q-Chem, Inc., Pleasanton, CA (2021)
 Q-Chem 5.4.0 for Intel X86 EM64T Linux

User input:
--------------------------------------------------------------
$molecule
-3 2
O                 -6.0357430000      0.3386830000     -1.2298600000
S                 -5.4113760000      0.5802900000      0.1079000000
O                 -5.2906750000      2.0227580000      0.4554000000
O                 -6.0450560000     -0.2421660000      1.1847950000
C                 -3.7060410000     -0.0599270000     -0.0398440000
C                 -3.5401440000     -1.4238740000     -0.3747090000
C                 -2.2746820000     -1.9534850000     -0.4965930000
C                 -1.1159490000     -1.1645860000     -0.2943940000
C                  0.2020350000     -1.7790060000     -0.4368880000
O                  0.3410250000     -3.0024320000     -0.7372520000
C                  1.3508780000     -0.9042170000     -0.2137190000
C                  2.6592170000     -1.4327810000     -0.3352380000
C                  3.7758720000     -0.6518220000     -0.1354530000
C                  3.6317090000      0.7143870000      0.2001480000
C                  2.3692360000      1.2593490000      0.3260220000
C                  1.2045740000      0.4732700000      0.1246440000
C                 -0.1239700000      1.0912270000      0.2679670000
O                 -0.2614900000      2.3019940000      0.5653210000
C                 -1.2823030000      0.2107970000      0.0432730000
C                 -2.5957810000      0.7353800000      0.1636520000
S                  5.1529600000      1.6955180000      0.4515450000
O                  5.8931940000      1.6065250000     -0.8453380000
O                  4.7119990000      3.0763910000      0.7902970000
O                  5.8791990000      1.0105950000      1.5656200000
H                 -4.4191670000     -2.0389030000     -0.5326190000
H                 -2.1246560000     -2.9968170000     -0.7526900000
H                  2.7468360000     -2.4827280000     -0.5932520000
H                  4.7721300000     -1.0690980000     -0.2315680000
H                  2.2500810000      2.3042540000      0.5826520000
H                 -2.7139090000      1.7804250000      0.4201830000
$end
$rem
MAX_SCF_CYCLES=200
BASIS  =  6-311++G(d,p)
GUI  =  2
JOB_TYPE  =  SP
METHOD  =  B3LYP
SOLVENT_METHOD = COSMO
$end
$solvent
dielectric 37.219
opticaldielectric 1.43
$end

--------------------------------------------------------------

             Standard Nuclear Orientation (Angstroms)
    I     Atom           X                Y                Z
 ----------------------------------------------------------------
    1      O      -6.0035132627    -0.3654909043     1.2368728807
    2      S      -5.3142872678    -0.8474853792    -0.0002442378
    3      O      -5.0317259087    -2.3090347117     0.0082138535
    4      O      -5.9955860909    -0.3784074958    -1.2466329847
    5      C      -3.6912159287    -0.0075379202     0.0008752586
    6      C      -3.6802646781     1.4066359932     0.0007551462
    7      C      -2.4819651424     2.0854700768     0.0004329974
    8      C      -1.2409227851     1.4030317656     0.0002052476
    9      C       0.0000160270     2.1743741631    -0.0000617087
   10      O       0.0000829954     3.4417761893    -0.0002332016
   11      C       1.2409184224     1.4029717582    -0.0001647544
   12      C       2.4819573858     2.0854085511    -0.0003184392
   13      C       3.6802649611     1.4065946244    -0.0003691879
   14      C       3.6911774534    -0.0075549235    -0.0002844665
   15      C       2.4975886017    -0.7018254433    -0.0001448401
   16      C       1.2509755351    -0.0229537876    -0.0000772451
   17      C      -0.0000614992    -0.7990644606     0.0001639042
   18      O      -0.0000929525    -2.0533721873     0.0002387523
   19      C      -1.2510377248    -0.0228955549     0.0003378076
   20      C      -2.4976391973    -0.7017825683     0.0006133126
   21      S       5.3143072034    -0.8474792193     0.0000115405
   22      O       5.9987669516    -0.3729133847     1.2426191882
   23      O       5.0318566724    -2.3090638501    -0.0013403876
   24      O       6.0003384844    -0.3709092178    -1.2409348008
   25      H      -4.6236123938     1.9413998684     0.0013540754
   26      H      -2.4506007997     3.1697446796     0.0004363165
   27      H       2.4505359585     3.1696823620    -0.0004328255
   28      H       4.6236082898     1.9413755969    -0.0005468134
   29      H       2.4970908998    -1.7843609299    -0.0000932418
   30      H      -2.4971046225    -1.7843171448     0.0008010512
 ----------------------------------------------------------------

    9   -1935.5730227264      7.74e-06  Convergence criterion met
 Total energy in the final basis set =    -1935.5730227264
    4   -1936.0483475196      5.91e-06  Convergence criterion met
 Total energy in the final basis set =    -1936.0483475196

                    Orbital Energies (a.u.)
 --------------------------------------------------------------

 Alpha MOs
 -- Occupied --
-89.0482 -89.0481 -19.0943 -19.0942 -19.0920 -19.0920 -19.0919 -19.0919
-19.0836 -19.0802 -10.2339 -10.2284 -10.1977 -10.1977 -10.1810 -10.1810
-10.1801 -10.1801 -10.1793 -10.1793 -10.1787 -10.1787 -10.1740 -10.1740
 -8.1068  -8.1068  -6.0696  -6.0696  -6.0695  -6.0695  -6.0684  -6.0684
 -1.1085  -1.1085  -1.0104  -1.0015  -0.9749  -0.9748  -0.9701  -0.9701
 -0.8681  -0.8590  -0.7957  -0.7588  -0.7582  -0.7495  -0.6807  -0.6581
 -0.6439  -0.6041  -0.5967  -0.5767  -0.5607  -0.5272  -0.5256  -0.4937
 -0.4852  -0.4795  -0.4623  -0.4556  -0.4555  -0.4532  -0.4505  -0.4310
 -0.4303  -0.4260  -0.4255  -0.4211  -0.4172  -0.3981  -0.3849  -0.3792
 -0.3763  -0.3538  -0.3517  -0.3424  -0.3372  -0.3366  -0.3365  -0.3364
 -0.3056  -0.3031  -0.2984  -0.2983  -0.2940  -0.2923  -0.2675  -0.2625
 -0.2595  -0.2588  -0.2587  -0.2522  -0.2481  -0.2433  -0.1486

 Beta MOs
 -- Occupied --
-89.0482 -89.0481 -19.0942 -19.0942 -19.0920 -19.0920 -19.0919 -19.0919
-19.0783 -19.0745 -10.2324 -10.2264 -10.1970 -10.1970 -10.1805 -10.1805
-10.1799 -10.1799 -10.1789 -10.1789 -10.1780 -10.1780 -10.1739 -10.1739
 -8.1068  -8.1068  -6.0697  -6.0696  -6.0695  -6.0695  -6.0684  -6.0684
 -1.1085  -1.1084  -1.0011  -0.9913  -0.9748  -0.9748  -0.9700  -0.9700
 -0.8656  -0.8578  -0.7917  -0.7574  -0.7556  -0.7479  -0.6748  -0.6553
 -0.6423  -0.6028  -0.5954  -0.5759  -0.5581  -0.5263  -0.5239  -0.4924
 -0.4842  -0.4773  -0.4615  -0.4553  -0.4552  -0.4528  -0.4498  -0.4306
 -0.4291  -0.4237  -0.4200  -0.4132  -0.4126  -0.3954  -0.3778  -0.3732
 -0.3614  -0.3510  -0.3450  -0.3409  -0.3371  -0.3363  -0.3361  -0.3356
 -0.3045  -0.2983  -0.2983  -0.2967  -0.2935  -0.2917  -0.2591  -0.2587
 -0.2586  -0.2518  -0.2480  -0.2472  -0.2432  -0.2382

          Ground-State Mulliken Net Atomic Charges

     Atom                 Charge (a.u.)    Spin (a.u.)
  --------------------------------------------------------
      1 O                    -0.391772      -0.000446
      2 S                     0.879001       0.001561
      3 O                    -0.428255       0.000308
      4 O                    -0.390624      -0.000412
      5 C                    -1.131568       0.034889
      6 C                    -0.556228       0.035834
      7 C                    -0.257700       0.037278
      8 C                     0.641727       0.032154
      9 C                    -0.279324       0.110965
     10 O                    -0.479920       0.213805
     11 C                     0.641657       0.032126
     12 C                    -0.258155       0.037280
     13 C                    -0.557183       0.035815
     14 C                    -1.129939       0.034867
     15 C                     0.092621       0.003020
     16 C                     0.476866       0.059962
     17 C                    -0.948700       0.084007
     18 O                    -0.454737       0.192709
     19 C                     0.477315       0.059997
     20 C                     0.092362       0.002996
     21 S                     0.879284       0.001555
     22 O                    -0.391127      -0.000425
     23 O                    -0.428265       0.000308
     24 O                    -0.391310      -0.000433
     25 H                     0.241064      -0.002812
     26 H                     0.181936      -0.001723
     27 H                     0.181952      -0.001723
     28 H                     0.241072      -0.002811
     29 H                     0.223922      -0.000326
     30 H                     0.223993      -0.000325
  --------------------------------------------------------
  Sum of atomic charges =    -3.000037

                    Cartesian Multipole Moments
 -----------------------------------------------------------------
    Charge (ESU x 10^10)
               -14.4098
    Dipole Moment (Debye)
         X       0.0016      Y       9.1461      Z       0.0037
       Tot       9.1461
    Quadrupole Moments (Debye-Ang)
        XX    -521.0988     XY      -0.0040     YY    -217.5774
        XZ      -0.0295     YZ       0.0034     ZZ    -178.4952

 Total job time:  112.60s(wall), 849.46s(cpu)
        *  Thank you very much for using Q-Chem.  Have a nice day.  *
