 Q-Chem 5.4, Q-Chem, Inc., Pleasanton, CA (2021)
 Q-Chem 5.4.0 for Intel X86 EM64T Linux

User input:
--------------------------------------------------------------
$molecule
-2 1
C                  0.7901260000      1.7059230000     -0.6366420000
C                 -0.5047370000      1.0407330000     -0.5920940000
C                 -0.6257160000     -0.2751560000     -0.0807200000
C                  0.5543080000     -1.0310760000      0.3156970000
C                  1.8235420000     -0.3609340000      0.2427660000
C                  1.9373100000      0.9473140000     -0.2197310000
C                  3.2831760000      1.6287670000     -0.3174170000
C                  3.0362790000     -1.1363260000      0.7044790000
O                  0.9220930000      2.9300040000     -1.0541190000
O                  0.4767260000     -2.2572530000      0.7405650000
H                  4.0426110000      0.9824700000     -0.7807780000
H                  3.6826840000      1.9214900000      0.6684150000
H                  3.1656160000      2.5406120000     -0.9081000000
H                  2.6937360000     -2.0294870000      1.2328490000
H                  3.6829280000     -0.5403730000      1.3645930000
H                  3.6703480000     -1.4704520000     -0.1342690000
C                 -1.9032790000     -1.0795830000      0.1944790000
C                 -3.0925500000     -0.3577890000      0.8504150000
C                 -2.3459340000     -1.9730120000     -0.9885110000
C                 -1.5937250000      1.9317640000     -1.2046680000
C                 -2.2852650000      2.8657180000     -0.1833620000
C                 -2.5996120000      1.2906510000     -2.1756130000
H                 -1.5524860000     -1.8028070000      0.9391510000
H                 -3.8164820000     -1.0993500000      1.2170030000
H                 -3.6373140000      0.3161610000      0.1876500000
H                 -2.7544310000      0.2303030000      1.7099290000
H                 -3.1665230000     -2.6453320000     -0.6855540000
H                 -1.5000520000     -2.5919460000     -1.2982090000
H                 -2.6894650000     -1.3981380000     -1.8523320000
H                 -0.9978350000      2.6210980000     -1.8132440000
H                 -2.9378500000      3.5921120000     -0.6968290000
H                 -1.5181610000      3.4255030000      0.3576740000
H                 -2.8972560000      2.3253390000      0.5433230000
H                 -3.1372580000      2.0785430000     -2.7220100000
H                 -3.3547520000      0.6632820000     -1.6997670000
H                 -2.0766680000      0.6721460000     -2.9124460000
$end

$rem
BASIS  =  6-311++G(d,p)
GUI  =  2
JOB_TYPE  =  SP
METHOD  =  B3LYP
SCF_CONVERGENCE  = 8
SOLVENT_METHOD = sm12
$end

$smx
solvent dimethylformamide
charges CM5
$end

--------------------------------------------------------------

             Standard Nuclear Orientation (Angstroms)
    I     Atom           X                Y                Z
 ----------------------------------------------------------------
    1      C       0.7901260000     1.7059230000    -0.6366420000
    2      C      -0.5047370000     1.0407330000    -0.5920940000
    3      C      -0.6257160000    -0.2751560000    -0.0807200000
    4      C       0.5543080000    -1.0310760000     0.3156970000
    5      C       1.8235420000    -0.3609340000     0.2427660000
    6      C       1.9373100000     0.9473140000    -0.2197310000
    7      C       3.2831760000     1.6287670000    -0.3174170000
    8      C       3.0362790000    -1.1363260000     0.7044790000
    9      O       0.9220930000     2.9300040000    -1.0541190000
   10      O       0.4767260000    -2.2572530000     0.7405650000
   11      H       4.0426110000     0.9824700000    -0.7807780000
   12      H       3.6826840000     1.9214900000     0.6684150000
   13      H       3.1656160000     2.5406120000    -0.9081000000
   14      H       2.6937360000    -2.0294870000     1.2328490000
   15      H       3.6829280000    -0.5403730000     1.3645930000
   16      H       3.6703480000    -1.4704520000    -0.1342690000
   17      C      -1.9032790000    -1.0795830000     0.1944790000
   18      C      -3.0925500000    -0.3577890000     0.8504150000
   19      C      -2.3459340000    -1.9730120000    -0.9885110000
   20      C      -1.5937250000     1.9317640000    -1.2046680000
   21      C      -2.2852650000     2.8657180000    -0.1833620000
   22      C      -2.5996120000     1.2906510000    -2.1756130000
   23      H      -1.5524860000    -1.8028070000     0.9391510000
   24      H      -3.8164820000    -1.0993500000     1.2170030000
   25      H      -3.6373140000     0.3161610000     0.1876500000
   26      H      -2.7544310000     0.2303030000     1.7099290000
   27      H      -3.1665230000    -2.6453320000    -0.6855540000
   28      H      -1.5000520000    -2.5919460000    -1.2982090000
   29      H      -2.6894650000    -1.3981380000    -1.8523320000
   30      H      -0.9978350000     2.6210980000    -1.8132440000
   31      H      -2.9378500000     3.5921120000    -0.6968290000
   32      H      -1.5181610000     3.4255030000     0.3576740000
   33      H      -2.8972560000     2.3253390000     0.5433230000
   34      H      -3.1372580000     2.0785430000    -2.7220100000
   35      H      -3.3547520000     0.6632820000    -1.6997670000
   36      H      -2.0766680000     0.6721460000    -2.9124460000
 ----------------------------------------------------------------

   19    -696.1128353362      8.58e-09  Convergence criterion met
 Total energy in the final basis set =     -696.3938201073

                    Orbital Energies (a.u.)
 --------------------------------------------------------------

 Alpha MOs
 -- Occupied --
-19.0112 -19.0112 -10.1672 -10.1671 -10.1666 -10.1666 -10.1640 -10.1639
-10.1623 -10.1623 -10.1594 -10.1594 -10.1364 -10.1360 -10.1334 -10.1329
 -0.9283  -0.9252  -0.8066  -0.7882  -0.7829  -0.7269  -0.7135  -0.6925
 -0.6867  -0.6490  -0.6411  -0.5844  -0.5742  -0.5161  -0.5059  -0.4769
 -0.4479  -0.4409  -0.4397  -0.4329  -0.4249  -0.4140  -0.4107  -0.4003
 -0.3943  -0.3938  -0.3839  -0.3801  -0.3779  -0.3712  -0.3506  -0.3443
 -0.3428  -0.3413  -0.3311  -0.3288  -0.3145  -0.3024  -0.2972  -0.2920
 -0.2167  -0.2058  -0.1953  -0.1834  -0.1131

          Ground-State Mulliken Net Atomic Charges

     Atom                 Charge (a.u.)
  ----------------------------------------
      1 C                    -2.546687
      2 C                    -1.408710
      3 C                    -1.404572
      4 C                    -2.544899
      5 C                    -0.944312
      6 C                    -0.938950
      7 C                     0.533567
      8 C                     0.540779
      9 O                    -0.288511
     10 O                    -0.287722
     11 H                     0.197394
     12 H                     0.170507
     13 H                     0.153001
     14 H                     0.151937
     15 H                     0.197173
     16 H                     0.170016
     17 C                     1.483774
     18 C                     0.480521
     19 C                    -0.012137
     20 C                     1.480120
     21 C                    -0.009317
     22 C                     0.478825
     23 H                     0.033283
     24 H                     0.394689
     25 H                     0.102205
     26 H                     0.035674
     27 H                     0.287731
     28 H                     0.119542
     29 H                     0.198856
     30 H                     0.036117
     31 H                     0.287117
     32 H                     0.118558
     33 H                     0.201246
     34 H                     0.394206
     35 H                     0.102628
     36 H                     0.036350
  ----------------------------------------
  Sum of atomic charges =    -2.000000

                    Cartesian Multipole Moments
 -----------------------------------------------------------------
    Charge (ESU x 10^10)
                -9.6064
    Dipole Moment (Debye)
         X      -4.9599      Y      -3.2896      Z       1.7554
       Tot       6.2051
    Quadrupole Moments (Debye-Ang)
        XX    -143.7733     XY      -4.9853     YY    -167.4576
        XZ      -1.3293     YZ      17.3582     ZZ    -121.7962

 Total job time:  1368.00s(wall), 10719.85s(cpu)
        *  Thank you very much for using Q-Chem.  Have a nice day.  *
