 Gaussian 16, Revision A.03,
 Gaussian 16:  ES64L-G16RevA.03 25-Dec-2016

 --------------------------------------
 #P UB3LYP/6-311++G(d,p) nosym opt freq
 --------------------------------------

 -------
 Reduced
 -------
 Symbolic Z-matrix:
 Charge = -2 Multiplicity = 1

 SCF Done:  E(UB3LYP) =  -696.122511402     A.U. after   37 cycles
 SCF Done:  E(UB3LYP) =  -696.122510525     A.U. after   31 cycles
 SCF Done:  E(UB3LYP) =  -696.122505534     A.U. after   33 cycles
 SCF Done:  E(UB3LYP) =  -696.122511388     A.U. after   32 cycles
 SCF Done:  E(UB3LYP) =  -696.122511490     A.U. after   60 cycles
 SCF Done:  E(UB3LYP) =  -696.122511663     A.U. after  106 cycles
 SCF Done:  E(UB3LYP) =  -696.122511762     A.U. after   32 cycles
 Optimization completed.
    -- Stationary point found.
 Normal termination of Gaussian 16 at Sat Jan  6 08:55:12 2024.

 ----------------------------------------------------------------------
 #P Geom=AllCheck Guess=TCheck SCRF=Check GenChk UB3LYP/6-311++G(d,p) F
 req
 ----------------------------------------------------------------------

 Structure from the checkpoint file:  "043-an.chk"
 -------
 Reduced
 -------
 Charge = -2 Multiplicity = 1

                          Input orientation:
 ---------------------------------------------------------------------
 Center     Atomic      Atomic             Coordinates (Angstroms)
 Number     Number       Type             X           Y           Z
 ---------------------------------------------------------------------
      1          6           0        0.790126    1.705923   -0.636642
      2          6           0       -0.504737    1.040733   -0.592094
      3          6           0       -0.625716   -0.275156   -0.080720
      4          6           0        0.554308   -1.031076    0.315697
      5          6           0        1.823542   -0.360934    0.242766
      6          6           0        1.937310    0.947314   -0.219731
      7          6           0        3.283176    1.628767   -0.317417
      8          6           0        3.036279   -1.136326    0.704479
      9          8           0        0.922093    2.930004   -1.054119
     10          8           0        0.476726   -2.257253    0.740565
     11          1           0        4.042611    0.982470   -0.780778
     12          1           0        3.682684    1.921490    0.668415
     13          1           0        3.165616    2.540612   -0.908100
     14          1           0        2.693736   -2.029487    1.232849
     15          1           0        3.682928   -0.540373    1.364593
     16          1           0        3.670348   -1.470452   -0.134269
     17          6           0       -1.903279   -1.079583    0.194479
     18          6           0       -3.092550   -0.357789    0.850415
     19          6           0       -2.345934   -1.973012   -0.988511
     20          6           0       -1.593725    1.931764   -1.204668
     21          6           0       -2.285265    2.865718   -0.183362
     22          6           0       -2.599612    1.290651   -2.175613
     23          1           0       -1.552486   -1.802807    0.939151
     24          1           0       -3.816482   -1.099350    1.217003
     25          1           0       -3.637314    0.316161    0.187650
     26          1           0       -2.754431    0.230303    1.709929
     27          1           0       -3.166523   -2.645332   -0.685554
     28          1           0       -1.500052   -2.591946   -1.298209
     29          1           0       -2.689465   -1.398138   -1.852332
     30          1           0       -0.997835    2.621098   -1.813244
     31          1           0       -2.937850    3.592112   -0.696829
     32          1           0       -1.518161    3.425503    0.357674
     33          1           0       -2.897256    2.325339    0.543323
     34          1           0       -3.137258    2.078543   -2.722010
     35          1           0       -3.354752    0.663282   -1.699767
     36          1           0       -2.076668    0.672146   -2.912446
 ---------------------------------------------------------------------

 SCF Done:  E(UB3LYP) =  -696.122511762     A.U. after   13 cycles

 Alpha  occ. eigenvalues --  -18.77198 -18.77197  -9.93081  -9.93080  -9.92628
 Alpha  occ. eigenvalues --   -9.92626  -9.92400  -9.92396  -9.92194  -9.92191
 Alpha  occ. eigenvalues --   -9.91598  -9.91598  -9.89359  -9.89313  -9.89096
 Alpha  occ. eigenvalues --   -9.89041  -0.68741  -0.68342  -0.56605  -0.54519
 Alpha  occ. eigenvalues --   -0.54257  -0.48440  -0.47006  -0.45595  -0.45016
 Alpha  occ. eigenvalues --   -0.40638  -0.39976  -0.34297  -0.33270  -0.27222
 Alpha  occ. eigenvalues --   -0.26466  -0.23551  -0.20861  -0.20328  -0.20064
 Alpha  occ. eigenvalues --   -0.19591  -0.18327  -0.17657  -0.17395  -0.16120
 Alpha  occ. eigenvalues --   -0.15892  -0.15309  -0.14965  -0.13798  -0.13680
 Alpha  occ. eigenvalues --   -0.13046  -0.11118  -0.10413  -0.10222  -0.10013
 Alpha  occ. eigenvalues --   -0.08980  -0.08585  -0.07287  -0.05927  -0.05501
 Alpha  occ. eigenvalues --   -0.04862   0.02777   0.04186   0.04602   0.05799
 Alpha  occ. eigenvalues --    0.13497
 Alpha virt. eigenvalues --    0.15244   0.16058   0.16940   0.17446   0.18482
 Alpha virt. eigenvalues --    0.18810   0.19232   0.19947   0.20059   0.21454
 Alpha virt. eigenvalues --    0.21646   0.21692   0.22202   0.22411   0.23223

  Beta  occ. eigenvalues --  -18.77198 -18.77197  -9.93081  -9.93080  -9.92628
  Beta  occ. eigenvalues --   -9.92626  -9.92400  -9.92396  -9.92194  -9.92191
  Beta  occ. eigenvalues --   -9.91598  -9.91598  -9.89359  -9.89313  -9.89096
  Beta  occ. eigenvalues --   -9.89041  -0.68741  -0.68342  -0.56605  -0.54519
  Beta  occ. eigenvalues --   -0.54257  -0.48440  -0.47006  -0.45595  -0.45016
  Beta  occ. eigenvalues --   -0.40638  -0.39976  -0.34297  -0.33270  -0.27222
  Beta  occ. eigenvalues --   -0.26466  -0.23551  -0.20861  -0.20328  -0.20064
  Beta  occ. eigenvalues --   -0.19591  -0.18327  -0.17657  -0.17395  -0.16120
  Beta  occ. eigenvalues --   -0.15892  -0.15309  -0.14965  -0.13798  -0.13680
  Beta  occ. eigenvalues --   -0.13046  -0.11118  -0.10413  -0.10222  -0.10013
  Beta  occ. eigenvalues --   -0.08980  -0.08585  -0.07287  -0.05927  -0.05501
  Beta  occ. eigenvalues --   -0.04862   0.02777   0.04186   0.04602   0.05799
  Beta  occ. eigenvalues --    0.13497
  Beta virt. eigenvalues --    0.15244   0.16058   0.16940   0.17446   0.18482
  Beta virt. eigenvalues --    0.18810   0.19232   0.19947   0.20059   0.21454
  Beta virt. eigenvalues --    0.21646   0.21692   0.22202   0.22411   0.23223

 Mulliken charges and spin densities:
               1          2
     1  C   -1.680301   0.000000
     2  C    2.069123  -0.000000
     3  C    2.073513  -0.000000
     4  C   -1.683043  -0.000000
     5  C    0.933735  -0.000000
     6  C    0.930915   0.000000
     7  C   -0.527780   0.000000
     8  C   -0.527301  -0.000000
     9  O   -0.482140   0.000000
    10  O   -0.482049   0.000000
    11  H    0.089290   0.000000
    12  H    0.081725   0.000000
    13  H    0.164677   0.000000
    14  H    0.164531  -0.000000
    15  H    0.089298  -0.000000
    16  H    0.081764   0.000000
    17  C   -1.385475  -0.000000
    18  C   -0.256213   0.000000
    19  C   -0.043318   0.000000
    20  C   -1.381246   0.000000
    21  C   -0.043732  -0.000000
    22  C   -0.259298  -0.000000
    23  H    0.219354   0.000000
    24  H   -0.218705  -0.000000
    25  H    0.032163  -0.000000
    26  H    0.103470  -0.000000
    27  H   -0.387439  -0.000000
    28  H    0.202807  -0.000000
    29  H    0.083738   0.000000
    30  H    0.219645  -0.000000
    31  H   -0.386953   0.000000
    32  H    0.202238  -0.000000
    33  H    0.083636   0.000000
    34  H   -0.216428   0.000000
    35  H    0.032296  -0.000000
    36  H    0.103504  -0.000000
 Sum of Mulliken charges =  -2.00000  -0.00000

 Dipole moment (field-independent basis, Debye):
    X=              2.7003    Y=             -3.5704    Z=              2.8422  Tot=              5.3026
 Quadrupole moment (field-independent basis, Debye-Ang):
   XX=           -173.6899   YY=           -182.3877   ZZ=           -128.5937
   XY=             -1.8852   XZ=             -6.6455   YZ=             19.2952

  Exact polarizability:1408.350  37.0992409.885  90.247-625.053 987.531
 Approx polarizability:3338.187 -22.4651499.160 374.848-313.668 664.547

                      1                      2                      3
                      A                      A                      A
 Frequencies --     49.9653                62.8554                73.4207
 Red. masses --      3.4487                 3.1593                 1.1649
 Frc consts  --      0.0051                 0.0074                 0.0037
 IR Inten    --      0.0547                 8.2685                 2.0862

                      4                      5                      6
                      A                      A                      A
 Frequencies --     96.7974               101.7570               136.7244
 Red. masses --      3.6432                 1.0637                 2.4256
 Frc consts  --      0.0201                 0.0065                 0.0267
 IR Inten    --     12.7911                 0.3567                 5.1312

                      7                      8                      9
                      A                      A                      A
 Frequencies --    145.6249               163.2980               181.6042
 Red. masses --      2.7752                 2.7667                 2.1992
 Frc consts  --      0.0347                 0.0435                 0.0427
 IR Inten    --      0.6067                 6.8921                24.8881

                     10                     11                     12
                      A                      A                      A
 Frequencies --    195.2143               211.7446               236.0498
 Red. masses --      1.4277                 1.3778                 2.0724
 Frc consts  --      0.0321                 0.0364                 0.0680
 IR Inten    --     40.8296                 9.2070                 1.2400

                     13                     14                     15
                      A                      A                      A
 Frequencies --    241.6975               247.6410               256.2176
 Red. masses --      2.5703                 2.0097                 1.2906
 Frc consts  --      0.0885                 0.0726                 0.0499
 IR Inten    --      0.3736                 1.4078                 0.8679

                     16                     17                     18
                      A                      A                      A
 Frequencies --    259.4612               281.5719               286.8064
 Red. masses --      1.7056                 1.6753                 2.7524
 Frc consts  --      0.0676                 0.0783                 0.1334
 IR Inten    --      6.8756                16.0847                56.3421

                     19                     20                     21
                      A                      A                      A
 Frequencies --    324.4467               346.8918               405.2773
 Red. masses --      2.4959                 3.3130                 5.5518
 Frc consts  --      0.1548                 0.2349                 0.5373
 IR Inten    --      3.4836                 7.4811                67.1081

                     22                     23                     24
                      A                      A                      A
 Frequencies --    426.2502               430.7320               439.8950
 Red. masses --      7.0062                 2.8185                 4.5099
 Frc consts  --      0.7500                 0.3081                 0.5142
 IR Inten    --      9.0053                47.1774               700.3197

                     25                     26                     27
                      A                      A                      A
 Frequencies --    449.0952               486.1493               498.0760
 Red. masses --      4.7165                 3.6671                 3.9258
 Frc consts  --      0.5605                 0.5106                 0.5738
 IR Inten    --     17.6087               364.7121                13.9823

                     28                     29                     30
                      A                      A                      A
 Frequencies --    544.3442               590.9318               608.5038
 Red. masses --      3.1164                 3.9962                 4.6462
 Frc consts  --      0.5441                 0.8222                 1.0136
 IR Inten    --     45.0172                46.8613                 9.4045

                     31                     32                     33
                      A                      A                      A
 Frequencies --    714.0750               732.6492               772.2540
 Red. masses --      3.5002                 7.4398                 4.8082
 Frc consts  --      1.0515                 2.3529                 1.6895
 IR Inten    --      3.7284                20.8845                 4.3509

                     34                     35                     36
                      A                      A                      A
 Frequencies --    793.5055               844.9731               901.5963
 Red. masses --      6.8932                 3.0367                 2.2587
 Frc consts  --      2.5572                 1.2774                 1.0817
 IR Inten    --      8.9814                26.8619                 8.2919

                     37                     38                     39
                      A                      A                      A
 Frequencies --    903.9724               915.8759               925.8755
 Red. masses --      2.3703                 1.3308                 1.2885
 Frc consts  --      1.1412                 0.6577                 0.6508
 IR Inten    --      9.0498                14.6435                35.7153

                     40                     41                     42
                      A                      A                      A
 Frequencies --    952.0294               952.6276               982.6337
 Red. masses --      1.3742                 1.4397                 1.5252
 Frc consts  --      0.7338                 0.7698                 0.8677
 IR Inten    --      4.5487                67.8930                 1.9685

                     43                     44                     45
                      A                      A                      A
 Frequencies --    988.2073              1024.2767              1046.1336
 Red. masses --      2.3989                 1.4057                 1.5201
 Frc consts  --      1.3803                 0.8689                 0.9802
 IR Inten    --      2.5429                20.8899                 1.7959

                     46                     47                     48
                      A                      A                      A
 Frequencies --   1065.9258              1087.9799              1095.9679
 Red. masses --      4.6888                 1.5974                 2.6434
 Frc consts  --      3.1388                 1.1140                 1.8707
 IR Inten    --    300.6462                 9.9652                 7.2233

                     49                     50                     51
                      A                      A                      A
 Frequencies --   1118.7723              1121.1322              1135.5819
 Red. masses --      2.6910                 2.4744                 1.9681
 Frc consts  --      1.9845                 1.8325                 1.4953
 IR Inten    --    137.0046                84.0632                53.0585

                     52                     53                     54
                      A                      A                      A
 Frequencies --   1177.5760              1189.6511              1197.0421
 Red. masses --      2.1930                 2.5445                 4.5485
 Frc consts  --      1.7917                 2.1217                 3.8400
 IR Inten    --    677.9909                15.1873                21.8387

                     55                     56                     57
                      A                      A                      A
 Frequencies --   1250.5863              1311.6362              1337.4403
 Red. masses --      3.1688                 4.0317                 1.5327
 Frc consts  --      2.9200                 4.0866                 1.6153
 IR Inten    --     84.8037              2360.8759                86.0926

                     58                     59                     60
                      A                      A                      A
 Frequencies --   1358.1184              1360.7984              1364.5399
 Red. masses --      1.3102                 1.2590                 1.3509
 Frc consts  --      1.4239                 1.3736                 1.4820
 IR Inten    --     29.2087                64.3187                72.7462

                     61                     62                     63
                      A                      A                      A
 Frequencies --   1364.9980              1374.3622              1381.4209
 Red. masses --      1.4114                 1.3016                 1.2275
 Frc consts  --      1.5494                 1.4485                 1.3801
 IR Inten    --     82.5172                 8.1904               271.1167

                     64                     65                     66
                      A                      A                      A
 Frequencies --   1389.8423              1392.1989              1407.6208
 Red. masses --      1.2930                 1.4478                 1.6792
 Frc consts  --      1.4716                 1.6533                 1.9603
 IR Inten    --    195.6130              1089.9772               745.3883

                     67                     68                     69
                      A                      A                      A
 Frequencies --   1407.9971              1451.1150              1451.7392
 Red. masses --      3.1720                 2.7213                 1.4565
 Frc consts  --      3.7050                 3.3762                 1.8086
 IR Inten    --    151.6042                71.6082                83.4394

                     70                     71                     72
                      A                      A                      A
 Frequencies --   1470.7464              1475.0067              1481.5276
 Red. masses --      1.0706                 1.0498                 1.0577
 Frc consts  --      1.3644                 1.3457                 1.3678
 IR Inten    --      2.4886                33.6275                 5.9075

                     73                     74                     75
                      A                      A                      A
 Frequencies --   1484.5913              1484.9760              1486.7476
 Red. masses --      1.1204                 1.5348                 1.0892
 Frc consts  --      1.4549                 1.9941                 1.4185
 IR Inten    --    185.4297               143.7460               197.9214

                     76                     77                     78
                      A                      A                      A
 Frequencies --   1487.0182              1488.7001              1503.4110
 Red. masses --      1.1436                 1.0596                 1.0531
 Frc consts  --      1.4900                 1.3836                 1.4025
 IR Inten    --     41.8624                11.2663                49.4722

                     79                     80                     81
                      A                      A                      A
 Frequencies --   1504.6824              1507.5849              1514.9935
 Red. masses --      1.1648                 1.0580                 1.0574
 Frc consts  --      1.5538                 1.4168                 1.4299
 IR Inten    --     40.3909                27.5710                68.3888

                     82                     83                     84
                      A                      A                      A
 Frequencies --   1557.1618              2918.4966              2923.7227
 Red. masses --      5.9466                 1.0689                 1.0583
 Frc consts  --      8.4955                 5.3642                 5.3299
 IR Inten    --   2893.1522               664.3865                97.8103

                     85                     86                     87
                      A                      A                      A
 Frequencies --   2936.1271              2937.5726              2967.8037
 Red. masses --      1.0596                 1.0594                 1.0686
 Frc consts  --      5.3821                 5.3865                 5.5455
 IR Inten    --     49.5800                91.7790              1315.8451

                     88                     89                     90
                      A                      A                      A
 Frequencies --   2969.2835              2976.3448              2978.5231
 Red. masses --      1.0794                 1.0564                 1.0549
 Frc consts  --      5.6070                 5.5136                 5.5139
 IR Inten    --    210.2969               595.2514                71.8424

                     91                     92                     93
                      A                      A                      A
 Frequencies --   2997.5734              2998.1386              3042.3061
 Red. masses --      1.0795                 1.0813                 1.0835
 Frc consts  --      5.7147                 5.7265                 5.9084
 IR Inten    --     37.8774               150.5254                68.7576

                     94                     95                     96
                      A                      A                      A
 Frequencies --   3042.5651              3056.2445              3056.8586
 Red. masses --      1.0834                 1.0716                 1.0725
 Frc consts  --      5.9088                 5.8976                 5.9045
 IR Inten    --    481.6399                 5.4400                 9.2901

                     97                     98                     99
                      A                      A                      A
 Frequencies --   3073.4766              3073.9459              3087.7346
 Red. masses --      1.0924                 1.0918                 1.0964
 Frc consts  --      6.0798                 6.0783                 6.1586
 IR Inten    --     40.3543                23.0024                 9.8613

                    100                    101                    102
                      A                      A                      A
 Frequencies --   3091.7767              3094.0907              3108.2087
 Red. masses --      1.1015                 1.1011                 1.0903
 Frc consts  --      6.2039                 6.2109                 6.2062
 IR Inten    --      0.5599                 2.5490                 5.4603

 - Thermochemistry -
 -------------------
 Temperature   298.150 Kelvin.  Pressure   1.00000 Atm.
 Atom     1 has atomic number  6 and mass  12.00000

 Molecular mass:   220.14633 amu.
 Principal axes and moments of inertia in atomic units:
                           1         2         3
     Eigenvalues --  2731.923323735.879035761.86201
           X            0.98935   0.07630  -0.12395
           Y           -0.03640   0.95422   0.29687
           Z            0.14092  -0.28919   0.94684
 This molecule is an asymmetric top.
 Rotational symmetry number  1.
 Warning -- assumption of classical behavior for rotation
           may cause significant error
 Rotational temperatures (Kelvin)      0.03170     0.02318     0.01503
 Rotational constants (GHZ):           0.66061     0.48308     0.31322
 Zero-point vibrational energy     794330.7 (Joules/Mol)
                                  189.84958 (Kcal/Mol)
 Warning -- explicit consideration of  30 degrees of freedom as
           vibrations may cause significant error
 Vibrational temperatures:     71.89    90.43   105.64   139.27   146.41
          (Kelvin)            196.72   209.52   234.95   261.29   280.87
                              304.65   339.62   347.75   356.30   368.64
                              373.31   405.12   412.65   466.81   499.10
                              583.10   613.28   619.73   632.91   646.15
                              699.46   716.62   783.19   850.22   875.50
                             1027.39  1054.12  1111.10  1141.68  1215.73
                             1297.20  1300.61  1317.74  1332.13  1369.76
                             1370.62  1413.79  1421.81  1473.71  1505.15
                             1533.63  1565.36  1576.85  1609.66  1613.06
                             1633.85  1694.27  1711.64  1722.28  1799.31
                             1887.15  1924.28  1954.03  1957.89  1963.27
                             1963.93  1977.40  1987.56  1999.67  2003.06
                             2025.25  2025.79  2087.83  2088.73  2116.08
                             2122.21  2131.59  2136.00  2136.55  2139.10
                             2139.49  2141.91  2163.07  2164.90  2169.08
                             2179.74  2240.41  4199.07  4206.58  4224.43
                             4226.51  4270.01  4272.14  4282.30  4285.43
                             4312.84  4313.65  4377.20  4377.57  4397.25
                             4398.14  4422.05  4422.72  4442.56  4448.38
                             4451.71  4472.02

 Zero-point correction=                           0.302545 (Hartree/Particle)
 Thermal correction to Energy=                    0.320651
 Thermal correction to Enthalpy=                  0.321595
 Thermal correction to Gibbs Free Energy=         0.257985
 Sum of electronic and zero-point Energies=           -695.819967
 Sum of electronic and thermal Energies=              -695.801861
 Sum of electronic and thermal Enthalpies=            -695.800917
 Sum of electronic and thermal Free Energies=         -695.864527

                     E (Thermal)             CV                S
                      KCal/Mol        Cal/Mol-Kelvin    Cal/Mol-Kelvin
 Total                  201.212             68.070            133.880
 Electronic               0.000              0.000              0.000
 Translational            0.889              2.981             42.070
 Rotational               0.889              2.981             32.442
 Vibrational            199.434             62.108             59.368
 Vibration     1          0.595              1.978              4.819
 Vibration     2          0.597              1.972              4.365
 Vibration     3          0.599              1.967              4.059
 Vibration     4          0.603              1.951              3.518
 Vibration     5          0.604              1.948              3.420
 Vibration     6          0.614              1.917              2.849
 Vibration     7          0.617              1.907              2.729
 Vibration     8          0.623              1.887              2.511
 Vibration     9          0.630              1.865              2.312
 Vibration    10          0.636              1.847              2.178
 Vibration    11          0.643              1.823              2.029
 Vibration    12          0.655              1.786              1.832
 Vibration    13          0.658              1.776              1.790
 Vibration    14          0.661              1.767              1.747
 Vibration    15          0.666              1.752              1.687
 Vibration    16          0.668              1.747              1.665
 Vibration    17          0.681              1.708              1.524
 Vibration    18          0.684              1.698              1.493
 Vibration    19          0.709              1.627              1.288
 Vibration    20          0.725              1.582              1.180
 Vibration    21          0.770              1.459              0.943
 Vibration    22          0.788              1.413              0.871
 Vibration    23          0.792              1.403              0.856
 Vibration    24          0.800              1.383              0.827
 Vibration    25          0.808              1.363              0.799
 Vibration    26          0.842              1.281              0.694
 Vibration    27          0.854              1.254              0.663
 Vibration    28          0.899              1.152              0.556
 Vibration    29          0.948              1.051              0.466
 Vibration    30          0.967              1.014              0.435

                           ! Non-Optimized Parameters !
 Normal termination of Gaussian 16 at Sat Jan  6 10:34:40 2024.
