 Gaussian 16, Revision A.03,
 Gaussian 16:  ES64L-G16RevA.03 25-Dec-2016

 --------------------------------------
 #P UB3LYP/6-311++G(d,p) nosym opt freq
 --------------------------------------

 --------
 Oxidized
 --------
 Symbolic Z-matrix:
 Charge =  0 Multiplicity = 1

 SCF Done:  E(UB3LYP) =  -535.435809478     A.U. after   16 cycles
 SCF Done:  E(UB3LYP) =  -535.439319385     A.U. after   13 cycles
 SCF Done:  E(UB3LYP) =  -535.440182759     A.U. after   13 cycles
 SCF Done:  E(UB3LYP) =  -535.440547075     A.U. after   13 cycles
 SCF Done:  E(UB3LYP) =  -535.440571692     A.U. after   11 cycles
 SCF Done:  E(UB3LYP) =  -535.440573826     A.U. after   11 cycles
 Optimization completed.
    -- Stationary point found.
 Normal termination of Gaussian 16 at Wed Dec 20 01:28:50 2023.

 ----------------------------------------------------------------------
 #P Geom=AllCheck Guess=TCheck SCRF=Check GenChk UB3LYP/6-311++G(d,p) F
 req
 ----------------------------------------------------------------------

 Structure from the checkpoint file:  "083.chk"
 --------
 Oxidized
 --------
 Charge =  0 Multiplicity = 1

                          Input orientation:
 ---------------------------------------------------------------------
 Center     Atomic      Atomic             Coordinates (Angstroms)
 Number     Number       Type             X           Y           Z
 ---------------------------------------------------------------------
      1          6           0        1.518094    1.304645   -0.643153
      2          6           0        0.264131    1.871000   -0.107378
      3          6           0       -0.719780    1.073425    0.309862
      4          6           0       -0.596438   -0.405938    0.252971
      5          6           0        0.646576   -1.030054   -0.278242
      6          6           0        1.648191   -0.208050   -0.702716
      7          8           0        2.416618    2.026395   -1.024856
      8          8           0       -1.534465   -1.084804    0.651706
      9          6           0        0.637088   -2.544456   -0.278380
     10          8           0        2.850208   -0.502952   -1.215751
     11          6           0        3.346877   -1.826544   -1.432009
     12          1           0        0.209305    2.953264   -0.081159
     13          1           0       -1.655887    1.446038    0.709901
     14          1           0       -0.317320   -2.877627    0.126010
     15          1           0        1.425678   -2.965784    0.346967
     16          1           0        0.733983   -2.961267   -1.282021
     17          1           0        4.339946   -1.681580   -1.853361
     18          1           0        2.728461   -2.372879   -2.144550
     19          1           0        3.428845   -2.379524   -0.496030
 ---------------------------------------------------------------------

 SCF Done:  E(UB3LYP) =  -535.440573826     A.U. after    1 cycles

 Alpha  occ. eigenvalues --  -19.18439 -19.13849 -19.13001 -10.28602 -10.27954
 Alpha  occ. eigenvalues --  -10.27458 -10.24673 -10.21401 -10.21233 -10.21052
 Alpha  occ. eigenvalues --  -10.18161  -1.10581  -1.06557  -1.06156  -0.86269
 Alpha  occ. eigenvalues --   -0.80843  -0.77047  -0.70129  -0.69417  -0.62051
 Alpha  occ. eigenvalues --   -0.60453  -0.54684  -0.53500  -0.50235  -0.50032
 Alpha  occ. eigenvalues --   -0.47174  -0.45480  -0.45185  -0.44135  -0.43700
 Alpha  occ. eigenvalues --   -0.43236  -0.41395  -0.40870  -0.39259  -0.37359
 Alpha  occ. eigenvalues --   -0.35324  -0.31082  -0.28673  -0.27548  -0.25934
 Alpha virt. eigenvalues --   -0.12716  -0.02566  -0.01868  -0.00026   0.00243
 Alpha virt. eigenvalues --    0.01023   0.01674   0.01953   0.02931   0.03765
 Alpha virt. eigenvalues --    0.05383   0.05464   0.05991   0.06618   0.07027

  Beta  occ. eigenvalues --  -19.18439 -19.13849 -19.13001 -10.28602 -10.27954
  Beta  occ. eigenvalues --  -10.27458 -10.24673 -10.21401 -10.21233 -10.21052
  Beta  occ. eigenvalues --  -10.18161  -1.10581  -1.06557  -1.06156  -0.86269
  Beta  occ. eigenvalues --   -0.80843  -0.77047  -0.70129  -0.69417  -0.62051
  Beta  occ. eigenvalues --   -0.60453  -0.54684  -0.53500  -0.50235  -0.50032
  Beta  occ. eigenvalues --   -0.47174  -0.45480  -0.45185  -0.44135  -0.43700
  Beta  occ. eigenvalues --   -0.43236  -0.41395  -0.40870  -0.39259  -0.37359
  Beta  occ. eigenvalues --   -0.35324  -0.31082  -0.28673  -0.27548  -0.25934
  Beta virt. eigenvalues --   -0.12716  -0.02566  -0.01868  -0.00026   0.00243
  Beta virt. eigenvalues --    0.01023   0.01674   0.01953   0.02931   0.03765
  Beta virt. eigenvalues --    0.05383   0.05464   0.05991   0.06618   0.07027

 Mulliken charges and spin densities:
               1          2
     1  C   -0.568758   0.000000
     2  C    0.295125  -0.000000
     3  C   -0.151308  -0.000000
     4  C   -0.442733   0.000000
     5  C    1.638440   0.000000
     6  C   -0.826010  -0.000000
     7  O   -0.220983   0.000000
     8  O   -0.248721   0.000000
     9  C   -0.569565  -0.000000
    10  O   -0.147743   0.000000
    11  C   -0.205790   0.000000
    12  H    0.218413   0.000000
    13  H    0.220021   0.000000
    14  H    0.216744   0.000000
    15  H    0.144450   0.000000
    16  H    0.144114   0.000000
    17  H    0.192534   0.000000
    18  H    0.155996  -0.000000
    19  H    0.155776  -0.000000
 Sum of Mulliken charges =  -0.00000  -0.00000

 Dipole moment (field-independent basis, Debye):
    X=              0.9566    Y=             -1.8657    Z=             -0.4139  Tot=              2.1371
 Quadrupole moment (field-independent basis, Debye-Ang):
   XX=            -68.5991   YY=            -60.7236   ZZ=            -64.5665
   XY=            -16.9033   XZ=              2.0354   YZ=              7.2168

  Exact polarizability: 126.260  12.527 117.098 -28.018  -5.190  72.398
 Approx polarizability: 228.897  62.918 177.335 -57.839 -26.604 117.439

 ******    2 imaginary frequencies (negative Signs) ******

                      1                      2                      3
                      A                      A                      A
 Frequencies --    -92.5073               -61.7835                69.6766
 Red. masses --      1.3129                 1.8420                 8.2353
 Frc consts  --      0.0066                 0.0041                 0.0236
 IR Inten    --      0.6015                 2.2961                 8.0907

                      4                      5                      6
                      A                      A                      A
 Frequencies --    101.7151               238.4512               241.7780
 Red. masses --      5.1888                 3.1150                 3.6173
 Frc consts  --      0.0316                 0.1044                 0.1246
 IR Inten    --      6.3737                 0.0222                 5.1819

                      7                      8                      9
                      A                      A                      A
 Frequencies --    261.3738               272.8614               332.5149
 Red. masses --      1.2609                 3.1087                 4.7006
 Frc consts  --      0.0508                 0.1364                 0.3062
 IR Inten    --      0.2268                 0.0525                 2.5664

                     10                     11                     12
                      A                      A                      A
 Frequencies --    352.3693               421.4065               456.2626
 Red. masses --      3.8344                 7.6071                 9.5929
 Frc consts  --      0.2805                 0.7959                 1.1766
 IR Inten    --      1.5334                20.9596                 4.9837

                     13                     14                     15
                      A                      A                      A
 Frequencies --    482.7592               526.2162               603.1933
 Red. masses --      7.2995                 4.3295                 4.9075
 Frc consts  --      1.0023                 0.7064                 1.0520
 IR Inten    --      5.5881                 4.2393                 2.8793

                     16                     17                     18
                      A                      A                      A
 Frequencies --    620.4335               633.6986               758.2743
 Red. masses --      4.9685                 2.5361                 7.4972
 Frc consts  --      1.1268                 0.6000                 2.5398
 IR Inten    --     13.2001                 5.3796                 3.3354

                     19                     20                     21
                      A                      A                      A
 Frequencies --    782.0726               862.4859               889.0889
 Red. masses --      7.2405                 2.2086                 2.2376
 Frc consts  --      2.6092                 0.9680                 1.0421
 IR Inten    --      3.6604                39.3481                 3.1088

                     22                     23                     24
                      A                      A                      A
 Frequencies --    966.9484              1004.1830              1045.0791
 Red. masses --      6.3700                 1.2385                 1.4230
 Frc consts  --      3.5091                 0.7358                 0.9157
 IR Inten    --      5.6483                 0.0012                 0.1433

                     25                     26                     27
                      A                      A                      A
 Frequencies --   1054.5527              1098.0664              1140.4563
 Red. masses --      4.2320                 1.7128                 1.7776
 Frc consts  --      2.7729                 1.2168                 1.3622
 IR Inten    --     28.8643                95.4844                 7.5765

                     28                     29                     30
                      A                      A                      A
 Frequencies --   1155.8968              1193.4175              1248.8012
 Red. masses --      1.2665                 1.5964                 2.7713
 Frc consts  --      0.9970                 1.3396                 2.5464
 IR Inten    --      0.8853                 8.4605               244.9853

                     31                     32                     33
                      A                      A                      A
 Frequencies --   1303.6205              1313.6325              1386.9975
 Red. masses --      3.9884                 3.9472                 1.8698
 Frc consts  --      3.9934                 4.0132                 2.1193
 IR Inten    --    237.3843                38.4462                 3.0287

                     34                     35                     36
                      A                      A                      A
 Frequencies --   1411.2246              1477.2132              1478.4364
 Red. masses --      1.2655                 1.1195                 1.1604
 Frc consts  --      1.4849                 1.4393                 1.4944
 IR Inten    --     18.1959                23.8382                 9.8239

                     37                     38                     39
                      A                      A                      A
 Frequencies --   1493.4681              1511.8170              1520.1880
 Red. masses --      1.0483                 1.0500                 1.0469
 Frc consts  --      1.3776                 1.4140                 1.4254
 IR Inten    --      1.7713                 9.0866                23.5107

                     40                     41                     42
                      A                      A                      A
 Frequencies --   1625.0307              1685.8424              1701.1692
 Red. masses --      8.1282                 9.9262                 8.5102
 Frc consts  --     12.6464                16.6214                14.5107
 IR Inten    --    289.3435                28.0975               179.2963

                     43                     44                     45
                      A                      A                      A
 Frequencies --   1742.6345              3041.8003              3060.0030
 Red. masses --     11.5573                 1.0339                 1.0333
 Frc consts  --     20.6784                 5.6363                 5.7004
 IR Inten    --    227.8500                 3.1249                60.9820

                     46                     47                     48
                      A                      A                      A
 Frequencies --   3102.7797              3133.9165              3135.0049
 Red. masses --      1.1028                 1.0982                 1.1062
 Frc consts  --      6.2553                 6.3551                 6.4058
 IR Inten    --      1.6641                 2.1517                31.3531

                     49                     50                     51
                      A                      A                      A
 Frequencies --   3143.8294              3179.6430              3198.1629
 Red. masses --      1.1047                 1.0870                 1.1003
 Frc consts  --      6.4330                 6.4750                 6.6307
 IR Inten    --     10.7979                 1.0869                 2.9883

 - Thermochemistry -
 -------------------
 Temperature   298.150 Kelvin.  Pressure   1.00000 Atm.
 Atom     1 has atomic number  6 and mass  12.00000

 Molecular mass:   152.04734 amu.
 Principal axes and moments of inertia in atomic units:
                           1         2         3
     Eigenvalues --  1241.857021569.751542788.78981
           X            0.91865   0.04780   0.39217
           Y           -0.05091   0.99870  -0.00249
           Z           -0.39178  -0.01767   0.91989
 This molecule is an asymmetric top.
 Rotational symmetry number  1.
 Warning -- assumption of classical behavior for rotation
           may cause significant error
 Rotational temperatures (Kelvin)      0.06975     0.05518     0.03106
 Rotational constants (GHZ):           1.45326     1.14970     0.64714
    2 imaginary frequencies ignored.
 Zero-point vibrational energy     379577.8 (Joules/Mol)
                                   90.72126 (Kcal/Mol)
 Warning -- explicit consideration of  14 degrees of freedom as
           vibrations may cause significant error
 Vibrational temperatures:    100.25   146.35   343.08   347.86   376.06
          (Kelvin)            392.59   478.41   506.98   606.31   656.46
                              694.58   757.11   867.86   892.67   911.75
                             1090.99  1125.23  1240.92  1279.20  1391.22
                             1444.80  1503.64  1517.27  1579.87  1640.86
                             1663.08  1717.06  1796.75  1875.62  1890.02
                             1995.58  2030.44  2125.38  2127.14  2148.77
                             2175.17  2187.21  2338.06  2425.55  2447.60
                             2507.26  4376.47  4402.66  4464.21  4509.01
                             4510.57  4523.27  4574.80  4601.44

 Zero-point correction=                           0.144574 (Hartree/Particle)
 Thermal correction to Energy=                    0.153639
 Thermal correction to Enthalpy=                  0.154583
 Thermal correction to Gibbs Free Energy=         0.110101
 Sum of electronic and zero-point Energies=           -535.296000
 Sum of electronic and thermal Energies=              -535.286935
 Sum of electronic and thermal Enthalpies=            -535.285991
 Sum of electronic and thermal Free Energies=         -535.330473

                     E (Thermal)             CV                S
                      KCal/Mol        Cal/Mol-Kelvin    Cal/Mol-Kelvin
 Total                   96.410             34.404             93.620
 Electronic               0.000              0.000              0.000
 Translational            0.889              2.981             40.967
 Rotational               0.889              2.981             30.076
 Vibrational             94.632             28.443             22.578
 Vibration     1          0.598              1.969              4.162
 Vibration     2          0.604              1.948              3.421
 Vibration     3          0.656              1.782              1.814
 Vibration     4          0.658              1.776              1.790
 Vibration     5          0.669              1.743              1.653
 Vibration     6          0.676              1.723              1.578
 Vibration     7          0.714              1.611              1.248
 Vibration     8          0.729              1.570              1.156
 Vibration     9          0.784              1.424              0.887
 Vibration    10          0.814              1.347              0.777
 Vibration    11          0.839              1.288              0.703
 Vibration    12          0.881              1.192              0.596
 Vibration    13          0.962              1.025              0.444
 Vibration    14          0.980              0.989              0.416

                           ! Non-Optimized Parameters !
 Normal termination of Gaussian 16 at Wed Dec 20 01:35:26 2023.
