 Q-Chem 5.4, Q-Chem, Inc., Pleasanton, CA (2021)
 Q-Chem 5.4.0 for Intel X86 EM64T Linux

User input:
--------------------------------------------------------------
$molecule
-2 1
C                 -1.7577920000      1.4984150000      1.0612110000
C                 -2.9331680000      0.7105160000      0.8126270000
C                 -2.9794570000     -0.5362360000      0.1943620000
C                 -1.7731460000     -1.1890640000     -0.2812220000
C                 -0.5929590000     -0.4168720000     -0.0407610000
C                 -0.5756250000      0.8442500000      0.5879670000
O                 -1.7687310000     -2.3465400000     -0.8602660000
O                 -1.7979610000      2.6456450000      1.6395250000
I                  1.2102050000      1.9866790000      0.9358940000
I                  1.1821340000     -1.3979250000     -0.7484410000
H                 -3.8447850000      1.1844180000      1.1621310000
C                 -4.3213600000     -1.2744720000     -0.0095800000
C                 -5.5348170000     -0.4927080000      0.5314130000
C                 -4.2781060000     -2.6391500000      0.7212870000
C                 -4.5546780000     -1.5162880000     -1.5213550000
H                 -5.6469170000      0.4764830000      0.0355210000
H                 -5.4530830000     -0.3103900000      1.6074720000
H                 -6.4500780000     -1.0737010000      0.3534020000
H                 -4.1839330000     -2.4843370000      1.8024610000
H                 -3.4143430000     -3.2048350000      0.3659300000
H                 -5.2003360000     -3.2119660000      0.5353410000
H                 -4.6582570000     -0.5582920000     -2.0441160000
H                 -5.4744300000     -2.0992390000     -1.6870500000
H                 -3.6976410000     -2.0547720000     -1.9310730000
$end
$rem
MAX_SCF_CYCLES=200
BASIS  =  6-311++G(d,p)
GUI  =  2
JOB_TYPE  =  SP
METHOD  =  B3LYP
SOLVENT_METHOD = PCM
$end
$pcm
theory = CPCM
$end
$solvent
dielectric 37.219
opticaldielectric 1.43
$end

--------------------------------------------------------------

             Standard Nuclear Orientation (Angstroms)
    I     Atom           X                Y                Z
 ----------------------------------------------------------------
    1      C      -1.7577920000     1.4984150000     1.0612110000
    2      C      -2.9331680000     0.7105160000     0.8126270000
    3      C      -2.9794570000    -0.5362360000     0.1943620000
    4      C      -1.7731460000    -1.1890640000    -0.2812220000
    5      C      -0.5929590000    -0.4168720000    -0.0407610000
    6      C      -0.5756250000     0.8442500000     0.5879670000
    7      O      -1.7687310000    -2.3465400000    -0.8602660000
    8      O      -1.7979610000     2.6456450000     1.6395250000
    9      I       1.2102050000     1.9866790000     0.9358940000
   10      I       1.1821340000    -1.3979250000    -0.7484410000
   11      H      -3.8447850000     1.1844180000     1.1621310000
   12      C      -4.3213600000    -1.2744720000    -0.0095800000
   13      C      -5.5348170000    -0.4927080000     0.5314130000
   14      C      -4.2781060000    -2.6391500000     0.7212870000
   15      C      -4.5546780000    -1.5162880000    -1.5213550000
   16      H      -5.6469170000     0.4764830000     0.0355210000
   17      H      -5.4530830000    -0.3103900000     1.6074720000
   18      H      -6.4500780000    -1.0737010000     0.3534020000
   19      H      -4.1839330000    -2.4843370000     1.8024610000
   20      H      -3.4143430000    -3.2048350000     0.3659300000
   21      H      -5.2003360000    -3.2119660000     0.5353410000
   22      H      -4.6582570000    -0.5582920000    -2.0441160000
   23      H      -5.4744300000    -2.0992390000    -1.6870500000
   24      H      -3.6976410000    -2.0547720000    -1.9310730000
 ----------------------------------------------------------------

   10  -14376.9653156879      6.22e-06  Convergence criterion met
 Total energy in the final basis set =   -14376.9653156879

                    Orbital Energies (a.u.)
 --------------------------------------------------------------

 Alpha MOs
 -- Occupied --
*****************-176.2734-176.2727-165.6769-165.6762-165.6752-165.6751
********-165.6743 -35.7699 -35.7692 -31.2624 -31.2616 -31.2576 -31.2572
-31.2569 -31.2565 -22.9131 -22.9123 -22.9120 -22.9117 -22.9113 -22.9110
-22.9084 -22.9084 -22.9077 -22.9077 -19.0277 -19.0218 -10.1872 -10.1860
-10.1806 -10.1797 -10.1667 -10.1445 -10.1403 -10.1334 -10.1334 -10.1310
 -6.3191  -6.3186  -4.7297  -4.7292  -4.7181  -4.7176  -4.7173  -4.7166
 -1.9961  -1.9952  -1.9920  -1.9918  -1.9914  -1.9909  -1.9816  -1.9815
 -1.9809  -1.9808  -0.9466  -0.9406  -0.8101  -0.7850  -0.7145  -0.6747
 -0.6665  -0.6623  -0.6262  -0.6157  -0.5576  -0.5299  -0.4990  -0.4558
 -0.4426  -0.4181  -0.4073  -0.4057  -0.3868  -0.3804  -0.3668  -0.3624
 -0.3558  -0.3478  -0.3331  -0.3234  -0.3224  -0.3114  -0.3064  -0.3016
 -0.2783  -0.2623  -0.2528  -0.2346  -0.2322  -0.2086  -0.2067  -0.1953
 -0.1305

          Ground-State Mulliken Net Atomic Charges

     Atom                 Charge (a.u.)
  ----------------------------------------
      1 C                    -0.978292
      2 C                    -0.441559
      3 C                     0.813826
      4 C                    -0.776304
      5 C                    -0.125777
      6 C                     0.687395
      7 O                    -0.577485
      8 O                    -0.640084
      9 I                    -0.123953
     10 I                    -0.113615
     11 H                     0.162456
     12 C                     0.715536
     13 C                    -0.528814
     14 C                    -0.694162
     15 C                    -0.695296
     16 H                     0.131763
     17 H                     0.131607
     18 H                     0.169051
     19 H                     0.125763
     20 H                     0.173287
     21 H                     0.142630
     22 H                     0.126170
     23 H                     0.142442
     24 H                     0.173416
  ----------------------------------------
  Sum of atomic charges =    -2.000000

                    Cartesian Multipole Moments
 -----------------------------------------------------------------
    Charge (ESU x 10^10)
                -9.6064
    Dipole Moment (Debye)
         X      10.6996      Y      -2.2228      Z      -3.3407
       Tot      11.4273
    Quadrupole Moments (Debye-Ang)
        XX    -167.6697     XY       1.6564     YY    -191.1100
        XZ       5.1089     YZ     -25.3542     ZZ    -154.8115

 Total job time:  51.14s(wall), 364.92s(cpu)
        *  Thank you very much for using Q-Chem.  Have a nice day.  *
