 Gaussian 16, Revision A.03,
 Gaussian 16:  ES64L-G16RevA.03 25-Dec-2016

 -------------------------------
 #P UB3LYP/genecp nosym opt freq
 -------------------------------

 -------
 Reduced
 -------
 Symbolic Z-matrix:
 Charge = -2 Multiplicity = 1

 SCF Done:  E(UB3LYP) =  -1133.26417748     A.U. after   22 cycles
 SCF Done:  E(UB3LYP) =  -1133.26417751     A.U. after   14 cycles
 SCF Done:  E(UB3LYP) =  -1133.26417705     A.U. after   15 cycles
 SCF Done:  E(UB3LYP) =  -1133.26417762     A.U. after   15 cycles
 Optimization completed.
    -- Stationary point found.
 Normal termination of Gaussian 16 at Sat Jan  6 20:08:02 2024.

 ------------------------------------------------------------------
 #P Geom=AllCheck Guess=TCheck SCRF=Check GenChk UB3LYP/GenECP Freq
 ------------------------------------------------------------------

 Structure from the checkpoint file:  "016-an.chk"
 -------
 Reduced
 -------
 Charge = -2 Multiplicity = 1

                          Input orientation:
 ---------------------------------------------------------------------
 Center     Atomic      Atomic             Coordinates (Angstroms)
 Number     Number       Type             X           Y           Z
 ---------------------------------------------------------------------
      1          6           0       -1.757792    1.498415    1.061211
      2          6           0       -2.933168    0.710516    0.812627
      3          6           0       -2.979457   -0.536236    0.194362
      4          6           0       -1.773146   -1.189064   -0.281222
      5          6           0       -0.592959   -0.416872   -0.040761
      6          6           0       -0.575625    0.844250    0.587967
      7          8           0       -1.768731   -2.346540   -0.860266
      8          8           0       -1.797961    2.645645    1.639525
      9         53           0        1.210205    1.986679    0.935894
     10         53           0        1.182134   -1.397925   -0.748441
     11          1           0       -3.844785    1.184418    1.162131
     12          6           0       -4.321360   -1.274472   -0.009580
     13          6           0       -5.534817   -0.492708    0.531413
     14          6           0       -4.278106   -2.639150    0.721287
     15          6           0       -4.554678   -1.516288   -1.521355
     16          1           0       -5.646917    0.476483    0.035521
     17          1           0       -5.453083   -0.310390    1.607472
     18          1           0       -6.450078   -1.073701    0.353402
     19          1           0       -4.183933   -2.484337    1.802461
     20          1           0       -3.414343   -3.204835    0.365930
     21          1           0       -5.200336   -3.211966    0.535341
     22          1           0       -4.658257   -0.558292   -2.044116
     23          1           0       -5.474430   -2.099239   -1.687050
     24          1           0       -3.697641   -2.054772   -1.931073
 ---------------------------------------------------------------------

 SCF Done:  E(UB3LYP) =  -1133.26417762     A.U. after    1 cycles

 Alpha  occ. eigenvalues --  -18.77053 -18.76599  -9.95714  -9.94635  -9.93937
 Alpha  occ. eigenvalues --   -9.93637  -9.93596  -9.93358  -9.92847  -9.92845
 Alpha  occ. eigenvalues --   -9.90536  -9.88888  -6.57984  -6.57926  -4.60297
 Alpha  occ. eigenvalues --   -4.60234  -4.59369  -4.59311  -4.59264  -4.59212
 Alpha  occ. eigenvalues --   -1.65126  -1.65063  -1.64829  -1.64766  -1.64746
 Alpha  occ. eigenvalues --   -1.64688  -1.63938  -1.63936  -1.63885  -1.63883
 Alpha  occ. eigenvalues --   -0.69077  -0.68354  -0.59131  -0.54731  -0.48327
 Alpha  occ. eigenvalues --   -0.46698  -0.45667  -0.44946  -0.41168  -0.40077
 Alpha  occ. eigenvalues --   -0.33835  -0.29449  -0.27399  -0.22514  -0.22275
 Alpha  occ. eigenvalues --   -0.21619  -0.18999  -0.17179  -0.16949  -0.16203
 Alpha  occ. eigenvalues --   -0.14380  -0.12795  -0.12015  -0.10963  -0.10497
 Alpha  occ. eigenvalues --   -0.10118  -0.09735  -0.07928  -0.06855  -0.06352
 Alpha  occ. eigenvalues --   -0.03337  -0.01817  -0.01008   0.00996   0.02062
 Alpha  occ. eigenvalues --    0.03391   0.05106   0.05621   0.12373
 Alpha virt. eigenvalues --    0.15394   0.17719   0.18044   0.19180   0.19803
 Alpha virt. eigenvalues --    0.20939   0.21057   0.22245   0.22704   0.24057
 Alpha virt. eigenvalues --    0.24375   0.24984   0.25510   0.25681   0.26840

  Beta  occ. eigenvalues --  -18.77053 -18.76599  -9.95714  -9.94635  -9.93937
  Beta  occ. eigenvalues --   -9.93637  -9.93596  -9.93358  -9.92847  -9.92845
  Beta  occ. eigenvalues --   -9.90536  -9.88888  -6.57984  -6.57926  -4.60297
  Beta  occ. eigenvalues --   -4.60234  -4.59369  -4.59311  -4.59264  -4.59212
  Beta  occ. eigenvalues --   -1.65126  -1.65063  -1.64829  -1.64766  -1.64746
  Beta  occ. eigenvalues --   -1.64688  -1.63938  -1.63936  -1.63885  -1.63883
  Beta  occ. eigenvalues --   -0.69077  -0.68354  -0.59131  -0.54731  -0.48327
  Beta  occ. eigenvalues --   -0.46698  -0.45667  -0.44946  -0.41168  -0.40077
  Beta  occ. eigenvalues --   -0.33835  -0.29449  -0.27399  -0.22514  -0.22275
  Beta  occ. eigenvalues --   -0.21619  -0.18999  -0.17179  -0.16949  -0.16203
  Beta  occ. eigenvalues --   -0.14380  -0.12795  -0.12015  -0.10963  -0.10497
  Beta  occ. eigenvalues --   -0.10118  -0.09735  -0.07928  -0.06855  -0.06352
  Beta  occ. eigenvalues --   -0.03337  -0.01817  -0.01008   0.00996   0.02062
  Beta  occ. eigenvalues --    0.03391   0.05106   0.05621   0.12373
  Beta virt. eigenvalues --    0.15394   0.17719   0.18044   0.19180   0.19803
  Beta virt. eigenvalues --    0.20939   0.21057   0.22245   0.22704   0.24057
  Beta virt. eigenvalues --    0.24375   0.24984   0.25510   0.25681   0.26840

 Mulliken charges and spin densities:
               1          2
     1  C   -1.664541   0.000000
     2  C   -0.099225  -0.000000
     3  C    1.039476   0.000000
     4  C   -1.122327  -0.000000
     5  C    0.338284   0.000000
     6  C    0.993666  -0.000000
     7  O   -0.418920  -0.000000
     8  O   -0.463545  -0.000000
     9  I   -0.290218   0.000000
    10  I   -0.281568  -0.000000
    11  H    0.103703   0.000000
    12  C    0.801221  -0.000000
    13  C   -0.572811   0.000000
    14  C   -0.701664   0.000000
    15  C   -0.701811   0.000000
    16  H    0.110120  -0.000000
    17  H    0.110125  -0.000000
    18  H    0.111436   0.000000
    19  H    0.090996   0.000000
    20  H    0.196215   0.000000
    21  H    0.067089  -0.000000
    22  H    0.090968   0.000000
    23  H    0.067097  -0.000000
    24  H    0.196236   0.000000
 Sum of Mulliken charges =  -2.00000  -0.00000

 Dipole moment (field-independent basis, Debye):
    X=             11.7042    Y=             -1.0985    Z=             -2.9026  Tot=             12.1087
 Quadrupole moment (field-independent basis, Debye-Ang):
   XX=           -192.1195   YY=           -188.6662   ZZ=           -152.7285
   XY=             -5.9707   XZ=              4.5503   YZ=            -23.6569

  Exact polarizability: 308.517  28.772 243.291  -4.380  39.740 177.004
 Approx polarizability: 447.949  19.323 402.367 -14.402  72.113 291.088

                      1                      2                      3
                      A                      A                      A
 Frequencies --     32.1118                52.9109                76.5554
 Red. masses --      9.0018                 4.5855                 4.1159
 Frc consts  --      0.0055                 0.0076                 0.0142
 IR Inten    --      1.5562                 6.8769                 0.3139

                      4                      5                      6
                      A                      A                      A
 Frequencies --     92.2765               119.5102               167.8300
 Red. masses --     65.8200                 8.0989                 7.8405
 Frc consts  --      0.3302                 0.0682                 0.1301
 IR Inten    --      2.9019                 3.2998                 4.6851

                      7                      8                      9
                      A                      A                      A
 Frequencies --    175.3400               211.5319               215.7793
 Red. masses --      8.5403                 4.8378                 9.9491
 Frc consts  --      0.1547                 0.1275                 0.2729
 IR Inten    --      0.5765                 1.6506                 4.5130

                     10                     11                     12
                      A                      A                      A
 Frequencies --    238.1077               250.1617               258.9955
 Red. masses --      4.7793                 1.4768                 2.4695
 Frc consts  --      0.1596                 0.0545                 0.0976
 IR Inten    --      2.0965                 0.0038                 0.4726

                     13                     14                     15
                      A                      A                      A
 Frequencies --    288.6611               296.2436               321.6513
 Red. masses --      1.8678                 1.4956                 1.0971
 Frc consts  --      0.0917                 0.0773                 0.0669
 IR Inten    --      2.5417                 0.6569                 0.2153

                     16                     17                     18
                      A                      A                      A
 Frequencies --    338.3342               338.6327               404.2032
 Red. masses --      4.4006                 2.8325                 2.6682
 Frc consts  --      0.2968                 0.1914                 0.2568
 IR Inten    --     11.1435                 0.6414                 0.0134

                     19                     20                     21
                      A                      A                      A
 Frequencies --    415.7349               464.7095               477.1814
 Red. masses --      2.6352                 5.1084                 7.3965
 Frc consts  --      0.2683                 0.6500                 0.9923
 IR Inten    --      2.3252                 4.3434                 4.0825

                     22                     23                     24
                      A                      A                      A
 Frequencies --    540.9802               564.8754               660.4585
 Red. masses --      4.9374                 3.9821                 3.9264
 Frc consts  --      0.8514                 0.7486                 1.0091
 IR Inten    --      0.4815                 0.0133                 0.0013

                     25                     26                     27
                      A                      A                      A
 Frequencies --    665.4012               717.9267               740.7890
 Red. masses --      6.3611                 8.3299                 7.8324
 Frc consts  --      1.6594                 2.5296                 2.5324
 IR Inten    --      3.8743                63.7065                 5.6999

                     28                     29                     30
                      A                      A                      A
 Frequencies --    804.9002               825.1280               837.6532
 Red. masses --      5.0855                 4.4465                 1.6821
 Frc consts  --      1.9412                 1.7837                 0.6954
 IR Inten    --    129.0470                58.3068                12.3708

                     31                     32                     33
                      A                      A                      A
 Frequencies --    916.1570               926.4823               953.0071
 Red. masses --      1.7956                 1.7641                 1.2136
 Frc consts  --      0.8880                 0.8921                 0.6494
 IR Inten    --      0.2212                 8.3841                 0.3527

                     34                     35                     36
                      A                      A                      A
 Frequencies --    956.4567              1033.7648              1046.7701
 Red. masses --      4.7923                 1.5418                 1.3792
 Frc consts  --      2.5830                 0.9708                 0.8904
 IR Inten    --      9.7962                27.4393                 0.0906

                     37                     38                     39
                      A                      A                      A
 Frequencies --   1077.5703              1110.7171              1207.8053
 Red. masses --      2.8546                10.3110                 2.6211
 Frc consts  --      1.9530                 7.4948                 2.2528
 IR Inten    --     84.1345               174.4336                 5.9450

                     40                     41                     42
                      A                      A                      A
 Frequencies --   1211.0997              1253.9550              1265.0151
 Red. masses --      2.3399                 2.2871                 2.5682
 Frc consts  --      2.0222                 2.1188                 2.4214
 IR Inten    --     41.3830                61.3103                20.7841

                     43                     44                     45
                      A                      A                      A
 Frequencies --   1325.4712              1351.7230              1354.2369
 Red. masses --      5.2944                 1.2144                 1.8117
 Frc consts  --      5.4804                 1.3074                 1.9576
 IR Inten    --     85.7658                16.0892                94.1151

                     46                     47                     48
                      A                      A                      A
 Frequencies --   1378.9013              1390.8829              1413.7482
 Red. masses --      2.5083                 1.4817                 6.0036
 Frc consts  --      2.8099                 1.6888                 7.0698
 IR Inten    --     14.0163                68.7101                49.0384

                     49                     50                     51
                      A                      A                      A
 Frequencies --   1438.1920              1458.0722              1485.9557
 Red. masses --      3.5382                 1.0473                 1.0482
 Frc consts  --      4.3118                 1.3118                 1.3637
 IR Inten    --    604.1258                 0.9918                 0.7699

                     52                     53                     54
                      A                      A                      A
 Frequencies --   1486.6344              1494.1824              1511.5112
 Red. masses --      1.1693                 1.0539                 1.0537
 Frc consts  --      1.5226                 1.3863                 1.4184
 IR Inten    --     29.0536                 1.7346                 1.5101

                     55                     56                     57
                      A                      A                      A
 Frequencies --   1529.1083              1584.6161              2945.4505
 Red. masses --      1.0572                 7.1440                 1.0495
 Frc consts  --      1.4564                10.5691                 5.3647
 IR Inten    --      3.5245               107.2485                61.3149

                     58                     59                     60
                      A                      A                      A
 Frequencies --   2955.3465              2986.0227              3025.4174
 Red. masses --      1.0485                 1.0432                 1.0853
 Frc consts  --      5.3957                 5.4801                 5.8529
 IR Inten    --    318.7141               211.1209                62.0176

                     61                     62                     63
                      A                      A                      A
 Frequencies --   3029.4249              3045.3040              3071.1728
 Red. masses --      1.0859                 1.0894                 1.1011
 Frc consts  --      5.8718                 5.9524                 6.1192
 IR Inten    --     22.2581                83.2336                55.2106

                     64                     65                     66
                      A                      A                      A
 Frequencies --   3088.2499              3091.4966              3150.6312
 Red. masses --      1.0998                 1.0990                 1.0857
 Frc consts  --      6.1798                 6.1883                 6.3498
 IR Inten    --      0.0333                15.3067                40.8515

 - Thermochemistry -
 -------------------
 Temperature   298.150 Kelvin.  Pressure   1.00000 Atm.
 Atom     1 has atomic number  6 and mass  12.00000

 Molecular mass:   415.86888 amu.
 Principal axes and moments of inertia in atomic units:
                           1         2         3
     Eigenvalues --  4551.798998143.11283**********
           X            0.89070  -0.44117   0.10963
           Y            0.44100   0.78006  -0.44388
           Z            0.11031   0.44371   0.88935
 This molecule is an asymmetric top.
 Rotational symmetry number  1.
 Warning -- assumption of classical behavior for rotation
           may cause significant error
 Rotational temperatures (Kelvin)      0.01903     0.01064     0.00704
 Rotational constants (GHZ):           0.39649     0.22163     0.14676
 Zero-point vibrational energy     449467.7 (Joules/Mol)
                                  107.42535 (Kcal/Mol)
 Warning -- explicit consideration of  23 degrees of freedom as
           vibrations may cause significant error
 Vibrational temperatures:     46.20    76.13   110.15   132.77   171.95
          (Kelvin)            241.47   252.28   304.35   310.46   342.58
                              359.93   372.64   415.32   426.23   462.78
                              486.79   487.22   581.56   598.15   668.61
                              686.56   778.35   812.73   950.25   957.36
                             1032.94  1065.83  1158.07  1187.18  1205.20
                             1318.15  1333.00  1371.16  1376.13  1487.36
                             1506.07  1550.38  1598.07  1737.76  1742.50
                             1804.16  1820.07  1907.06  1944.83  1948.44
                             1983.93  2001.17  2034.07  2069.24  2097.84
                             2137.96  2138.94  2149.80  2174.73  2200.05
                             2279.91  4237.85  4252.08  4296.22  4352.90
                             4358.67  4381.51  4418.73  4443.30  4447.97
                             4533.06

 Zero-point correction=                           0.171193 (Hartree/Particle)
 Thermal correction to Energy=                    0.186310
 Thermal correction to Enthalpy=                  0.187254
 Thermal correction to Gibbs Free Energy=         0.126611
 Sum of electronic and zero-point Energies=          -1133.092984
 Sum of electronic and thermal Energies=             -1133.077868
 Sum of electronic and thermal Enthalpies=           -1133.076924
 Sum of electronic and thermal Free Energies=        -1133.137566

                     E (Thermal)             CV                S
                      KCal/Mol        Cal/Mol-Kelvin    Cal/Mol-Kelvin
 Total                  116.911             54.752            127.633
 Electronic               0.000              0.000              0.000
 Translational            0.889              2.981             43.966
 Rotational               0.889              2.981             34.476
 Vibrational            115.134             48.790             49.190
 Vibration     1          0.594              1.983              5.694
 Vibration     2          0.596              1.976              4.706
 Vibration     3          0.599              1.965              3.977
 Vibration     4          0.602              1.955              3.611
 Vibration     5          0.609              1.933              3.108
 Vibration     6          0.625              1.882              2.460
 Vibration     7          0.627              1.873              2.377
 Vibration     8          0.643              1.823              2.030
 Vibration     9          0.645              1.817              1.994
 Vibration    10          0.656              1.782              1.817
 Vibration    11          0.663              1.762              1.729
 Vibration    12          0.668              1.748              1.669
 Vibration    13          0.685              1.695              1.482
 Vibration    14          0.690              1.681              1.438
 Vibration    15          0.707              1.632              1.302
 Vibration    16          0.719              1.599              1.220
 Vibration    17          0.719              1.598              1.219
 Vibration    18          0.769              1.461              0.947
 Vibration    19          0.779              1.436              0.907
 Vibration    20          0.822              1.328              0.753
 Vibration    21          0.834              1.301              0.718
 Vibration    22          0.896              1.159              0.563
 Vibration    23          0.921              1.107              0.514

 Optimization completed.
    -- Stationary point found.
 Normal termination of Gaussian 16 at Sat Jan  6 20:32:06 2024.
