 Gaussian 16, Revision A.03,
 Gaussian 16:  ES64L-G16RevA.03 25-Dec-2016

 --------------------------------------
 #P UB3LYP/6-311++G(d,p) nosym opt freq
 --------------------------------------

 -------
 Radical
 -------
 Symbolic Z-matrix:
 Charge = -1 Multiplicity = 2

 SCF Done:  E(UB3LYP) =  -1144.90462832     A.U. after   23 cycles
 Optimization completed.
    -- Stationary point found.
 Normal termination of Gaussian 16 at Wed Dec 27 20:02:51 2023.

 ----------------------------------------------------------------------
 #P Geom=AllCheck Guess=TCheck SCRF=Check GenChk UB3LYP/6-311++G(d,p) F
 req
 ----------------------------------------------------------------------

 Structure from the checkpoint file:  "146-rad.chk"
 -------
 Radical
 -------
 Charge = -1 Multiplicity = 2

                          Input orientation:
 ---------------------------------------------------------------------
 Center     Atomic      Atomic             Coordinates (Angstroms)
 Number     Number       Type             X           Y           Z
 ---------------------------------------------------------------------
      1          6           0        2.485939    3.011191    1.432715
      2          6           0        2.386792    1.530307    1.684436
      3          8           0        2.071310    1.012177    2.722287
      4          8           0        2.757084    0.846070    0.566134
      5          6           0        2.449006   -0.516853    0.475143
      6          6           0        3.493443   -1.390247    0.681605
      7          6           0        3.298170   -2.772869    0.512195
      8          6           0        2.061473   -3.239112    0.125620
      9          6           0        0.986684   -2.354683   -0.103389
     10          6           0       -0.281982   -2.928567   -0.549972
     11          8           0       -0.433537   -4.166770   -0.683049
     12          6           0       -1.354520   -1.986202   -0.866059
     13          6           0       -2.558536   -2.511954   -1.379622
     14          6           0       -3.602079   -1.686883   -1.735344
     15          6           0       -3.465281   -0.295187   -1.583889
     16          6           0       -2.300627    0.230507   -1.070516
     17          8           0       -2.211144    1.627725   -1.049043
     18          6           0       -2.378869    2.278736    0.135883
     19          6           0       -1.898989    3.699989    0.009524
     20          8           0       -2.876881    1.788099    1.113815
     21          6           0       -1.196743   -0.576890   -0.684036
     22          6           0        0.040699   -0.009542   -0.130197
     23          8           0        0.139095    1.211044    0.157433
     24          6           0        1.152999   -0.946627    0.080871
     25          1           0        1.671567    3.280152    0.757412
     26          1           0        2.389535    3.552488    2.372543
     27          1           0        3.430435    3.257088    0.942305
     28          1           0        4.456704   -0.986579    0.971128
     29          1           0        4.120884   -3.459535    0.682969
     30          1           0        1.870187   -4.294563   -0.024128
     31          1           0       -2.618812   -3.587953   -1.487226
     32          1           0       -4.523783   -2.098973   -2.133060
     33          1           0       -4.260291    0.385133   -1.866326
     34          1           0       -2.213261    4.274230    0.879607
     35          1           0       -0.809393    3.670136   -0.049139
     36          1           0       -2.277278    4.154916   -0.908632
 ---------------------------------------------------------------------

 SCF Done:  E(UB3LYP) =  -1144.90462832     A.U. after    1 cycles

 Alpha  occ. eigenvalues --  -19.06076 -19.06074 -19.00652 -19.00650 -18.96090
 Alpha  occ. eigenvalues --  -18.95796 -10.20177 -10.20175 -10.13017 -10.13017
 Alpha  occ. eigenvalues --  -10.11917 -10.10855 -10.08138 -10.08137 -10.07231
 Alpha  occ. eigenvalues --  -10.07230 -10.07122 -10.07121 -10.06955 -10.06955
 Alpha  occ. eigenvalues --  -10.06502 -10.06501 -10.06115 -10.06115  -1.00476
 Alpha  occ. eigenvalues --   -1.00433  -0.92323  -0.92270  -0.88877  -0.88507
 Alpha  occ. eigenvalues --   -0.75667  -0.74792  -0.68269  -0.67142  -0.67132
 Alpha  occ. eigenvalues --   -0.63845  -0.63258  -0.63026  -0.56472  -0.54508
 Alpha  occ. eigenvalues --   -0.53245  -0.51785  -0.50396  -0.44720  -0.44583
 Alpha  occ. eigenvalues --   -0.41161  -0.40918  -0.39006  -0.38989  -0.37904
 Alpha  occ. eigenvalues --   -0.37700  -0.37542  -0.37390  -0.36276  -0.35924
 Alpha  occ. eigenvalues --   -0.34979  -0.34287  -0.31965  -0.31731  -0.31529
 Alpha  occ. eigenvalues --   -0.31012  -0.30094  -0.29644  -0.29602  -0.29049
 Alpha  occ. eigenvalues --   -0.28319  -0.27947  -0.27367  -0.26233  -0.26100
 Alpha  occ. eigenvalues --   -0.25244  -0.24615  -0.23796  -0.22916  -0.21195
 Alpha  occ. eigenvalues --   -0.20767  -0.17812  -0.17798  -0.15835  -0.14448
 Alpha  occ. eigenvalues --   -0.14381  -0.14204  -0.12881  -0.11849  -0.02845
 Alpha virt. eigenvalues --    0.05563   0.07119   0.07842   0.08182   0.08210
 Alpha virt. eigenvalues --    0.08634   0.09785   0.10265   0.10414   0.10796
 Alpha virt. eigenvalues --    0.10803   0.11414   0.11820   0.11917   0.13472

  Beta  occ. eigenvalues --  -19.06074 -19.06072 -19.00651 -19.00650 -18.95491
  Beta  occ. eigenvalues --  -18.95204 -10.20175 -10.20174 -10.13020 -10.13020
  Beta  occ. eigenvalues --  -10.11769 -10.10735 -10.08138 -10.08137 -10.07153
  Beta  occ. eigenvalues --  -10.07152 -10.07060 -10.07059 -10.06904 -10.06904
  Beta  occ. eigenvalues --  -10.06399 -10.06398 -10.06128 -10.06128  -1.00468
  Beta  occ. eigenvalues --   -1.00429  -0.92308  -0.92268  -0.87861  -0.87479
  Beta  occ. eigenvalues --   -0.75418  -0.74678  -0.67888  -0.67092  -0.67036
  Beta  occ. eigenvalues --   -0.63644  -0.63089  -0.62953  -0.55797  -0.54371
  Beta  occ. eigenvalues --   -0.53174  -0.51574  -0.50230  -0.44612  -0.44334
  Beta  occ. eigenvalues --   -0.41085  -0.40752  -0.38974  -0.38963  -0.37850
  Beta  occ. eigenvalues --   -0.37645  -0.37508  -0.37225  -0.36134  -0.35864
  Beta  occ. eigenvalues --   -0.34877  -0.34234  -0.31847  -0.31726  -0.31384
  Beta  occ. eigenvalues --   -0.30396  -0.29900  -0.29603  -0.29151  -0.28534
  Beta  occ. eigenvalues --   -0.27970  -0.27929  -0.27185  -0.25993  -0.25061
  Beta  occ. eigenvalues --   -0.24432  -0.24237  -0.23379  -0.21814  -0.21144
  Beta  occ. eigenvalues --   -0.20627  -0.17791  -0.17788  -0.14096  -0.13806
  Beta  occ. eigenvalues --   -0.13758  -0.13044  -0.12337  -0.11317
  Beta virt. eigenvalues --    0.03066   0.06463   0.07119   0.07847   0.08181
  Beta virt. eigenvalues --    0.08627   0.09308   0.09806   0.10424   0.10426
  Beta virt. eigenvalues --    0.10797   0.10804   0.11466   0.11821   0.11919

 Mulliken charges and spin densities:
               1          2
     1  C   -0.416803   0.001222
     2  C   -0.119547  -0.000246
     3  O   -0.191061  -0.000427
     4  O    0.039822  -0.001892
     5  C   -0.278971   0.034001
     6  C    0.218589   0.042215
     7  C   -0.393043   0.050907
     8  C   -0.182061   0.010480
     9  C    0.428009   0.048737
    10  C   -0.900014   0.057963
    11  O   -0.350698   0.221627
    12  C    0.428902   0.048769
    13  C   -0.181226   0.010503
    14  C   -0.393335   0.050901
    15  C    0.218377   0.042222
    16  C   -0.278228   0.034016
    17  O    0.039699  -0.001889
    18  C   -0.119655  -0.000242
    19  C   -0.416755   0.001219
    20  O   -0.191079  -0.000424
    21  C    0.408082   0.045463
    22  C   -0.342750   0.045021
    23  O   -0.340342   0.231034
    24  C    0.408125   0.045516
    25  H    0.222934  -0.000043
    26  H    0.140201  -0.000198
    27  H    0.144470   0.000154
    28  H    0.140982  -0.003555
    29  H    0.141224  -0.003816
    30  H    0.163194  -0.000891
    31  H    0.163206  -0.000891
    32  H    0.141223  -0.003816
    33  H    0.141008  -0.003555
    34  H    0.140245  -0.000198
    35  H    0.222778  -0.000044
    36  H    0.144497   0.000155
 Sum of Mulliken charges =  -1.00000   1.00000

 Dipole moment (field-independent basis, Debye):
    X=              1.7496    Y=              6.2359    Z=             -2.3641  Tot=              6.8947
 Quadrupole moment (field-independent basis, Debye-Ang):
   XX=           -153.6651   YY=           -168.5956   ZZ=           -159.2459
   XY=              0.1167   XZ=              0.6585   YZ=             -7.7076

  Exact polarizability: 331.892 -15.198 304.036  63.561  22.058 170.458
 Approx polarizability: 507.677 -12.484 502.059  87.809  20.802 278.737

                      1                      2                      3
                      A                      A                      A
 Frequencies --     26.0810                32.1547                54.7107
 Red. masses --      5.2976                 7.8924                 3.3192
 Frc consts  --      0.0021                 0.0048                 0.0059
 IR Inten    --      0.0060                 1.3217                 0.0063

                      4                      5                      6
                      A                      A                      A
 Frequencies --     59.5888                71.4849                85.7110
 Red. masses --      6.8187                 5.2514                 2.2773
 Frc consts  --      0.0143                 0.0158                 0.0099
 IR Inten    --      1.6772                 1.6592                 9.5204

                      7                      8                      9
                      A                      A                      A
 Frequencies --    100.0382               102.0802               111.6825
 Red. masses --      1.5685                 3.8532                 1.0948
 Frc consts  --      0.0092                 0.0237                 0.0080
 IR Inten    --      1.7731                 2.0660                 0.0719

                     10                     11                     12
                      A                      A                      A
 Frequencies --    118.1285               138.3787               167.6884
 Red. masses --      6.7788                 7.7244                 7.5913
 Frc consts  --      0.0557                 0.0871                 0.1258
 IR Inten    --      0.7694                 5.1645                 2.3832

                     13                     14                     15
                      A                      A                      A
 Frequencies --    210.8675               213.0200               267.6252
 Red. masses --      4.6211                 7.8178                 5.6015
 Frc consts  --      0.1211                 0.2090                 0.2364
 IR Inten    --      0.0864                 3.9726                 0.5620

                     16                     17                     18
                      A                      A                      A
 Frequencies --    277.1904               309.9835               321.2728
 Red. masses --      5.9008                 4.3523                 8.8477
 Frc consts  --      0.2671                 0.2464                 0.5381
 IR Inten    --      0.7711                 0.0807                 0.0357

                     19                     20                     21
                      A                      A                      A
 Frequencies --    323.3010               340.0058               386.7637
 Red. masses --      3.6361                 6.3735                 6.7774
 Frc consts  --      0.2239                 0.4341                 0.5973
 IR Inten    --      4.8385                 1.3255                 1.8770

                     22                     23                     24
                      A                      A                      A
 Frequencies --    407.3398               416.5432               449.0859
 Red. masses --     11.1472                 6.2406                 7.1861
 Frc consts  --      1.0898                 0.6380                 0.8539
 IR Inten    --      8.0074                 0.2394                 4.2855

                     25                     26                     27
                      A                      A                      A
 Frequencies --    472.8941               493.3710               500.6298
 Red. masses --      5.7264                 9.1118                 4.0850
 Frc consts  --      0.7545                 1.3068                 0.6032
 IR Inten    --      1.4924                 4.6691                 0.0038

                     28                     29                     30
                      A                      A                      A
 Frequencies --    517.4612               546.2143               556.9985
 Red. masses --      5.3380                 5.2401                 3.9123
 Frc consts  --      0.8421                 0.9211                 0.7151
 IR Inten    --      7.2280                 2.0685                15.9083

                     31                     32                     33
                      A                      A                      A
 Frequencies --    565.4862               570.5216               579.9306
 Red. masses --      5.7398                 3.0871                 3.7505
 Frc consts  --      1.0814                 0.5920                 0.7432
 IR Inten    --      0.0155                13.5106                 1.3676

                     34                     35                     36
                      A                      A                      A
 Frequencies --    620.8729               636.3214               678.8013
 Red. masses --      5.9295                 4.9720                 5.8797
 Frc consts  --      1.3467                 1.1861                 1.5962
 IR Inten    --     12.6024                 4.4497                 0.3161

                     37                     38                     39
                      A                      A                      A
 Frequencies --    692.4795               707.4035               729.1301
 Red. masses --      3.7155                 7.1759                 2.4238
 Frc consts  --      1.0498                 2.1157                 0.7592
 IR Inten    --     28.9219                 0.8103                 0.0461

                     40                     41                     42
                      A                      A                      A
 Frequencies --    741.4486               774.7406               782.7650
 Red. masses --      3.7768                 2.2547                 2.1131
 Frc consts  --      1.2233                 0.7973                 0.7628
 IR Inten    --     20.6378                37.3780                 5.4415

                     43                     44                     45
                      A                      A                      A
 Frequencies --    789.2052               823.1477               830.1273
 Red. masses --      5.8289                 4.2217                 4.0058
 Frc consts  --      2.1390                 1.6854                 1.6264
 IR Inten    --      3.8173                 9.2876                12.8961

                     46                     47                     48
                      A                      A                      A
 Frequencies --    880.2899               890.0152               915.6571
 Red. masses --      2.2747                 1.7978                 2.4058
 Frc consts  --      1.0385                 0.8390                 1.1884
 IR Inten    --     21.4277                 5.5227                21.5838

                     49                     50                     51
                      A                      A                      A
 Frequencies --    924.3632               932.5833               976.9372
 Red. masses --      4.0396                 5.7083                 4.2129
 Frc consts  --      2.0336                 2.9251                 2.3690
 IR Inten    --      6.1622                 1.2089                19.9324

                     52                     53                     54
                      A                      A                      A
 Frequencies --    982.1133               985.0195              1007.3179
 Red. masses --      1.2847                 1.3082                 2.1340
 Frc consts  --      0.7301                 0.7479                 1.2758
 IR Inten    --      0.0109                 2.0445                 3.5117

                     55                     56                     57
                      A                      A                      A
 Frequencies --   1031.7366              1048.8855              1056.2008
 Red. masses --      2.0867                 2.3531                 1.7843
 Frc consts  --      1.3087                 1.5253                 1.1728
 IR Inten    --    174.4568                 6.1872                28.0170

                     58                     59                     60
                      A                      A                      A
 Frequencies --   1056.8942              1080.2505              1084.8256
 Red. masses --      2.2399                 2.1708                 1.7630
 Frc consts  --      1.4741                 1.4925                 1.2225
 IR Inten    --     20.1624                11.4713                71.9872

                     61                     62                     63
                      A                      A                      A
 Frequencies --   1154.1402              1171.7112              1179.6621
 Red. masses --      1.5306                 1.4128                 2.1985
 Frc consts  --      1.2012                 1.1428                 1.8026
 IR Inten    --     17.6750                29.9059                11.3085

                     64                     65                     66
                      A                      A                      A
 Frequencies --   1205.2943              1221.0801              1225.4126
 Red. masses --      3.8073                 3.0912                 5.9839
 Frc consts  --      3.2588                 2.7156                 5.2942
 IR Inten    --     64.8434                 0.3879               653.7596

                     67                     68                     69
                      A                      A                      A
 Frequencies --   1228.8244              1235.6175              1241.9325
 Red. masses --      2.3719                 2.8995                 3.2645
 Frc consts  --      2.1102                 2.6082                 2.9666
 IR Inten    --     55.1219                 9.0108               267.4879

                     70                     71                     72
                      A                      A                      A
 Frequencies --   1325.8515              1352.8324              1358.1573
 Red. masses --      3.3651                10.4748                 6.7080
 Frc consts  --      3.4853                11.2950                 7.2903
 IR Inten    --     12.3056                 5.9027                19.2491

                     73                     74                     75
                      A                      A                      A
 Frequencies --   1378.0758              1383.1304              1411.2480
 Red. masses --      1.3556                 1.3799                 3.6060
 Frc consts  --      1.5168                 1.5554                 4.2314
 IR Inten    --      1.7066               261.3286               274.1833

                     76                     77                     78
                      A                      A                      A
 Frequencies --   1424.5475              1459.4048              1469.5178
 Red. masses --      3.1192                 2.8621                 1.0584
 Frc consts  --      3.7295                 3.5916                 1.3467
 IR Inten    --     29.3504                42.8324                 7.5081

                     79                     80                     81
                      A                      A                      A
 Frequencies --   1471.6861              1474.8135              1482.5678
 Red. masses --      1.0743                 1.0566                 1.0516
 Frc consts  --      1.3709                 1.3540                 1.3618
 IR Inten    --      7.0704                 7.8229                18.0862

                     82                     83                     84
                      A                      A                      A
 Frequencies --   1484.0318              1533.0852              1541.4175
 Red. masses --      3.4054                 5.7653                 7.3078
 Frc consts  --      4.4188                 7.9837                10.2300
 IR Inten    --     12.7325               295.8368               464.9508

                     85                     86                     87
                      A                      A                      A
 Frequencies --   1561.8468              1613.3244              1622.8257
 Red. masses --      5.9492                 8.2166                 5.9270
 Frc consts  --      8.5504                12.6004                 9.1966
 IR Inten    --    111.9681                48.4301                 1.4280

                     88                     89                     90
                      A                      A                      A
 Frequencies --   1634.2466              1806.7500              1811.5499
 Red. masses --      7.3577                11.6159                11.6021
 Frc consts  --     11.5779                22.3409                22.4330
 IR Inten    --      3.1152                19.1817               480.3183

                     91                     92                     93
                      A                      A                      A
 Frequencies --   3047.3575              3048.3751              3115.9090
 Red. masses --      1.0347                 1.0347                 1.0996
 Frc consts  --      5.6612                 5.6653                 6.2900
 IR Inten    --      7.2785                31.5450                 6.3551

                     94                     95                     96
                      A                      A                      A
 Frequencies --   3116.9099              3144.5205              3144.8870
 Red. masses --      1.0990                 1.1043                 1.1042
 Frc consts  --      6.2909                 6.4333                 6.4344
 IR Inten    --      5.9708                 0.5710                28.5492

                     97                     98                     99
                      A                      A                      A
 Frequencies --   3152.9521              3153.0937              3180.9437
 Red. masses --      1.0866                 1.0868                 1.0923
 Frc consts  --      6.3642                 6.3662                 6.5119
 IR Inten    --     31.9764                20.2622                31.0081

                    100                    101                    102
                      A                      A                      A
 Frequencies --   3181.0230              3193.7204              3194.3260
 Red. masses --      1.0922                 1.0927                 1.0929
 Frc consts  --      6.5117                 6.5667                 6.5706
 IR Inten    --      6.8201                28.7643                 5.2744

 - Thermochemistry -
 -------------------
 Temperature   298.150 Kelvin.  Pressure   1.00000 Atm.
 Atom     1 has atomic number  6 and mass  12.00000

 Molecular mass:   324.06339 amu.
 Principal axes and moments of inertia in atomic units:
                           1         2         3
     Eigenvalues --  5955.660247102.85039**********
           X            0.94051   0.06088  -0.33425
           Y           -0.14718   0.95972  -0.23934
           Z            0.30622   0.27430   0.91159
 This molecule is an asymmetric top.
 Rotational symmetry number  1.
 Warning -- assumption of classical behavior for rotation
           may cause significant error
 Rotational temperatures (Kelvin)      0.01454     0.01219     0.00703
 Rotational constants (GHZ):           0.30303     0.25409     0.14659
 Zero-point vibrational energy     679433.3 (Joules/Mol)
                                  162.38845 (Kcal/Mol)
 Warning -- explicit consideration of  33 degrees of freedom as
           vibrations may cause significant error
 Vibrational temperatures:     37.52    46.26    78.72    85.74   102.85
          (Kelvin)            123.32   143.93   146.87   160.69   169.96
                              199.10   241.27   303.39   306.49   385.05
                              398.82   446.00   462.24   465.16   489.19
                              556.47   586.07   599.31   646.13   680.39
                              709.85   720.29   744.51   785.88   801.40
                              813.61   820.85   834.39   893.30   915.52
                              976.64   996.32  1017.80  1049.06  1066.78
                             1114.68  1126.22  1135.49  1184.33  1194.37
                             1266.54  1280.53  1317.43  1329.95  1341.78
                             1405.59  1413.04  1417.22  1449.31  1484.44
                             1509.11  1519.64  1520.64  1554.24  1560.82
                             1660.55  1685.83  1697.27  1734.15  1756.86
                             1763.10  1768.00  1777.78  1786.86  1907.60
                             1946.42  1954.09  1982.74  1990.02  2030.47
                             2049.61  2099.76  2114.31  2117.43  2121.93
                             2133.08  2135.19  2205.77  2217.76  2247.15
                             2321.21  2334.88  2351.32  2599.51  2606.42
                             4384.47  4385.93  4483.10  4484.54  4524.26
                             4524.79  4536.39  4536.60  4576.67  4576.78
                             4595.05  4595.92

 Zero-point correction=                           0.258782 (Hartree/Particle)
 Thermal correction to Energy=                    0.279365
 Thermal correction to Enthalpy=                  0.280309
 Thermal correction to Gibbs Free Energy=         0.207477
 Sum of electronic and zero-point Energies=          -1144.645846
 Sum of electronic and thermal Energies=             -1144.625263
 Sum of electronic and thermal Enthalpies=           -1144.624319
 Sum of electronic and thermal Free Energies=        -1144.697151

                     E (Thermal)             CV                S
                      KCal/Mol        Cal/Mol-Kelvin    Cal/Mol-Kelvin
 Total                  175.304             77.973            153.288
 Electronic               0.000              0.000              1.377
 Translational            0.889              2.981             43.223
 Rotational               0.889              2.981             34.609
 Vibrational            173.527             72.011             74.079
 Vibration     1          0.593              1.985              6.107
 Vibration     2          0.594              1.983              5.692
 Vibration     3          0.596              1.976              4.639
 Vibration     4          0.597              1.974              4.471
 Vibration     5          0.598              1.968              4.112
 Vibration     6          0.601              1.959              3.756
 Vibration     7          0.604              1.949              3.454
 Vibration     8          0.604              1.948              3.414
 Vibration     9          0.607              1.940              3.239
 Vibration    10          0.608              1.934              3.131
 Vibration    11          0.614              1.915              2.826
 Vibration    12          0.624              1.882              2.461
 Vibration    13          0.643              1.824              2.036
 Vibration    14          0.644              1.821              2.018
 Vibration    15          0.673              1.733              1.611
 Vibration    16          0.678              1.716              1.551
 Vibration    17          0.699              1.655              1.362
 Vibration    18          0.707              1.633              1.304
 Vibration    19          0.708              1.629              1.293
 Vibration    20          0.720              1.596              1.212
 Vibration    21          0.755              1.498              1.013
 Vibration    22          0.772              1.454              0.936
 Vibration    23          0.780              1.434              0.904
 Vibration    24          0.808              1.363              0.799
 Vibration    25          0.830              1.310              0.729
 Vibration    26          0.849              1.265              0.675
 Vibration    27          0.856              1.249              0.657
 Vibration    28          0.872              1.211              0.616
 Vibration    29          0.901              1.148              0.552
 Vibration    30          0.913              1.124              0.530
 Vibration    31          0.921              1.106              0.513
 Vibration    32          0.927              1.095              0.503
 Vibration    33          0.937              1.075              0.485

                           ! Non-Optimized Parameters !
 Normal termination of Gaussian 16 at Wed Dec 27 22:24:09 2023.
