 Q-Chem 5.4, Q-Chem, Inc., Pleasanton, CA (2021)
 Q-Chem 5.4.0 for Intel X86 EM64T Linux

User input:
--------------------------------------------------------------
$molecule
-1 2
C                  2.4859390000      3.0111910000      1.4327150000
C                  2.3867920000      1.5303070000      1.6844360000
O                  2.0713100000      1.0121770000      2.7222870000
O                  2.7570840000      0.8460700000      0.5661340000
C                  2.4490060000     -0.5168530000      0.4751430000
C                  3.4934430000     -1.3902470000      0.6816050000
C                  3.2981700000     -2.7728690000      0.5121950000
C                  2.0614730000     -3.2391120000      0.1256200000
C                  0.9866840000     -2.3546830000     -0.1033890000
C                 -0.2819820000     -2.9285670000     -0.5499720000
O                 -0.4335370000     -4.1667700000     -0.6830490000
C                 -1.3545200000     -1.9862020000     -0.8660590000
C                 -2.5585360000     -2.5119540000     -1.3796220000
C                 -3.6020790000     -1.6868830000     -1.7353440000
C                 -3.4652810000     -0.2951870000     -1.5838890000
C                 -2.3006270000      0.2305070000     -1.0705160000
O                 -2.2111440000      1.6277250000     -1.0490430000
C                 -2.3788690000      2.2787360000      0.1358830000
C                 -1.8989890000      3.6999890000      0.0095240000
O                 -2.8768810000      1.7880990000      1.1138150000
C                 -1.1967430000     -0.5768900000     -0.6840360000
C                  0.0406990000     -0.0095420000     -0.1301970000
O                  0.1390950000      1.2110440000      0.1574330000
C                  1.1529990000     -0.9466270000      0.0808710000
H                  1.6715670000      3.2801520000      0.7574120000
H                  2.3895350000      3.5524880000      2.3725430000
H                  3.4304350000      3.2570880000      0.9423050000
H                  4.4567040000     -0.9865790000      0.9711280000
H                  4.1208840000     -3.4595350000      0.6829690000
H                  1.8701870000     -4.2945630000     -0.0241280000
H                 -2.6188120000     -3.5879530000     -1.4872260000
H                 -4.5237830000     -2.0989730000     -2.1330600000
H                 -4.2602910000      0.3851330000     -1.8663260000
H                 -2.2132610000      4.2742300000      0.8796070000
H                 -0.8093930000      3.6701360000     -0.0491390000
H                 -2.2772780000      4.1549160000     -0.9086320000
$end
$rem
MAX_SCF_CYCLES=200
BASIS  =  6-311++G(d,p)
GUI  =  2
JOB_TYPE  =  SP
METHOD  =  B3LYP
SOLVENT_METHOD = COSMO
$end
$solvent
dielectric 37.219
opticaldielectric 1.43
$end

--------------------------------------------------------------

             Standard Nuclear Orientation (Angstroms)
    I     Atom           X                Y                Z
 ----------------------------------------------------------------
    1      C      -2.3338568347    -3.6373981171    -0.3101396070
    2      C      -2.5355978839    -2.2744099278     0.2963047481
    3      O      -2.6329352674    -2.0334754459     1.4700160826
    4      O      -2.6420996335    -1.3411843532    -0.6904288557
    5      C      -2.5250335594     0.0131998140    -0.3547361658
    6      C      -3.6990871185     0.7315867882    -0.3121840865
    7      C      -3.6670013206     2.1187073783    -0.0812255241
    8      C      -2.4540931241     2.7487769848     0.0864295787
    9      C      -1.2429647791     2.0277291247     0.0308482143
   10      C       0.0025475386     2.7793628449     0.1793017693
   11      O       0.0036406482     4.0151352650     0.3953813986
   12      C       1.2467490960     2.0257289769     0.0299731922
   13      C       2.4590501066     2.7448749064     0.0844896147
   14      C       3.6708589188     2.1127757479    -0.0835352222
   15      C       3.7006033929     0.7254373395    -0.3134862452
   16      C       2.5253727348     0.0088953837    -0.3550251953
   17      O       2.6402337426    -1.3460221037    -0.6892287080
   18      C       2.5309265540    -2.2779520980     0.2984731942
   19      C       2.3274178865    -3.6412527219    -0.3066773096
   20      O       2.6276561177    -2.0358633471     1.4719841838
   21      C       1.2499939815     0.6119535715    -0.1831343894
   22      C       0.0000425354    -0.1600709791    -0.2216515301
   23      O      -0.0009733374    -1.4168243125    -0.2746892535
   24      C      -1.2486198794     0.6140220327    -0.1827738905
   25      H      -1.3215551086    -3.6639213682    -0.7177149351
   26      H      -2.4513325257    -4.4028718893     0.4552506263
   27      H      -3.0358157976    -3.8027403790    -1.1304782856
   28      H      -4.6343118888     0.2049658387    -0.4627436440
   29      H      -4.5941152252     2.6811479910    -0.0405727823
   30      H      -2.3836357555     3.8157982020     0.2581651075
   31      H       2.3903610943     3.8120818151     0.2557697903
   32      H       4.5988903352     2.6737652163    -0.0437488571
   33      H       4.6349210199     0.1971751157    -0.4639404123
   34      H       2.4410562364    -4.4059462295     0.4600652860
   35      H       1.3162033588    -3.6660064854    -0.7170240197
   36      H       3.0313066232    -3.8093757463    -1.1248135319
 ----------------------------------------------------------------

    9   -1144.9048468946      7.91e-06  Convergence criterion met
 Total energy in the final basis set =    -1144.9048468946
    4   -1144.9905859494      9.53e-06  Convergence criterion met
 Total energy in the final basis set =    -1144.9905859494

                    Orbital Energies (a.u.)
 --------------------------------------------------------------

 Alpha MOs
 -- Occupied --
-19.1735 -19.1735 -19.1227 -19.1227 -19.0829 -19.0796 -10.3138 -10.3138
-10.2426 -10.2426 -10.2384 -10.2310 -10.1884 -10.1884 -10.1815 -10.1815
-10.1789 -10.1789 -10.1780 -10.1780 -10.1730 -10.1730 -10.1709 -10.1709
 -1.1185  -1.1181  -1.0391  -1.0384  -1.0120  -1.0077  -0.8712  -0.8606
 -0.7958  -0.7778  -0.7768  -0.7507  -0.7368  -0.7338  -0.6794  -0.6552
 -0.6426  -0.6282  -0.6146  -0.5572  -0.5569  -0.5253  -0.5251  -0.4982
 -0.4981  -0.4894  -0.4880  -0.4869  -0.4863  -0.4733  -0.4640  -0.4590
 -0.4485  -0.4321  -0.4274  -0.4213  -0.4146  -0.4108  -0.4073  -0.4015
 -0.3989  -0.3928  -0.3877  -0.3814  -0.3772  -0.3717  -0.3642  -0.3580
 -0.3528  -0.3452  -0.3277  -0.3231  -0.2939  -0.2937  -0.2759  -0.2591
 -0.2585  -0.2575  -0.2528  -0.2384  -0.1480

 Beta MOs
 -- Occupied --
-19.1735 -19.1735 -19.1227 -19.1227 -19.0775 -19.0739 -10.3138 -10.3138
-10.2426 -10.2426 -10.2368 -10.2293 -10.1877 -10.1877 -10.1807 -10.1807
-10.1784 -10.1784 -10.1774 -10.1774 -10.1730 -10.1730 -10.1709 -10.1709
 -1.1185  -1.1180  -1.0389  -1.0384  -1.0025  -0.9977  -0.8687  -0.8595
 -0.7919  -0.7764  -0.7761  -0.7488  -0.7352  -0.7332  -0.6726  -0.6538
 -0.6416  -0.6264  -0.6129  -0.5559  -0.5547  -0.5244  -0.5231  -0.4980
 -0.4975  -0.4882  -0.4877  -0.4860  -0.4857  -0.4718  -0.4634  -0.4578
 -0.4480  -0.4260  -0.4241  -0.4160  -0.4143  -0.4066  -0.4041  -0.4013
 -0.3972  -0.3913  -0.3813  -0.3797  -0.3701  -0.3631  -0.3628  -0.3564
 -0.3500  -0.3342  -0.3272  -0.3220  -0.2937  -0.2936  -0.2554  -0.2552
 -0.2522  -0.2487  -0.2478  -0.2335

          Ground-State Mulliken Net Atomic Charges

     Atom                 Charge (a.u.)    Spin (a.u.)
  --------------------------------------------------------
      1 C                    -0.461844       0.000846
      2 C                     0.001887       0.000447
      3 O                    -0.292551      -0.000430
      4 O                     0.013114      -0.001737
      5 C                    -0.295299       0.034223
      6 C                     0.163887       0.045172
      7 C                    -0.481419       0.040462
      8 C                    -0.190674       0.028179
      9 C                     0.358780       0.028191
     10 C                    -0.677524       0.103453
     11 O                    -0.476007       0.199420
     12 C                     0.360255       0.028221
     13 C                    -0.189828       0.028182
     14 C                    -0.481643       0.040475
     15 C                     0.163792       0.045143
     16 C                    -0.294506       0.034264
     17 O                     0.012465      -0.001735
     18 C                     0.002809       0.000452
     19 C                    -0.462195       0.000845
     20 O                    -0.292495      -0.000430
     21 C                     0.394116       0.044190
     22 C                    -0.327317       0.051590
     23 O                    -0.388195       0.222485
     24 C                     0.394936       0.044276
     25 H                     0.236162      -0.000067
     26 H                     0.175131      -0.000150
     27 H                     0.190891       0.000170
     28 H                     0.217661      -0.003525
     29 H                     0.220033      -0.003127
     30 H                     0.182603      -0.001393
     31 H                     0.182675      -0.001391
     32 H                     0.220015      -0.003128
     33 H                     0.218118      -0.003523
     34 H                     0.175265      -0.000150
     35 H                     0.235795      -0.000070
     36 H                     0.191104       0.000171
  --------------------------------------------------------
  Sum of atomic charges =    -1.000000

                    Cartesian Multipole Moments
 -----------------------------------------------------------------
    Charge (ESU x 10^10)
                -4.8032
    Dipole Moment (Debye)
         X      -0.0032      Y      -6.2391      Z      -5.4363
       Tot       8.2752
    Quadrupole Moments (Debye-Ang)
        XX    -135.0920     XY      -0.0406     YY    -164.6187
        XZ       0.0112     YZ       7.3369     ZZ    -156.7014

 Total job time:  162.70s(wall), 1199.37s(cpu)
        *  Thank you very much for using Q-Chem.  Have a nice day.  *
