 Q-Chem 5.4, Q-Chem, Inc., Pleasanton, CA (2021)
 Q-Chem 5.4.0 for Intel X86 EM64T Linux

User input:
--------------------------------------------------------------
$molecule
0 1
C                 -0.5633810000     -1.1483750000      2.4870270000
C                 -0.4787080000     -1.9503900000      1.2419870000
C                  0.1014340000     -1.4720530000      0.1364800000
C                  0.6712660000     -0.1085850000      0.0984480000
C                  0.5697120000      0.7423070000      1.3414050000
C                 -0.0695400000      0.2620300000      2.4225340000
O                 -0.9796270000     -1.6421930000      3.5167960000
O                  1.1933720000      0.3326030000     -0.9081440000
S                 -0.4039980000      1.3407320000      3.8692160000
C                  0.6545030000      0.7187030000      5.1778520000
C                  0.1125190000     -0.1315280000      6.1390240000
C                  1.9888080000      1.1245010000      5.2080940000
C                  2.8018120000      0.6533960000      6.2354870000
C                  0.9382620000     -0.5860740000      7.1638150000
C                  2.2769360000     -0.1961890000      7.2098580000
O                  0.0871370000      2.6653520000      3.4697920000
O                 -1.8053610000      1.1523550000      4.2364570000
H                 -0.8912050000     -2.9511500000      1.3050890000
H                  0.1917050000     -2.0465960000     -0.7785180000
H                 -0.9271650000     -0.4236070000      6.0756520000
H                  2.3763390000      1.7933950000      4.4494420000
H                  3.8411660000      0.9567200000      6.2780190000
H                  0.5354060000     -1.2435600000      7.9251310000
H                  2.9145870000     -0.5556060000      8.0096380000
C                  1.3378690000      2.0666750000      1.2384830000
C                  0.6841940000      3.2174280000      0.5332340000
O                  2.4782800000      2.0539630000      1.6362750000
H                 -0.3096940000      3.4046960000      0.9420980000
H                  0.5851500000      2.9623680000     -0.5268660000
H                  1.3068130000      4.1056040000      0.6370160000
$end
$rem
MAX_SCF_CYCLES=200
BASIS  =  6-311++G(d,p)
GUI  =  2
JOB_TYPE  =  SP
METHOD  =  B3LYP
SOLVENT_METHOD = COSMO
$end
$solvent
dielectric 37.219
opticaldielectric 1.43
$end

--------------------------------------------------------------

             Standard Nuclear Orientation (Angstroms)
    I     Atom           X                Y                Z
 ----------------------------------------------------------------
    1      C      -0.6348618697    -2.0202339040     0.0803438448
    2      C      -1.8128968187    -2.7088793580    -0.5014836867
    3      C      -2.8932380316    -2.0326030024    -0.9052533082
    4      C      -2.9710983757    -0.5623855819    -0.7725942279
    5      C      -1.7997822537     0.1613663553    -0.1533412988
    6      C      -0.7486388736    -0.5448997771     0.2988033414
    7      O       0.3853087239    -2.6342088900     0.3249411046
    8      O      -3.9556732015     0.0554749099    -1.1322187627
    9      S       0.5902655767     0.2734475305     1.2506392121
   10      C       2.0230272258     0.2463113417     0.1706714772
   11      C       2.9874712798    -0.7423848216     0.3518304864
   12      C       2.1414556161     1.2335704551    -0.8077203603
   13      C       3.2636203270     1.2189802683    -1.6317259972
   14      C       4.1070638110    -0.7364137468    -0.4758995855
   15      C       4.2426168455     0.2391438180    -1.4638728452
   16      O       0.1488940334     1.6661185133     1.3956563112
   17      O       0.8470067867    -0.5468839708     2.4318717391
   18      H      -1.7202727486    -3.7846782338    -0.6001435852
   19      H      -3.7575502947    -2.5123687643    -1.3505161271
   20      H       2.8540418863    -1.4910691929     1.1212050907
   21      H       1.3768981318     1.9930394984    -0.9163985180
   22      H       3.3755684646     1.9770673580    -2.3977826114
   23      H       4.8722045594    -1.4930010385    -0.3481570554
   24      H       5.1161043058     0.2364835371    -2.1060877669
   25      C      -1.9225206719     1.6894721827    -0.2199489205
   26      C      -2.7551316268     2.3839879179     0.8160561547
   27      O      -1.4280373317     2.2226088821    -1.1844118826
   28      H      -2.4464787217     2.0876680484     1.8195402602
   29      H      -3.8008770505     2.0942164177     0.6707072162
   30      H      -2.6563993482     3.4624134423     0.6955071803
 ----------------------------------------------------------------

   10   -1313.9786750466      3.89e-06  Convergence criterion met
 Total energy in the final basis set =    -1313.9786750466
    5   -1314.0043548419      4.51e-06  Convergence criterion met
 Total energy in the final basis set =    -1314.0043548419

                    Orbital Energies (a.u.)
 --------------------------------------------------------------

 Alpha MOs
 -- Occupied --
-89.0810 -19.1650 -19.1605 -19.1497 -19.1465 -19.1454 -10.3128 -10.3113
-10.3049 -10.2605 -10.2568 -10.2288 -10.2248 -10.2234 -10.2062 -10.2046
-10.1971 -10.1951 -10.1947 -10.1802  -8.1448  -6.1075  -6.1067  -6.1056
 -1.1430  -1.0991  -1.0939  -1.0857  -1.0392  -0.8930  -0.8885  -0.8280
 -0.7972  -0.7745  -0.7696  -0.7370  -0.7045  -0.6672  -0.6434  -0.6334
 -0.6027  -0.5808  -0.5609  -0.5500  -0.5331  -0.5141  -0.5019  -0.4994
 -0.4962  -0.4833  -0.4786  -0.4725  -0.4648  -0.4640  -0.4601  -0.4474
 -0.4438  -0.4413  -0.4353  -0.4074  -0.3992  -0.3916  -0.3887  -0.3711
 -0.3693  -0.3586  -0.3426  -0.3369  -0.3328  -0.3207  -0.3137  -0.3085
 -0.2869  -0.2807  -0.2793

          Ground-State Mulliken Net Atomic Charges

     Atom                 Charge (a.u.)
  ----------------------------------------
      1 C                    -0.235991
      2 C                    -0.006371
      3 C                    -0.094209
      4 C                    -0.428092
      5 C                     0.861714
      6 C                    -0.072282
      7 O                    -0.221103
      8 O                    -0.231551
      9 S                     0.475262
     10 C                     0.745903
     11 C                    -0.093742
     12 C                    -0.389888
     13 C                    -0.526442
     14 C                    -0.451135
     15 C                    -0.347358
     16 O                    -0.153937
     17 O                    -0.164487
     18 H                     0.283531
     19 H                     0.278049
     20 H                     0.277910
     21 H                     0.253121
     22 H                     0.244288
     23 H                     0.240641
     24 H                     0.217732
     25 C                    -0.199998
     26 C                    -0.664613
     27 O                    -0.229858
     28 H                     0.207670
     29 H                     0.227454
     30 H                     0.197781
  ----------------------------------------
  Sum of atomic charges =     0.000000

                    Cartesian Multipole Moments
 -----------------------------------------------------------------
    Charge (ESU x 10^10)
                -0.0000
    Dipole Moment (Debye)
         X       0.1071      Y      -3.6547      Z      -3.3219
       Tot       4.9399
    Quadrupole Moments (Debye-Ang)
        XX    -101.5892     XY      10.1357     YY    -119.8358
        XZ     -16.2180     YZ       6.5573     ZZ    -132.2638

 Total job time:  114.29s(wall), 692.03s(cpu)
        *  Thank you very much for using Q-Chem.  Have a nice day.  *
