 Gaussian 16, Revision A.03,
 Gaussian 16:  ES64L-G16RevA.03 25-Dec-2016

 ----------------------------------------------------------------------
 #P UB3LYP/6-311++G(d,p) nosym opt freq SCRF=(PCM,Solvent=n,n-DiMethylF
 ormamide)
 ----------------------------------------------------------------------

 --------
 Oxidized
 --------
 Symbolic Z-matrix:
 Charge = -1 Multiplicity = 2

 SCF Done:  E(UB3LYP) =  -534.415163929     A.U. after   18 cycles
 SCF Done:  E(UB3LYP) =  -534.415523850     A.U. after   15 cycles
 SCF Done:  E(UB3LYP) =  -534.415550941     A.U. after   15 cycles
 SCF Done:  E(UB3LYP) =  -534.415399967     A.U. after   15 cycles
 SCF Done:  E(UB3LYP) =  -534.415667561     A.U. after   14 cycles
 SCF Done:  E(UB3LYP) =  -534.415705839     A.U. after   14 cycles
 SCF Done:  E(UB3LYP) =  -534.415718016     A.U. after   14 cycles
 SCF Done:  E(UB3LYP) =  -534.415725790     A.U. after   11 cycles
 SCF Done:  E(UB3LYP) =  -534.415732199     A.U. after   13 cycles
 SCF Done:  E(UB3LYP) =  -534.415748659     A.U. after   14 cycles
 SCF Done:  E(UB3LYP) =  -534.415864387     A.U. after   13 cycles
 SCF Done:  E(UB3LYP) =  -534.415454517     A.U. after   18 cycles
 SCF Done:  E(UB3LYP) =  -534.415694403     A.U. after   16 cycles
 SCF Done:  E(UB3LYP) =  -534.415884369     A.U. after   10 cycles
 SCF Done:  E(UB3LYP) =  -534.415878730     A.U. after   15 cycles
 SCF Done:  E(UB3LYP) =  -534.415923488     A.U. after   15 cycles
 SCF Done:  E(UB3LYP) =  -534.415926708     A.U. after   14 cycles
 SCF Done:  E(UB3LYP) =  -534.415927273     A.U. after   12 cycles
 SCF Done:  E(UB3LYP) =  -534.415927300     A.U. after    9 cycles
 Optimization completed.
    -- Stationary point found.
 Normal termination of Gaussian 16 at Sun Feb 11 15:07:01 2024.

 ----------------------------------------------------------------------
 #P Geom=AllCheck Guess=TCheck SCRF=Check GenChk UB3LYP/6-311++G(d,p) F
 req
 ----------------------------------------------------------------------

 Structure from the checkpoint file:  "056-rad.chk"
 --------
 Oxidized
 --------
 Charge = -1 Multiplicity = 2

                          Input orientation:
 ---------------------------------------------------------------------
 Center     Atomic      Atomic             Coordinates (Angstroms)
 Number     Number       Type             X           Y           Z
 ---------------------------------------------------------------------
      1          6           0       -0.518714    1.133371   -0.269362
      2          6           0       -1.472970    0.112513   -0.679881
      3          6           0       -1.240167   -1.222650   -0.555619
      4          6           0       -0.005238   -1.726925    0.009059
      5          6           0        0.948633   -0.730215    0.414788
      6          6           0        0.750907    0.634896    0.273789
      7          8           0       -0.825937    2.350393   -0.355700
      8          8           0        0.222316   -2.970537    0.136094
      9          6           0        1.844570    1.565750    0.661755
     10          6           0        2.833487    1.111636    1.725903
     11          8           0        1.987873    2.668783    0.145127
     12          1           0       -2.409133    0.477970   -1.090865
     13          1           0       -1.981015   -1.950769   -0.872408
     14          1           0        1.877360   -1.109328    0.825975
     15          1           0        3.521329    0.366881    1.313509
     16          1           0        2.331883    0.656386    2.582231
     17          1           0        3.417476    1.972416    2.050213
 ---------------------------------------------------------------------

 SCF Done:  E(UB3LYP) =  -534.415927300     A.U. after    1 cycles

 Alpha  occ. eigenvalues --  -19.10808 -19.08446 -19.08377 -10.26080 -10.23375
 Alpha  occ. eigenvalues --  -10.22575 -10.17938 -10.17629 -10.17271 -10.17126
 Alpha  occ. eigenvalues --  -10.16638  -1.03957  -1.00595  -1.00145  -0.83390
 Alpha  occ. eigenvalues --   -0.77320  -0.72698  -0.69197  -0.62762  -0.58732
 Alpha  occ. eigenvalues --   -0.52785  -0.48559  -0.47779  -0.46154  -0.44485
 Alpha  occ. eigenvalues --   -0.43830  -0.42340  -0.41092  -0.40937  -0.39094
 Alpha  occ. eigenvalues --   -0.38216  -0.38115  -0.37104  -0.35531  -0.28903
 Alpha  occ. eigenvalues --   -0.27164  -0.26764  -0.24885  -0.23159  -0.17245
 Alpha virt. eigenvalues --   -0.05453  -0.00085   0.00570   0.01040   0.01921
 Alpha virt. eigenvalues --    0.02761   0.03282   0.04034   0.04458   0.05511
 Alpha virt. eigenvalues --    0.06444   0.06770   0.07035   0.07775   0.08649

  Beta  occ. eigenvalues --  -19.10736 -19.07748 -19.07677 -10.26078 -10.23296
  Beta  occ. eigenvalues --  -10.22457 -10.17829 -10.17410 -10.17233 -10.17014
  Beta  occ. eigenvalues --  -10.16640  -1.03811  -0.99518  -0.98794  -0.82777
  Beta  occ. eigenvalues --   -0.77099  -0.72550  -0.68166  -0.62384  -0.58375
  Beta  occ. eigenvalues --   -0.52497  -0.48348  -0.47447  -0.45932  -0.44232
  Beta  occ. eigenvalues --   -0.43606  -0.42195  -0.40369  -0.39461  -0.38884
  Beta  occ. eigenvalues --   -0.37867  -0.36938  -0.35536  -0.34815  -0.26729
  Beta  occ. eigenvalues --   -0.26042  -0.25511  -0.24181  -0.22709
  Beta virt. eigenvalues --   -0.10127  -0.04280  -0.00060   0.01044   0.01924
  Beta virt. eigenvalues --    0.01968   0.03160   0.03335   0.04063   0.05249
  Beta virt. eigenvalues --    0.05897   0.06508   0.06877   0.07117   0.07934

 Mulliken charges and spin densities:
               1          2
     1  C   -0.843254   0.027073
     2  C    0.122244   0.090050
     3  C    0.110272   0.021721
     4  C   -0.424453   0.123357
     5  C   -0.768251   0.136251
     6  C    1.454919   0.083690
     7  O   -0.452878   0.226210
     8  O   -0.491718   0.270169
     9  C    0.139049   0.015860
    10  C   -0.591482   0.001367
    11  O   -0.353462   0.025780
    12  H    0.194355  -0.007347
    13  H    0.198129  -0.003026
    14  H    0.178947  -0.011175
    15  H    0.180066   0.000642
    16  H    0.164491  -0.000332
    17  H    0.183026  -0.000289
 Sum of Mulliken charges =  -1.00000   1.00000

 Dipole moment (field-independent basis, Debye):
    X=             -0.2312    Y=             -2.6016    Z=              1.5744  Tot=              3.0497
 Quadrupole moment (field-independent basis, Debye-Ang):
   XX=            -66.3398   YY=           -118.6440   ZZ=            -64.5908
   XY=             -0.9122   XZ=              3.8710   YZ=              5.0421

  Exact polarizability: 166.501   6.319 260.819  35.256  -7.166 103.560
 Approx polarizability: 170.588  -4.649 301.681  30.668 -15.470 113.222

                      1                      2                      3
                      A                      A                      A
 Frequencies --     37.4997                89.2141               128.7437
 Red. masses --      4.6804                 5.7730                 1.1170
 Frc consts  --      0.0039                 0.0271                 0.0109
 IR Inten    --     11.2647                11.9632                 0.3380

                      4                      5                      6
                      A                      A                      A
 Frequencies --    147.1471               190.1923               304.5552
 Red. masses --      5.4213                 5.3455                 5.6526
 Frc consts  --      0.0692                 0.1139                 0.3089
 IR Inten    --     11.3572                 6.8631                 4.9357

                      7                      8                      9
                      A                      A                      A
 Frequencies --    321.6779               373.6921               419.7871
 Red. masses --      6.4092                 4.6008                 6.7633
 Frc consts  --      0.3907                 0.3785                 0.7022
 IR Inten    --      5.3008                 6.6514                12.6734

                     10                     11                     12
                      A                      A                      A
 Frequencies --    441.2360               480.8934               514.4023
 Red. masses --      5.0599                10.4743                 3.6125
 Frc consts  --      0.5804                 1.4272                 0.5632
 IR Inten    --      4.6320                 1.1893                 7.3785

                     13                     14                     15
                      A                      A                      A
 Frequencies --    545.4229               625.6121               643.0484
 Red. masses --      2.6700                 3.7227                 2.9733
 Frc consts  --      0.4680                 0.8585                 0.7244
 IR Inten    --     15.4989                20.3587                12.2838

                     16                     17                     18
                      A                      A                      A
 Frequencies --    688.0741               750.9932               809.6932
 Red. masses --      5.9511                 3.0955                 4.8915
 Frc consts  --      1.6600                 1.0286                 1.8894
 IR Inten    --      8.1560                 1.6577                65.4117

                     19                     20                     21
                      A                      A                      A
 Frequencies --    832.2175               885.5891               903.8436
 Red. masses --      1.9484                 1.6723                 4.8811
 Frc consts  --      0.7951                 0.7727                 2.3494
 IR Inten    --     32.8234                67.3509                 4.4841

                     22                     23                     24
                      A                      A                      A
 Frequencies --    942.3595               977.4581              1029.7444
 Red. masses --      2.7977                 1.2791                 1.8570
 Frc consts  --      1.4638                 0.7201                 1.1602
 IR Inten    --    122.7813                 0.4778                10.2704

                     25                     26                     27
                      A                      A                      A
 Frequencies --   1044.5693              1116.8284              1191.8442
 Red. masses --      2.0574                 1.6917                 2.1045
 Frc consts  --      1.3227                 1.2432                 1.7613
 IR Inten    --     30.7526                 0.6167               277.7046

                     28                     29                     30
                      A                      A                      A
 Frequencies --   1243.5318              1273.8863              1355.3477
 Red. masses --      2.0199                 2.2924                 2.0831
 Frc consts  --      1.8403                 2.1918                 2.2546
 IR Inten    --    187.9968                 3.2158                44.0881

                     31                     32                     33
                      A                      A                      A
 Frequencies --   1380.2347              1422.8639              1458.6399
 Red. masses --      1.4025                 4.7993                 3.6067
 Frc consts  --      1.5742                 5.7248                 4.5213
 IR Inten    --     52.2322               134.4768               341.7789

                     34                     35                     36
                      A                      A                      A
 Frequencies --   1461.8577              1468.0650              1507.4226
 Red. masses --      1.1904                 1.0867                 4.6426
 Frc consts  --      1.4989                 1.3799                 6.2155
 IR Inten    --     34.6011                14.0259               535.3027

                     37                     38                     39
                      A                      A                      A
 Frequencies --   1523.1424              1635.3069              1685.2854
 Red. masses --      7.9546                 6.4732                10.2043
 Frc consts  --     10.8730                10.1992                17.0758
 IR Inten    --    448.5727               100.3063               772.5369

                     40                     41                     42
                      A                      A                      A
 Frequencies --   3035.4235              3097.0666              3133.4529
 Red. masses --      1.0380                 1.0970                 1.1038
 Frc consts  --      5.6346                 6.1995                 6.3853
 IR Inten    --      4.2161                13.7873                25.9424

                     43                     44                     45
                      A                      A                      A
 Frequencies --   3149.7476              3168.4746              3177.3770
 Red. masses --      1.0861                 1.0957                 1.0890
 Frc consts  --      6.3483                 6.4808                 6.4774
 IR Inten    --     24.7685                36.3910                12.7076

 - Thermochemistry -
 -------------------
 Temperature   298.150 Kelvin.  Pressure   1.00000 Atm.
 Atom     1 has atomic number  6 and mass  12.00000

 Molecular mass:   150.03169 amu.
 Principal axes and moments of inertia in atomic units:
                           1         2         3
     Eigenvalues --  1036.173811946.068112908.65105
           X            0.48773   0.76036  -0.42892
           Y            0.85524  -0.51474   0.06001
           Z            0.17516   0.39610   0.90134
 This molecule is an asymmetric top.
 Rotational symmetry number  1.
 Warning -- assumption of classical behavior for rotation
           may cause significant error
 Rotational temperatures (Kelvin)      0.08359     0.04451     0.02978
 Rotational constants (GHZ):           1.74174     0.92738     0.62047
 Zero-point vibrational energy     314698.4 (Joules/Mol)
                                   75.21472 (Kcal/Mol)
 Warning -- explicit consideration of  13 degrees of freedom as
           vibrations may cause significant error
 Vibrational temperatures:     53.95   128.36   185.23   211.71   273.64
          (Kelvin)            438.19   462.82   537.66   603.98   634.84
                              691.90   740.11   784.74   900.12   925.20
                              989.99  1080.51  1164.97  1197.38  1274.17
                             1300.43  1355.85  1406.34  1481.57  1502.90
                             1606.87  1714.80  1789.16  1832.84  1950.04
                             1985.85  2047.18  2098.66  2103.29  2112.22
                             2168.84  2191.46  2352.84  2424.75  4367.30
                             4455.99  4508.34  4531.78  4558.73  4571.54

 Zero-point correction=                           0.119862 (Hartree/Particle)
 Thermal correction to Energy=                    0.129592
 Thermal correction to Enthalpy=                  0.130536
 Thermal correction to Gibbs Free Energy=         0.083267
 Sum of electronic and zero-point Energies=           -534.296065
 Sum of electronic and thermal Energies=              -534.286336
 Sum of electronic and thermal Enthalpies=            -534.285392
 Sum of electronic and thermal Free Energies=         -534.332660

                     E (Thermal)             CV                S
                      KCal/Mol        Cal/Mol-Kelvin    Cal/Mol-Kelvin
 Total                   81.320             35.788             99.486
 Electronic               0.000              0.000              1.377
 Translational            0.889              2.981             40.927
 Rotational               0.889              2.981             30.151
 Vibrational             79.542             29.826             27.030
 Vibration     1          0.594              1.982              5.387
 Vibration     2          0.602              1.957              3.677
 Vibration     3          0.611              1.924              2.965
 Vibration     4          0.617              1.906              2.709
 Vibration     5          0.634              1.853              2.226
 Vibration     6          0.695              1.665              1.392
 Vibration     7          0.707              1.632              1.302
 Vibration     8          0.745              1.526              1.065
 Vibration     9          0.782              1.427              0.893
 Vibration    10          0.801              1.380              0.823
 Vibration    11          0.837              1.292              0.708
 Vibration    12          0.869              1.218              0.623
 Vibration    13          0.901              1.150              0.554

 Optimization completed.
    -- Stationary point found.
 Normal termination of Gaussian 16 at Sun Feb 11 15:12:49 2024.
