 Gaussian 16, Revision A.03,
 Gaussian 16:  ES64L-G16RevA.03 25-Dec-2016

 ----------------------------------------------------------------------
 #P UB3LYP/6-311++G(d,p) nosym opt freq SCRF=(PCM,Solvent=n,n-DiMethylF
 ormamide)
 ----------------------------------------------------------------------

 --------
 Oxidized
 --------
 Symbolic Z-matrix:
 Charge =  0 Multiplicity = 1

 SCF Done:  E(UB3LYP) =  -1090.01669354     A.U. after   15 cycles
 SCF Done:  E(UB3LYP) =  -1090.01688153     A.U. after   12 cycles
 SCF Done:  E(UB3LYP) =  -1090.01688434     A.U. after   12 cycles
 SCF Done:  E(UB3LYP) =  -1090.01692620     A.U. after   11 cycles
 SCF Done:  E(UB3LYP) =  -1090.01692990     A.U. after   11 cycles
 SCF Done:  E(UB3LYP) =  -1090.01693225     A.U. after   10 cycles
 SCF Done:  E(UB3LYP) =  -1090.01693256     A.U. after    9 cycles
 SCF Done:  E(UB3LYP) =  -1090.01693266     A.U. after    8 cycles
 SCF Done:  E(UB3LYP) =  -1090.01693277     A.U. after    9 cycles
 SCF Done:  E(UB3LYP) =  -1090.01693291     A.U. after   10 cycles
 SCF Done:  E(UB3LYP) =  -1090.01693295     A.U. after    9 cycles
 SCF Done:  E(UB3LYP) =  -1090.01693300     A.U. after    9 cycles
 SCF Done:  E(UB3LYP) =  -1090.01693305     A.U. after    9 cycles
 SCF Done:  E(UB3LYP) =  -1090.01693307     A.U. after    9 cycles
 SCF Done:  E(UB3LYP) =  -1090.01693308     A.U. after    9 cycles
 SCF Done:  E(UB3LYP) =  -1090.01693309     A.U. after    8 cycles
 Optimization completed.
    -- Stationary point found.
 Normal termination of Gaussian 16 at Sat Feb 10 20:05:47 2024.

 ----------------------------------------------------------------------
 #P Geom=AllCheck Guess=TCheck SCRF=Check GenChk UB3LYP/6-311++G(d,p) F
 req
 ----------------------------------------------------------------------

 Structure from the checkpoint file:  "182.chk"
 --------
 Oxidized
 --------
 Charge =  0 Multiplicity = 1

                          Input orientation:
 ---------------------------------------------------------------------
 Center     Atomic      Atomic             Coordinates (Angstroms)
 Number     Number       Type             X           Y           Z
 ---------------------------------------------------------------------
      1          6           0        6.736507    0.236316    0.599465
      2          6           0        5.239925    0.282894    0.409804
      3          6           0        4.651795    1.163527   -0.506099
      4          6           0        3.275789    1.181179   -0.713926
      5          6           0        2.437443    0.321021    0.006349
      6          7           0        1.040195    0.425168   -0.184596
      7          6           0        0.115284   -0.581115   -0.244521
      8          6           0        0.534447   -1.926428   -0.407638
      9          6           0       -0.371523   -2.947866   -0.477281
     10          6           0       -1.759002   -2.713248   -0.386952
     11          8           0       -2.607759   -3.771596   -0.440782
     12          6           0       -2.231869   -1.401059   -0.256640
     13          6           0       -3.691436   -1.138964   -0.174028
     14          8           0       -4.532152   -2.030563   -0.252244
     15          6           0       -4.137549    0.268597    0.020109
     16          6           0       -5.504872    0.539569    0.154010
     17          6           0       -5.946847    1.843976    0.333415
     18          6           0       -5.024576    2.895257    0.375820
     19          6           0       -3.667310    2.635579    0.238093
     20          6           0       -3.213855    1.321253    0.062835
     21          6           0       -1.760053    1.066604   -0.085498
     22          8           0       -0.985963    2.041651   -0.110369
     23          6           0       -1.286414   -0.314940   -0.194394
     24          6           0        3.010670   -0.545445    0.945326
     25          6           0        4.390698   -0.565006    1.130413
     26          1           0        6.999461   -0.096579    1.605995
     27          1           0        7.199925   -0.461251   -0.106966
     28          1           0        7.189412    1.216362    0.433253
     29          1           0        5.278791    1.843426   -1.073803
     30          1           0        2.842780    1.863831   -1.436784
     31          1           0        0.631923    1.357752   -0.228824
     32          1           0        1.588066   -2.146462   -0.504789
     33          1           0       -0.018674   -3.964767   -0.617409
     34          1           0       -2.092171   -4.585108   -0.513601
     35          1           0       -6.205140   -0.284835    0.115751
     36          1           0       -7.006156    2.047031    0.439625
     37          1           0       -5.368832    3.913433    0.515430
     38          1           0       -2.942391    3.438527    0.265338
     39          1           0        2.380294   -1.185388    1.550627
     40          1           0        4.811138   -1.242329    1.866756
 ---------------------------------------------------------------------

 SCF Done:  E(UB3LYP) =  -1090.01693309     A.U. after    1 cycles

 Alpha  occ. eigenvalues --  -19.17242 -19.12325 -19.11750 -14.34885 -10.27603
 Alpha  occ. eigenvalues --  -10.27563 -10.26392 -10.24999 -10.22668 -10.20879
 Alpha  occ. eigenvalues --  -10.20738 -10.20391 -10.20363 -10.20257 -10.20107
 Alpha  occ. eigenvalues --  -10.19526 -10.19472 -10.19342 -10.19331 -10.18944
 Alpha  occ. eigenvalues --  -10.18407 -10.18302 -10.18118 -10.18089 -10.16842
 Alpha  occ. eigenvalues --   -1.08813  -1.05519  -1.05039  -0.96921  -0.88857
 Alpha  occ. eigenvalues --   -0.87765  -0.85995  -0.81271  -0.78856  -0.77461
 Alpha  occ. eigenvalues --   -0.77257  -0.75927  -0.75149  -0.69651  -0.68916
 Alpha  occ. eigenvalues --   -0.66835  -0.65372  -0.62859  -0.61839  -0.60053
 Alpha  occ. eigenvalues --   -0.59485  -0.58107  -0.56420  -0.54500  -0.53314
 Alpha  occ. eigenvalues --   -0.50952  -0.49752  -0.48674  -0.48486  -0.47929
 Alpha  occ. eigenvalues --   -0.47265  -0.46092  -0.45841  -0.44847  -0.44685
 Alpha  occ. eigenvalues --   -0.44247  -0.44069  -0.43099  -0.42685  -0.42502
 Alpha  occ. eigenvalues --   -0.41886  -0.41533  -0.40748  -0.39779  -0.38811
 Alpha  occ. eigenvalues --   -0.38438  -0.37658  -0.37335  -0.36566  -0.36409
 Alpha  occ. eigenvalues --   -0.36372  -0.35206  -0.31635  -0.28913  -0.28218
 Alpha  occ. eigenvalues --   -0.27599  -0.27488  -0.26725  -0.26577  -0.25609
 Alpha  occ. eigenvalues --   -0.20854
 Alpha virt. eigenvalues --   -0.11417  -0.06672  -0.03865  -0.02689  -0.02502
 Alpha virt. eigenvalues --   -0.00897  -0.00424  -0.00248  -0.00076   0.00893
 Alpha virt. eigenvalues --    0.01321   0.01748   0.01993   0.02654   0.03317

  Beta  occ. eigenvalues --  -19.17242 -19.12325 -19.11750 -14.34885 -10.27603
  Beta  occ. eigenvalues --  -10.27563 -10.26392 -10.24999 -10.22668 -10.20879
  Beta  occ. eigenvalues --  -10.20738 -10.20391 -10.20363 -10.20257 -10.20107
  Beta  occ. eigenvalues --  -10.19526 -10.19472 -10.19342 -10.19331 -10.18944
  Beta  occ. eigenvalues --  -10.18407 -10.18302 -10.18118 -10.18089 -10.16842
  Beta  occ. eigenvalues --   -1.08813  -1.05519  -1.05039  -0.96921  -0.88857
  Beta  occ. eigenvalues --   -0.87765  -0.85995  -0.81271  -0.78856  -0.77461
  Beta  occ. eigenvalues --   -0.77257  -0.75927  -0.75149  -0.69651  -0.68916
  Beta  occ. eigenvalues --   -0.66835  -0.65372  -0.62859  -0.61839  -0.60053
  Beta  occ. eigenvalues --   -0.59485  -0.58107  -0.56420  -0.54500  -0.53314
  Beta  occ. eigenvalues --   -0.50952  -0.49752  -0.48674  -0.48486  -0.47929
  Beta  occ. eigenvalues --   -0.47265  -0.46092  -0.45841  -0.44847  -0.44685
  Beta  occ. eigenvalues --   -0.44247  -0.44069  -0.43099  -0.42685  -0.42502
  Beta  occ. eigenvalues --   -0.41886  -0.41533  -0.40748  -0.39779  -0.38811
  Beta  occ. eigenvalues --   -0.38438  -0.37658  -0.37335  -0.36566  -0.36409
  Beta  occ. eigenvalues --   -0.36372  -0.35206  -0.31635  -0.28913  -0.28218
  Beta  occ. eigenvalues --   -0.27599  -0.27488  -0.26725  -0.26577  -0.25609
  Beta  occ. eigenvalues --   -0.20854
  Beta virt. eigenvalues --   -0.11417  -0.06672  -0.03865  -0.02689  -0.02502
  Beta virt. eigenvalues --   -0.00897  -0.00424  -0.00248  -0.00076   0.00893
  Beta virt. eigenvalues --    0.01321   0.01748   0.01993   0.02654   0.03317

 Mulliken charges and spin densities:
               1          2
     1  C   -0.579158   0.000000
     2  C    0.338622   0.000000
     3  C   -0.391564  -0.000000
     4  C   -0.170375   0.000000
     5  C    0.013062   0.000000
     6  N    0.040582  -0.000000
     7  C   -0.166125   0.000000
     8  C    0.061421   0.000000
     9  C   -0.301238  -0.000000
    10  C   -0.361621   0.000000
    11  O   -0.208360  -0.000000
    12  C    0.281156  -0.000000
    13  C   -0.373832  -0.000000
    14  O   -0.306855   0.000000
    15  C    0.268766   0.000000
    16  C    0.141550   0.000000
    17  C   -0.429116   0.000000
    18  C   -0.418106   0.000000
    19  C   -0.014089   0.000000
    20  C    0.324900  -0.000000
    21  C   -0.305149  -0.000000
    22  O   -0.315681  -0.000000
    23  C    0.160099  -0.000000
    24  C   -0.001310  -0.000000
    25  C   -0.429249   0.000000
    26  H    0.153765   0.000000
    27  H    0.177781   0.000000
    28  H    0.152336  -0.000000
    29  H    0.191642   0.000000
    30  H    0.186528   0.000000
    31  H    0.383212   0.000000
    32  H    0.226264   0.000000
    33  H    0.204785  -0.000000
    34  H    0.305371  -0.000000
    35  H    0.188570  -0.000000
    36  H    0.200535   0.000000
    37  H    0.204448  -0.000000
    38  H    0.178426   0.000000
    39  H    0.188664  -0.000000
    40  H    0.199344  -0.000000
 Sum of Mulliken charges =  -0.00000  -0.00000

 Dipole moment (field-independent basis, Debye):
    X=              5.4817    Y=             -1.2663    Z=              0.2793  Tot=              5.6330
 Quadrupole moment (field-independent basis, Debye-Ang):
   XX=           -135.7206   YY=           -127.5603   ZZ=           -146.3967
   XY=            -22.8404   XZ=             -3.0803   YZ=             -0.8355

  Exact polarizability: 648.973 -36.019 435.824  -4.045  -0.729 209.850
 Approx polarizability: 674.022 -18.613 525.069  -5.959  -6.794 250.059

                      1                      2                      3
                      A                      A                      A
 Frequencies --     17.2695                24.2043                31.4434
 Red. masses --      5.4513                 5.0845                 1.9182
 Frc consts  --      0.0010                 0.0018                 0.0011
 IR Inten    --      7.5332                 3.3962                 1.9451

                      4                      5                      6
                      A                      A                      A
 Frequencies --     37.9502                57.1280                67.1578
 Red. masses --      1.5563                 4.6542                 6.3307
 Frc consts  --      0.0013                 0.0089                 0.0168
 IR Inten    --      2.0522                 1.5841                 0.2819

                      7                      8                      9
                      A                      A                      A
 Frequencies --    110.8414               134.5222               135.2997
 Red. masses --      4.7990                 5.4188                 5.0525
 Frc consts  --      0.0347                 0.0578                 0.0545
 IR Inten    --      0.5846                 2.0315                 1.5786

                     10                     11                     12
                      A                      A                      A
 Frequencies --    169.2569               185.0000               232.6773
 Red. masses --      7.0436                 5.4423                 5.6006
 Frc consts  --      0.1189                 0.1097                 0.1786
 IR Inten    --      0.6774                 2.3693                 2.7194

                     13                     14                     15
                      A                      A                      A
 Frequencies --    241.9884               278.7937               318.6108
 Red. masses --      5.4930                 4.5901                 5.0995
 Frc consts  --      0.1895                 0.2102                 0.3050
 IR Inten    --      8.0928                 2.4933                 1.0624

                     16                     17                     18
                      A                      A                      A
 Frequencies --    333.6235               351.7947               367.1356
 Red. masses --      4.7642                 4.2182                 7.6395
 Frc consts  --      0.3124                 0.3076                 0.6067
 IR Inten    --      3.1190                 4.6419                22.1682

                     19                     20                     21
                      A                      A                      A
 Frequencies --    391.9487               405.4662               405.9519
 Red. masses --      8.1028                 1.4401                 2.8348
 Frc consts  --      0.7334                 0.1395                 0.2752
 IR Inten    --      6.5558               105.0353                28.6716

                     22                     23                     24
                      A                      A                      A
 Frequencies --    422.8902               428.6399               431.8306
 Red. masses --      3.1199                 3.1619                 9.6484
 Frc consts  --      0.3287                 0.3423                 1.0601
 IR Inten    --      2.7332                16.5349                32.3569

                     25                     26                     27
                      A                      A                      A
 Frequencies --    436.5531               466.3086               482.4860
 Red. masses --      5.3984                 6.1074                 8.0358
 Frc consts  --      0.6062                 0.7824                 1.1022
 IR Inten    --      2.5835                29.9602                10.5406

                     28                     29                     30
                      A                      A                      A
 Frequencies --    503.2112               512.2978               516.7007
 Red. masses --      4.7770                 3.0479                 5.1972
 Frc consts  --      0.7127                 0.4713                 0.8175
 IR Inten    --      3.7113                28.4015                 7.0012

                     31                     32                     33
                      A                      A                      A
 Frequencies --    577.5354               583.5979               636.6677
 Red. masses --      4.8979                 3.0730                 4.7303
 Frc consts  --      0.9625                 0.6166                 1.1297
 IR Inten    --     21.4436                63.5226                17.4408

                     34                     35                     36
                      A                      A                      A
 Frequencies --    653.1558               658.4497               668.5318
 Red. masses --      6.7925                 1.3745                 6.1856
 Frc consts  --      1.7073                 0.3511                 1.6288
 IR Inten    --      5.9648                98.1597                15.7351

                     37                     38                     39
                      A                      A                      A
 Frequencies --    676.5251               719.5332               724.2936
 Red. masses --      4.3388                 4.9069                 4.0854
 Frc consts  --      1.1700                 1.4968                 1.2627
 IR Inten    --     26.6686                 7.0756                12.9047

                     40                     41                     42
                      A                      A                      A
 Frequencies --    740.0139               742.6775               778.5878
 Red. masses --      4.6657                 2.0014                 3.1328
 Frc consts  --      1.5054                 0.6504                 1.1189
 IR Inten    --      3.7942               117.7729                14.6031

                     43                     44                     45
                      A                      A                      A
 Frequencies --    779.6157               810.9768               818.4445
 Red. masses --      5.8533                 3.7840                 2.7523
 Frc consts  --      2.0961                 1.4663                 1.0862
 IR Inten    --      5.5708                 3.4224                24.6934

                     46                     47                     48
                      A                      A                      A
 Frequencies --    834.0175               837.7727               846.2982
 Red. masses --      2.2743                 1.5715                 1.4201
 Frc consts  --      0.9321                 0.6499                 0.5992
 IR Inten    --     48.5375                49.4545                23.9450

                     49                     50                     51
                      A                      A                      A
 Frequencies --    864.6075               880.6053               911.4660
 Red. masses --      3.0242                 7.6377                 1.4236
 Frc consts  --      1.3320                 3.4896                 0.6968
 IR Inten    --     13.2007               101.3136                 0.0352

                     52                     53                     54
                      A                      A                      A
 Frequencies --    916.9781               961.7599               967.6187
 Red. masses --      6.6269                 1.4531                 3.7858
 Frc consts  --      3.2830                 0.7919                 2.0884
 IR Inten    --     23.5217                 6.7239                59.9083

                     55                     56                     57
                      A                      A                      A
 Frequencies --    979.7582               988.4516              1001.1344
 Red. masses --      1.3576                 1.3236                 1.3809
 Frc consts  --      0.7678                 0.7620                 0.8154
 IR Inten    --      1.8912                 1.8789                 2.1322

                     58                     59                     60
                      A                      A                      A
 Frequencies --   1007.1412              1020.4640              1031.6560
 Red. masses --      1.4093                 1.3227                 2.8068
 Frc consts  --      0.8422                 0.8115                 1.7601
 IR Inten    --      0.5874                 0.0080                26.7564

                     61                     62                     63
                      A                      A                      A
 Frequencies --   1045.0779              1059.1992              1081.9901
 Red. masses --      2.9755                 1.5377                 2.4179
 Frc consts  --      1.9147                 1.0164                 1.6678
 IR Inten    --    168.9744                35.3994               263.2433

                     64                     65                     66
                      A                      A                      A
 Frequencies --   1113.8031              1138.3721              1175.5124
 Red. masses --      2.2936                 1.2974                 1.2781
 Frc consts  --      1.6764                 0.9906                 1.0405
 IR Inten    --      3.9522                18.6636                10.3073

                     67                     68                     69
                      A                      A                      A
 Frequencies --   1178.8840              1199.8536              1201.1494
 Red. masses --      1.8807                 1.2990                 1.2657
 Frc consts  --      1.5400                 1.1018                 1.0759
 IR Inten    --     28.5928               266.3278               172.5131

                     70                     71                     72
                      A                      A                      A
 Frequencies --   1221.3404              1228.8931              1243.0625
 Red. masses --      1.7331                 3.5804                 3.5491
 Frc consts  --      1.5231                 3.1858                 3.2312
 IR Inten    --    191.1894                17.7893               313.1180

                     73                     74                     75
                      A                      A                      A
 Frequencies --   1253.5385              1264.8379              1288.4174
 Red. masses --      2.2841                 2.3674                 2.4120
 Frc consts  --      2.1146                 2.2315                 2.3591
 IR Inten    --    390.4026               664.1746               564.5711

                     76                     77                     78
                      A                      A                      A
 Frequencies --   1309.1875              1320.0771              1330.4428
 Red. masses --      4.1690                 2.8062                 3.0112
 Frc consts  --      4.2101                 2.8812                 3.1404
 IR Inten    --    190.0528               206.7959               142.4411

                     79                     80                     81
                      A                      A                      A
 Frequencies --   1341.4166              1357.9124              1384.6367
 Red. masses --      1.5344                 8.0530                 4.6202
 Frc consts  --      1.6267                 8.7488                 5.2189
 IR Inten    --     34.4239                 0.1698               162.5570

                     82                     83                     84
                      A                      A                      A
 Frequencies --   1409.3507              1419.5970              1440.9724
 Red. masses --      1.2470                 4.4433                 2.6747
 Frc consts  --      1.4593                 5.2758                 3.2721
 IR Inten    --      1.4261                18.6947                 3.4369

                     85                     86                     87
                      A                      A                      A
 Frequencies --   1474.2470              1479.2887              1482.4833
 Red. masses --      2.7807                 1.0529                 1.7232
 Frc consts  --      3.5608                 1.3575                 2.2314
 IR Inten    --     52.2535                10.6385                 6.2763

                     88                     89                     90
                      A                      A                      A
 Frequencies --   1484.0533              1506.0250              1530.7707
 Red. masses --      1.4676                 2.6002                 2.7284
 Frc consts  --      1.9044                 3.4747                 3.7668
 IR Inten    --     36.6298                 6.5318               629.6503

                     91                     92                     93
                      A                      A                      A
 Frequencies --   1541.0611              1593.9109              1593.9991
 Red. masses --      2.6846                 4.4743                 5.2028
 Frc consts  --      3.7564                 6.6973                 7.7886
 IR Inten    --    475.6213               274.2933                13.6152

                     94                     95                     96
                      A                      A                      A
 Frequencies --   1613.0264              1620.4211              1625.7382
 Red. masses --      4.3951                 6.3356                 4.4127
 Frc consts  --      6.7376                 9.8015                 6.8716
 IR Inten    --     25.1117               344.7909               446.3005

                     97                     98                     99
                      A                      A                      A
 Frequencies --   1645.4026              1654.5839              1688.1141
 Red. masses --      5.7669                 7.5378                 9.5557
 Frc consts  --      9.1989                12.1582                16.0442
 IR Inten    --     44.9887               337.6871               284.0995

                    100                    101                    102
                      A                      A                      A
 Frequencies --   3019.8267              3074.1725              3102.7010
 Red. masses --      1.0416                 1.0937                 1.1028
 Frc consts  --      5.5963                 6.0896                 6.2548
 IR Inten    --     58.4503                31.3934                27.9464

                    103                    104                    105
                      A                      A                      A
 Frequencies --   3160.7763              3161.9079              3164.9856
 Red. masses --      1.0882                 1.0889                 1.0909
 Frc consts  --      6.4055                 6.4142                 6.4386
 IR Inten    --     21.6742                34.5825                18.4368

                    106                    107                    108
                      A                      A                      A
 Frequencies --   3175.6990              3179.8611              3188.3484
 Red. masses --      1.0874                 1.0942                 1.0935
 Frc consts  --      6.4614                 6.5188                 6.5494
 IR Inten    --      3.9642                17.6015                 7.4604

                    109                    110                    111
                      A                      A                      A
 Frequencies --   3188.7563              3204.3991              3207.7847
 Red. masses --      1.0921                 1.0926                 1.0941
 Frc consts  --      6.5426                 6.6100                 6.6333
 IR Inten    --     18.9936                 7.8570                20.1690

                    112                    113                    114
                      A                      A                      A
 Frequencies --   3216.1087              3407.9523              3789.6182
 Red. masses --      1.0923                 1.0782                 1.0663
 Frc consts  --      6.6568                 7.3783                 9.0224
 IR Inten    --      0.8615               195.7718               197.8109

 - Thermochemistry -
 -------------------
 Temperature   298.150 Kelvin.  Pressure   1.00000 Atm.
 Atom     1 has atomic number  6 and mass  12.00000

 Molecular mass:   329.10519 amu.
 Principal axes and moments of inertia in atomic units:
                           1         2         3
     Eigenvalues --  3941.41772********************
           X            0.99953   0.01359  -0.02733
           Y           -0.01583   0.99640  -0.08332
           Z            0.02610   0.08371   0.99615
 This molecule is an asymmetric top.
 Rotational symmetry number  1.
 Warning -- assumption of classical behavior for rotation
           may cause significant error
 Rotational temperatures (Kelvin)      0.02198     0.00558     0.00456
 Rotational constants (GHZ):           0.45789     0.11629     0.09493
 Zero-point vibrational energy     806886.4 (Joules/Mol)
                                  192.85047 (Kcal/Mol)
 Warning -- explicit consideration of  32 degrees of freedom as
           vibrations may cause significant error
 Vibrational temperatures:     24.85    34.82    45.24    54.60    82.19
          (Kelvin)             96.63   159.48   193.55   194.67   243.52
                              266.17   334.77   348.17   401.12   458.41
                              480.01   506.15   528.23   563.93   583.38
                              584.07   608.44   616.72   621.31   628.10
                              670.91   694.19   724.01   737.08   743.42
                              830.94   839.67   916.02   939.75   947.36
                              961.87   973.37  1035.25  1042.10  1064.72
                             1068.55  1120.21  1121.69  1166.81  1177.56
                             1199.97  1205.37  1217.63  1243.98  1266.99
                             1311.40  1319.33  1383.76  1392.19  1409.65
                             1422.16  1440.41  1449.05  1468.22  1484.32
                             1503.63  1523.95  1556.74  1602.51  1637.86
                             1691.30  1696.15  1726.32  1728.19  1757.24
                             1768.10  1788.49  1803.56  1819.82  1853.75
                             1883.63  1899.30  1914.21  1930.00  1953.73
                             1992.18  2027.74  2042.48  2073.24  2121.11
                             2128.37  2132.96  2135.22  2166.83  2202.44
                             2217.24  2293.28  2293.41  2320.79  2331.42
                             2339.07  2367.37  2380.58  2428.82  4344.86
                             4423.05  4464.09  4547.65  4549.28  4553.71
                             4569.12  4575.11  4587.32  4587.91  4610.42
                             4615.29  4627.26  4903.28  5452.42

 Zero-point correction=                           0.307327 (Hartree/Particle)
 Thermal correction to Energy=                    0.327543
 Thermal correction to Enthalpy=                  0.328487
 Thermal correction to Gibbs Free Energy=         0.255922
 Sum of electronic and zero-point Energies=          -1089.709606
 Sum of electronic and thermal Energies=             -1089.689390
 Sum of electronic and thermal Enthalpies=           -1089.688446
 Sum of electronic and thermal Free Energies=        -1089.761011

                     E (Thermal)             CV                S
                      KCal/Mol        Cal/Mol-Kelvin    Cal/Mol-Kelvin
 Total                  205.536             79.930            152.726
 Electronic               0.000              0.000              0.000
 Translational            0.889              2.981             43.269
 Rotational               0.889              2.981             35.407
 Vibrational            203.759             73.968             74.050
 Vibration     1          0.593              1.986              6.926
 Vibration     2          0.593              1.985              6.255
 Vibration     3          0.594              1.983              5.736
 Vibration     4          0.594              1.982              5.363
 Vibration     5          0.596              1.975              4.554
 Vibration     6          0.598              1.970              4.235
 Vibration     7          0.607              1.940              3.254
 Vibration     8          0.613              1.919              2.880
 Vibration     9          0.613              1.918              2.869
 Vibration    10          0.625              1.880              2.444
 Vibration    11          0.631              1.860              2.277
 Vibration    12          0.653              1.791              1.858
 Vibration    13          0.658              1.776              1.788
 Vibration    14          0.679              1.713              1.541
 Vibration    15          0.705              1.638              1.317
 Vibration    16          0.715              1.608              1.242
 Vibration    17          0.728              1.572              1.158
 Vibration    18          0.740              1.540              1.092
 Vibration    19          0.759              1.487              0.993
 Vibration    20          0.770              1.458              0.943
 Vibration    21          0.771              1.457              0.941
 Vibration    22          0.785              1.420              0.882
 Vibration    23          0.790              1.408              0.863
 Vibration    24          0.793              1.401              0.853
 Vibration    25          0.797              1.391              0.838
 Vibration    26          0.824              1.325              0.748
 Vibration    27          0.839              1.289              0.703
 Vibration    28          0.859              1.243              0.650
 Vibration    29          0.867              1.223              0.628
 Vibration    30          0.872              1.213              0.618
 Vibration    31          0.934              1.080              0.490
 Vibration    32          0.940              1.067              0.479

                           ! Non-Optimized Parameters !
 Normal termination of Gaussian 16 at Sat Feb 10 23:04:03 2024.
