 Q-Chem 5.4, Q-Chem, Inc., Pleasanton, CA (2021)
 Q-Chem 5.4.0 for Intel X86 EM64T Linux

User input:
--------------------------------------------------------------
$molecule
0 1
C                  5.9533810000     -5.1550410000      1.1116990000
C                  6.8898280000     -4.9632390000      0.0984110000
C                  6.6805030000     -3.9909400000     -0.8819780000
C                  4.7994170000     -4.3740470000      1.1508580000
C                  4.5901620000     -3.3991740000      0.1673340000
C                  5.5317560000     -3.2082840000     -0.8491570000
C                  3.8018690000     -4.5951050000      2.2501770000
C                  2.6030410000     -3.7548840000      2.2560720000
C                  2.3542120000     -2.7867810000      1.3139020000
C                  3.3723190000     -2.5680520000      0.2004460000
O                  4.0067710000     -5.4517320000      3.0971140000
O                  3.1463520000     -1.7065540000     -0.6339710000
H                  6.0970270000     -5.9033440000      1.8808770000
H                  7.7858480000     -5.5730900000      0.0720510000
H                  5.3468520000     -2.4481030000     -1.5978180000
Cl                 1.4999070000     -4.0895220000      3.5786150000
H                  7.4120790000     -3.8455080000     -1.6683250000
N                  1.3153520000     -1.9407690000      1.1791720000
C                  0.1019990000     -1.7564220000      1.9770210000
C                 -0.7492520000     -0.6434040000      1.3655670000
C                 -2.0363590000     -0.4014020000      2.1575270000
H                  1.4252970000     -1.3374800000      0.3701270000
H                  0.3662290000     -1.5012670000      3.0061970000
H                 -0.4690780000     -2.6874680000      2.0098830000
H                 -0.9958490000     -0.9062750000      0.3303730000
H                 -0.1600640000      0.2801070000      1.3263180000
H                 -2.6586360000     -1.3005020000      2.1893250000
H                 -2.6288750000      0.3964810000      1.7041220000
H                 -1.8194300000     -0.1091790000      3.1891090000
$end

$rem
BASIS  =  6-311++G(d,p)
GUI  =  2
JOB_TYPE  =  SP
METHOD  =  B3LYP
SCF_CONVERGENCE  = 8
SOLVENT_METHOD = sm12
$end

$smx
solvent dimethylformamide
charges CM5
$end

--------------------------------------------------------------

             Standard Nuclear Orientation (Angstroms)
    I     Atom           X                Y                Z
 ----------------------------------------------------------------
    1      C       5.9533810000    -5.1550410000     1.1116990000
    2      C       6.8898280000    -4.9632390000     0.0984110000
    3      C       6.6805030000    -3.9909400000    -0.8819780000
    4      C       4.7994170000    -4.3740470000     1.1508580000
    5      C       4.5901620000    -3.3991740000     0.1673340000
    6      C       5.5317560000    -3.2082840000    -0.8491570000
    7      C       3.8018690000    -4.5951050000     2.2501770000
    8      C       2.6030410000    -3.7548840000     2.2560720000
    9      C       2.3542120000    -2.7867810000     1.3139020000
   10      C       3.3723190000    -2.5680520000     0.2004460000
   11      O       4.0067710000    -5.4517320000     3.0971140000
   12      O       3.1463520000    -1.7065540000    -0.6339710000
   13      H       6.0970270000    -5.9033440000     1.8808770000
   14      H       7.7858480000    -5.5730900000     0.0720510000
   15      H       5.3468520000    -2.4481030000    -1.5978180000
   16      Cl      1.4999070000    -4.0895220000     3.5786150000
   17      H       7.4120790000    -3.8455080000    -1.6683250000
   18      N       1.3153520000    -1.9407690000     1.1791720000
   19      C       0.1019990000    -1.7564220000     1.9770210000
   20      C      -0.7492520000    -0.6434040000     1.3655670000
   21      C      -2.0363590000    -0.4014020000     2.1575270000
   22      H       1.4252970000    -1.3374800000     0.3701270000
   23      H       0.3662290000    -1.5012670000     3.0061970000
   24      H      -0.4690780000    -2.6874680000     2.0098830000
   25      H      -0.9958490000    -0.9062750000     0.3303730000
   26      H      -0.1600640000     0.2801070000     1.3263180000
   27      H      -2.6586360000    -1.3005020000     2.1893250000
   28      H      -2.6288750000     0.3964810000     1.7041220000
   29      H      -1.8194300000    -0.1091790000     3.1891090000
 ----------------------------------------------------------------

   16   -1168.2298436553      3.26e-09  Convergence criterion met
 Total energy in the final basis set =    -1168.2504259676

                    Orbital Energies (a.u.)
 --------------------------------------------------------------

 Alpha MOs
 -- Occupied --
******** -19.1460 -19.1151 -14.3600 -10.2961 -10.2739 -10.2614 -10.2401
-10.2135 -10.2095 -10.2089 -10.1996 -10.1983 -10.1958 -10.1952 -10.1752
-10.1600  -9.4704  -7.2352  -7.2253  -7.2247  -1.0837  -1.0523  -0.9690
 -0.8915  -0.8749  -0.8188  -0.7949  -0.7785  -0.7532  -0.7068  -0.6806
 -0.6485  -0.6240  -0.6135  -0.5909  -0.5583  -0.5434  -0.5183  -0.4945
 -0.4902  -0.4855  -0.4654  -0.4616  -0.4514  -0.4496  -0.4434  -0.4281
 -0.4216  -0.4165  -0.4128  -0.3864  -0.3829  -0.3706  -0.3690  -0.3583
 -0.3545  -0.3422  -0.3293  -0.3145  -0.2990  -0.2857  -0.2777  -0.2732
 -0.2295

          Ground-State Mulliken Net Atomic Charges

     Atom                 Charge (a.u.)
  ----------------------------------------
      1 C                    -0.155351
      2 C                     0.449127
      3 C                     0.117759
      4 C                    -0.119708
      5 C                     0.287592
      6 C                     0.097573
      7 C                    -1.474893
      8 C                    -0.446650
      9 C                     0.208658
     10 C                    -0.621654
     11 O                    -0.303996
     12 O                    -0.217677
     13 H                     0.167076
     14 H                     0.318213
     15 H                     0.235772
     16 Cl                    0.389610
     17 H                     0.327984
     18 N                    -0.004798
     19 C                    -0.232102
     20 C                     0.099179
     21 C                    -0.606084
     22 H                     0.405481
     23 H                     0.147493
     24 H                     0.147345
     25 H                     0.165333
     26 H                     0.165154
     27 H                     0.135121
     28 H                     0.183230
     29 H                     0.135211
  ----------------------------------------
  Sum of atomic charges =     0.000000

                    Cartesian Multipole Moments
 -----------------------------------------------------------------
    Charge (ESU x 10^10)
                 0.0000
    Dipole Moment (Debye)
         X      -0.3683      Y       3.0560      Z      -3.3263
       Tot       4.5320
    Quadrupole Moments (Debye-Ang)
        XX     -84.4203     XY      -0.6225     YY    -129.0618
        XZ     -19.3175     YZ      25.0649     ZZ    -121.8744

 Total job time:  665.48s(wall), 4915.86s(cpu)
        *  Thank you very much for using Q-Chem.  Have a nice day.  *
