 Q-Chem 5.4, Q-Chem, Inc., Pleasanton, CA (2021)
 Q-Chem 5.4.0 for Intel X86 EM64T Linux

User input:
--------------------------------------------------------------
$molecule
-2 1
C                 -1.6944060000      3.0811340000      0.2855080000
C                 -2.8698070000      2.3660800000      0.1503090000
C                 -2.8217750000      0.9761490000     -0.1336300000
C                 -0.4209380000      2.4733830000      0.1476160000
C                 -0.3758990000      1.0576460000     -0.1304940000
C                 -1.5915350000      0.3538290000     -0.2644570000
C                  0.7712950000      3.2901070000      0.3114170000
C                  2.0128030000      2.5696450000      0.1652150000
C                  2.0389060000      1.1861290000     -0.1123630000
C                  0.8962580000      0.3562980000     -0.2702830000
O                  0.6923970000      4.5476980000      0.5910840000
O                  0.9643420000     -0.9037020000     -0.5266870000
N                  3.2336080000      3.2880540000      0.3848570000
C                  3.4008180000      4.4968970000     -0.4161740000
C                  4.4607040000      2.5276240000      0.4535970000
H                 -1.7009350000      4.1444740000      0.5045170000
H                 -3.8305220000      2.8674500000      0.2611280000
H                 -3.7431660000      0.4062950000     -0.2435620000
H                 -1.5129410000     -0.7085040000     -0.4773930000
H                  2.9896090000      0.6805830000     -0.2433100000
H                  2.4726370000      5.0661840000     -0.3735780000
H                  3.6549000000      4.2590030000     -1.4727640000
H                  4.2225660000      5.0975500000     -0.0046210000
H                  4.3655690000      1.7092850000      1.1701700000
H                  5.2726200000      3.1852430000      0.7805580000
H                  4.7717890000      2.0872560000     -0.5210310000
$end
$rem
MAX_SCF_CYCLES=200
BASIS  =  6-311++G(d,p)
GUI  =  2
JOB_TYPE  =  SP
METHOD  =  B3LYP
SOLVENT_METHOD = PCM
$end
$pcm
theory = CPCM
$end
$solvent
dielectric 37.219
opticaldielectric 1.43
$end

--------------------------------------------------------------

             Standard Nuclear Orientation (Angstroms)
    I     Atom           X                Y                Z
 ----------------------------------------------------------------
    1      C      -1.6944060000     3.0811340000     0.2855080000
    2      C      -2.8698070000     2.3660800000     0.1503090000
    3      C      -2.8217750000     0.9761490000    -0.1336300000
    4      C      -0.4209380000     2.4733830000     0.1476160000
    5      C      -0.3758990000     1.0576460000    -0.1304940000
    6      C      -1.5915350000     0.3538290000    -0.2644570000
    7      C       0.7712950000     3.2901070000     0.3114170000
    8      C       2.0128030000     2.5696450000     0.1652150000
    9      C       2.0389060000     1.1861290000    -0.1123630000
   10      C       0.8962580000     0.3562980000    -0.2702830000
   11      O       0.6923970000     4.5476980000     0.5910840000
   12      O       0.9643420000    -0.9037020000    -0.5266870000
   13      N       3.2336080000     3.2880540000     0.3848570000
   14      C       3.4008180000     4.4968970000    -0.4161740000
   15      C       4.4607040000     2.5276240000     0.4535970000
   16      H      -1.7009350000     4.1444740000     0.5045170000
   17      H      -3.8305220000     2.8674500000     0.2611280000
   18      H      -3.7431660000     0.4062950000    -0.2435620000
   19      H      -1.5129410000    -0.7085040000    -0.4773930000
   20      H       2.9896090000     0.6805830000    -0.2433100000
   21      H       2.4726370000     5.0661840000    -0.3735780000
   22      H       3.6549000000     4.2590030000    -1.4727640000
   23      H       4.2225660000     5.0975500000    -0.0046210000
   24      H       4.3655690000     1.7092850000     1.1701700000
   25      H       5.2726200000     3.1852430000     0.7805580000
   26      H       4.7717890000     2.0872560000    -0.5210310000
 ----------------------------------------------------------------

   10    -669.5140317078      2.18e-06  Convergence criterion met
 Total energy in the final basis set =     -669.5140317078

                    Orbital Energies (a.u.)
 --------------------------------------------------------------

 Alpha MOs
 -- Occupied --
-19.0188 -19.0146 -14.2951 -10.1717 -10.1705 -10.1657 -10.1619 -10.1585
-10.1475 -10.1454 -10.1443 -10.1422 -10.1344 -10.1325 -10.1161  -0.9385
 -0.9339  -0.9018  -0.8222  -0.7583  -0.7199  -0.7031  -0.6894  -0.6482
 -0.6123  -0.5811  -0.5556  -0.5241  -0.4786  -0.4767  -0.4497  -0.4369
 -0.4299  -0.4186  -0.3994  -0.3911  -0.3797  -0.3740  -0.3678  -0.3633
 -0.3580  -0.3478  -0.3428  -0.3185  -0.3174  -0.3150  -0.3020  -0.2459
 -0.2278  -0.2214  -0.2007  -0.1935  -0.1835  -0.1071

          Ground-State Mulliken Net Atomic Charges

     Atom                 Charge (a.u.)
  ----------------------------------------
      1 C                     0.061685
      2 C                    -0.499750
      3 C                    -0.432248
      4 C                    -0.020488
      5 C                     0.529636
      6 C                     0.038541
      7 C                    -0.876075
      8 C                    -0.457432
      9 C                     0.433901
     10 C                    -0.208246
     11 O                    -0.715000
     12 O                    -0.729734
     13 N                     0.020462
     14 C                    -0.377093
     15 C                    -0.391170
     16 H                     0.145656
     17 H                     0.167799
     18 H                     0.170602
     19 H                     0.135409
     20 H                     0.147736
     21 H                     0.185001
     22 H                     0.105484
     23 H                     0.136767
     24 H                     0.151834
     25 H                     0.158985
     26 H                     0.117740
  ----------------------------------------
  Sum of atomic charges =    -2.000000

                    Cartesian Multipole Moments
 -----------------------------------------------------------------
    Charge (ESU x 10^10)
                -9.6064
    Dipole Moment (Debye)
         X      -4.9732      Y     -17.2306      Z      -0.7467
       Tot      17.9494
    Quadrupole Moments (Debye-Ang)
        XX    -107.0733     XY      -6.6235     YY    -184.8341
        XZ      -0.5269     YZ     -14.0909     ZZ    -104.8167

 Total job time:  47.09s(wall), 301.84s(cpu)
        *  Thank you very much for using Q-Chem.  Have a nice day.  *
