 Gaussian 16, Revision A.03,
 Gaussian 16:  ES64L-G16RevA.03 25-Dec-2016

 --------------------------------------
 #P UB3LYP/6-311++G(d,p) nosym opt freq
 --------------------------------------

 -------
 Reduced
 -------
 Symbolic Z-matrix:
 Charge = -2 Multiplicity = 1

 SCF Done:  E(UB3LYP) =  -1203.83930445     A.U. after   49 cycles
 SCF Done:  E(UB3LYP) =  -1203.88051292     A.U. after   36 cycles
 SCF Done:  E(UB3LYP) =  -1203.90056830     A.U. after   25 cycles
 SCF Done:  E(UB3LYP) =  -1203.91609674     A.U. after   20 cycles
 SCF Done:  E(UB3LYP) =  -1203.92191049     A.U. after   20 cycles
 SCF Done:  E(UB3LYP) =  -1203.92432512     A.U. after   21 cycles
 SCF Done:  E(UB3LYP) =  -1203.92556494     A.U. after   19 cycles
 SCF Done:  E(UB3LYP) =  -1203.92647086     A.U. after   20 cycles
 SCF Done:  E(UB3LYP) =  -1203.92710554     A.U. after   20 cycles
 SCF Done:  E(UB3LYP) =  -1203.92737400     A.U. after   21 cycles
 SCF Done:  E(UB3LYP) =  -1203.92753639     A.U. after   18 cycles
 SCF Done:  E(UB3LYP) =  -1203.92755311     A.U. after   18 cycles
 SCF Done:  E(UB3LYP) =  -1203.92758264     A.U. after   20 cycles
 SCF Done:  E(UB3LYP) =  -1203.92759707     A.U. after   20 cycles
 SCF Done:  E(UB3LYP) =  -1203.92761209     A.U. after   20 cycles
 SCF Done:  E(UB3LYP) =  -1203.92761580     A.U. after   19 cycles
 SCF Done:  E(UB3LYP) =  -1203.92761582     A.U. after   16 cycles
 SCF Done:  E(UB3LYP) =  -1203.92761616     A.U. after   15 cycles
 SCF Done:  E(UB3LYP) =  -1203.92761608     A.U. after   14 cycles
 Optimization completed.
    -- Stationary point found.
 Normal termination of Gaussian 16 at Thu Dec 21 08:35:10 2023.

 ----------------------------------------------------------------------
 #P Geom=AllCheck Guess=TCheck SCRF=Check GenChk UB3LYP/6-311++G(d,p) F
 req
 ----------------------------------------------------------------------

 Structure from the checkpoint file:  "153-an.chk"
 -------
 Reduced
 -------
 Charge = -2 Multiplicity = 1

                          Input orientation:
 ---------------------------------------------------------------------
 Center     Atomic      Atomic             Coordinates (Angstroms)
 Number     Number       Type             X           Y           Z
 ---------------------------------------------------------------------
      1          7           0       -2.786699   -2.073643    0.337919
      2          6           0       -2.490033   -0.711945    0.173052
      3          6           0       -3.525426    0.211754    0.069174
      4          6           0       -3.255548    1.579477   -0.183643
      5          6           0       -1.958377    2.006728   -0.335931
      6          6           0       -0.863613    1.105029   -0.217286
      7          6           0        0.469212    1.642286   -0.358957
      8          8           0        0.686576    2.889410   -0.600087
      9          6           0        1.540550    0.689125   -0.206421
     10          6           0        2.863752    1.178822   -0.336972
     11          6           0        3.966011    0.369131   -0.211371
     12          6           0        3.776575   -1.017137    0.043473
     13          6           0        2.501302   -1.517387    0.181159
     14         17           0        2.471322   -3.302841    0.435898
     15          6           0        1.308382   -0.732753    0.091116
     16          6           0       -0.029049   -1.241710    0.282549
     17          8           0       -0.255193   -2.466758    0.652360
     18          6           0       -1.109271   -0.294083    0.062840
     19          1           0       -3.597880   -2.238013    0.919122
     20          1           0       -1.914319   -2.571914    0.611015
     21          1           0       -4.552486   -0.144748    0.140093
     22          1           0       -4.083035    2.283261   -0.267801
     23          1           0       -1.710090    3.041962   -0.541025
     24          1           0        2.950990    2.240664   -0.542647
     25          1           0        4.973704    0.766395   -0.313881
     26          1           0        4.622645   -1.691112    0.116254
 ---------------------------------------------------------------------

 SCF Done:  E(UB3LYP) =  -1203.92761608     A.U. after    2 cycles

 Alpha  occ. eigenvalues -- -101.30167 -18.78305 -18.77243 -14.05351  -9.98655
 Alpha  occ. eigenvalues --   -9.96139  -9.94811  -9.93395  -9.93077  -9.92861
 Alpha  occ. eigenvalues --   -9.92409  -9.91834  -9.91791  -9.91376  -9.90942
 Alpha  occ. eigenvalues --   -9.90474  -9.90463  -9.90093  -9.21622  -6.98045
 Alpha  occ. eigenvalues --   -6.97157  -6.97066  -0.70745  -0.68995  -0.65452
 Alpha  occ. eigenvalues --   -0.62692  -0.57952  -0.57327  -0.52268  -0.48152
 Alpha  occ. eigenvalues --   -0.47962  -0.46959  -0.40568  -0.37893  -0.36858
 Alpha  occ. eigenvalues --   -0.32239  -0.30047  -0.28598  -0.26792  -0.24567
 Alpha  occ. eigenvalues --   -0.22103  -0.21618  -0.20850  -0.18901  -0.18197
 Alpha  occ. eigenvalues --   -0.17551  -0.15407  -0.15186  -0.13813  -0.13091
 Alpha  occ. eigenvalues --   -0.12967  -0.11763  -0.10503  -0.09860  -0.08900
 Alpha  occ. eigenvalues --   -0.08110  -0.07525  -0.07121  -0.06413  -0.04671
 Alpha  occ. eigenvalues --    0.00339   0.01255   0.01687   0.03628   0.04491
 Alpha  occ. eigenvalues --    0.05122   0.13231
 Alpha virt. eigenvalues --    0.16219   0.16522   0.17611   0.18434   0.19790
 Alpha virt. eigenvalues --    0.20437   0.20929   0.21455   0.22454   0.22694
 Alpha virt. eigenvalues --    0.23853   0.24874   0.25545   0.26074   0.26802

  Beta  occ. eigenvalues -- -101.30167 -18.78305 -18.77243 -14.05351  -9.98655
  Beta  occ. eigenvalues --   -9.96139  -9.94811  -9.93395  -9.93077  -9.92861
  Beta  occ. eigenvalues --   -9.92409  -9.91834  -9.91791  -9.91376  -9.90942
  Beta  occ. eigenvalues --   -9.90474  -9.90463  -9.90093  -9.21622  -6.98045
  Beta  occ. eigenvalues --   -6.97157  -6.97066  -0.70745  -0.68995  -0.65452
  Beta  occ. eigenvalues --   -0.62692  -0.57952  -0.57327  -0.52268  -0.48152
  Beta  occ. eigenvalues --   -0.47962  -0.46959  -0.40568  -0.37893  -0.36858
  Beta  occ. eigenvalues --   -0.32239  -0.30047  -0.28598  -0.26792  -0.24567
  Beta  occ. eigenvalues --   -0.22103  -0.21618  -0.20850  -0.18901  -0.18197
  Beta  occ. eigenvalues --   -0.17551  -0.15407  -0.15186  -0.13813  -0.13091
  Beta  occ. eigenvalues --   -0.12967  -0.11763  -0.10503  -0.09860  -0.08900
  Beta  occ. eigenvalues --   -0.08110  -0.07525  -0.07121  -0.06413  -0.04671
  Beta  occ. eigenvalues --    0.00339   0.01255   0.01687   0.03628   0.04491
  Beta  occ. eigenvalues --    0.05122   0.13231
  Beta virt. eigenvalues --    0.16219   0.16522   0.17611   0.18434   0.19790
  Beta virt. eigenvalues --    0.20437   0.20929   0.21455   0.22454   0.22694
  Beta virt. eigenvalues --    0.23853   0.24874   0.25545   0.26074   0.26802

 Mulliken charges and spin densities:
               1          2
     1  N   -0.409654   0.000000
     2  C    0.155588   0.000000
     3  C   -0.332169  -0.000000
     4  C   -0.333603   0.000000
     5  C   -0.154856   0.000000
     6  C    0.470280  -0.000000
     7  C   -0.978772   0.000000
     8  O   -0.502406   0.000000
     9  C    0.417876   0.000000
    10  C    0.203385   0.000000
    11  C   -0.719187  -0.000000
    12  C   -0.387109  -0.000000
    13  C    1.158280   0.000000
    14  Cl   0.241521   0.000000
    15  C   -0.040925  -0.000000
    16  C   -1.728601  -0.000000
    17  O   -0.387421   0.000000
    18  C    0.294856  -0.000000
    19  H    0.174383   0.000000
    20  H    0.313309   0.000000
    21  H    0.042135   0.000000
    22  H    0.075314   0.000000
    23  H    0.123151  -0.000000
    24  H    0.135791  -0.000000
    25  H    0.072746  -0.000000
    26  H    0.096089  -0.000000
 Sum of Mulliken charges =  -2.00000   0.00000

 Dipole moment (field-independent basis, Debye):
    X=             -2.6489    Y=              0.1941    Z=              0.8419  Tot=              2.7862
 Quadrupole moment (field-independent basis, Debye-Ang):
   XX=           -167.4042   YY=           -178.7188   ZZ=           -126.8033
   XY=              5.6438   XZ=             -2.5402   YZ=              8.2799

  Exact polarizability: 455.908 -21.342 282.637 -12.553 -29.559 142.396
 Approx polarizability: 759.140 -33.727 514.311 -18.950 -61.578 214.150

                      1                      2                      3
                      A                      A                      A
 Frequencies --     28.4342                52.2636                88.3627
 Red. masses --     10.7451                 6.5944                 5.9987
 Frc consts  --      0.0051                 0.0106                 0.0276
 IR Inten    --      1.2889                 4.8071                 1.0121

                      4                      5                      6
                      A                      A                      A
 Frequencies --    164.8635               172.9709               191.6508
 Red. masses --      7.8123                10.1593                 4.3985
 Frc consts  --      0.1251                 0.1791                 0.0952
 IR Inten    --      2.4040                 4.2535                 0.7797

                      7                      8                      9
                      A                      A                      A
 Frequencies --    219.3229               258.8133               276.6072
 Red. masses --      4.5537                 6.5049                 5.4590
 Frc consts  --      0.1291                 0.2567                 0.2461
 IR Inten    --      2.6514                 3.8457                 5.0181

                     10                     11                     12
                      A                      A                      A
 Frequencies --    335.5443               345.5458               379.4909
 Red. masses --     10.2716                 6.0063                 6.9320
 Frc consts  --      0.6814                 0.4225                 0.5882
 IR Inten    --      4.8836                 0.8104                 3.1051

                     13                     14                     15
                      A                      A                      A
 Frequencies --    393.1985               400.6141               415.7609
 Red. masses --      3.0280                 4.8591                 5.6651
 Frc consts  --      0.2758                 0.4595                 0.5770
 IR Inten    --     49.8749                26.5421                16.3480

                     16                     17                     18
                      A                      A                      A
 Frequencies --    441.4999               463.1251               486.8011
 Red. masses --      2.1532                 5.7081                 4.2849
 Frc consts  --      0.2473                 0.7213                 0.5983
 IR Inten    --    105.3381                 3.4014                 1.6810

                     19                     20                     21
                      A                      A                      A
 Frequencies --    506.9310               510.0687               557.4532
 Red. masses --      6.4280                 5.3291                 5.5575
 Frc consts  --      0.9732                 0.8169                 1.0175
 IR Inten    --      4.9859                 9.1475                 0.6191

                     22                     23                     24
                      A                      A                      A
 Frequencies --    578.1168               605.3868               617.2525
 Red. masses --      4.5035                 5.6802                 3.9016
 Frc consts  --      0.8868                 1.2265                 0.8758
 IR Inten    --     10.0511                36.4290                19.8317

                     25                     26                     27
                      A                      A                      A
 Frequencies --    687.9863               689.3451               697.9118
 Red. masses --      2.2670                 3.1629                 1.5751
 Frc consts  --      0.6322                 0.8855                 0.4520
 IR Inten    --     22.5077                11.8672                94.2167

                     28                     29                     30
                      A                      A                      A
 Frequencies --    724.1658               735.9809               748.8951
 Red. masses --      7.4529                 2.8724                 2.7564
 Frc consts  --      2.3028                 0.9167                 0.9108
 IR Inten    --     44.2902                25.1264                 3.0562

                     31                     32                     33
                      A                      A                      A
 Frequencies --    779.0536               788.7069               794.9692
 Red. masses --      1.9503                 1.3758                 5.8413
 Frc consts  --      0.6974                 0.5042                 2.1750
 IR Inten    --      9.8303                 3.8514                12.5090

                     34                     35                     36
                      A                      A                      A
 Frequencies --    818.6083               889.1034               902.3277
 Red. masses --      4.9511                 3.6123                 2.5326
 Frc consts  --      1.9548                 1.6824                 1.2149
 IR Inten    --      1.5450               164.1727                27.4395

                     37                     38                     39
                      A                      A                      A
 Frequencies --    928.9382               932.6947               961.6364
 Red. masses --      1.4373                 2.4101                 1.3015
 Frc consts  --      0.7308                 1.2353                 0.7091
 IR Inten    --      6.4951                28.2221                 1.8645

                     40                     41                     42
                      A                      A                      A
 Frequencies --   1020.7326              1054.9873              1060.0062
 Red. masses --      3.5779                 2.3912                 1.9974
 Frc consts  --      2.1963                 1.5681                 1.3223
 IR Inten    --     12.1671                84.9809               182.8428

                     43                     44                     45
                      A                      A                      A
 Frequencies --   1087.0570              1122.9932              1149.9117
 Red. masses --      3.0559                 1.7717                 1.4492
 Frc consts  --      2.1277                 1.3164                 1.1291
 IR Inten    --     14.4142               284.0111                75.8308

                     46                     47                     48
                      A                      A                      A
 Frequencies --   1166.7838              1184.6536              1210.2752
 Red. masses --      2.1830                 1.4800                 2.5860
 Frc consts  --      1.7510                 1.2237                 2.2317
 IR Inten    --     32.9087                35.7534               151.3092

                     49                     50                     51
                      A                      A                      A
 Frequencies --   1231.3004              1265.0738              1302.1700
 Red. masses --      2.8471                 3.2466                 5.0249
 Frc consts  --      2.5432                 3.0613                 5.0201
 IR Inten    --    137.8750                29.4149               254.8004

                     52                     53                     54
                      A                      A                      A
 Frequencies --   1334.6179              1346.4322              1369.0713
 Red. masses --      3.6682                 3.2240                 2.5083
 Frc consts  --      3.8496                 3.4436                 2.7701
 IR Inten    --    225.6597               181.5476               403.8745

                     55                     56                     57
                      A                      A                      A
 Frequencies --   1419.0794              1437.2541              1458.1290
 Red. masses --      4.5484                 3.4393                 2.5905
 Frc consts  --      5.3967                 4.1859                 3.2451
 IR Inten    --    102.5603                11.6906                47.4728

                     58                     59                     60
                      A                      A                      A
 Frequencies --   1471.3108              1476.8206              1519.4521
 Red. masses --      5.6907                 3.9548                 5.1538
 Frc consts  --      7.2581                 5.0819                 7.0105
 IR Inten    --    104.2560               471.1990               119.9554

                     61                     62                     63
                      A                      A                      A
 Frequencies --   1570.9058              1580.9635              1583.6387
 Red. masses --      5.1448                 3.1226                 3.6043
 Frc consts  --      7.4803                 4.5985                 5.3258
 IR Inten    --      4.0984               136.7764                 6.8207

                     64                     65                     66
                      A                      A                      A
 Frequencies --   1602.5771              3050.8985              3083.3893
 Red. masses --      2.0634                 1.0740                 1.0827
 Frc consts  --      3.1223                 5.8900                 6.0645
 IR Inten    --    104.6161               260.0291                57.8503

                     67                     68                     69
                      A                      A                      A
 Frequencies --   3107.9585              3109.6931              3160.7122
 Red. masses --      1.0915                 1.0853                 1.0898
 Frc consts  --      6.2119                 6.1835                 6.4145
 IR Inten    --    133.1128                59.7318                30.2681

                     70                     71                     72
                      A                      A                      A
 Frequencies --   3165.7417              3172.5121              3567.5681
 Red. masses --      1.0922                 1.0907                 1.0780
 Frc consts  --      6.4489                 6.4678                 8.0835
 IR Inten    --     50.5221                29.4160                 2.8143

 - Thermochemistry -
 -------------------
 Temperature   298.150 Kelvin.  Pressure   1.00000 Atm.
 Atom     1 has atomic number  7 and mass  14.00307

 Molecular mass:   257.02436 amu.
 Principal axes and moments of inertia in atomic units:
                           1         2         3
     Eigenvalues --  2923.528255442.897938357.21639
           X            0.92350   0.38192   0.03576
           Y           -0.38175   0.90594   0.18314
           Z            0.03755  -0.18278   0.98244
 This molecule is an asymmetric top.
 Rotational symmetry number  1.
 Warning -- assumption of classical behavior for rotation
           may cause significant error
 Rotational temperatures (Kelvin)      0.02963     0.01591     0.01036
 Rotational constants (GHZ):           0.61732     0.33158     0.21595
 Zero-point vibrational energy     472615.1 (Joules/Mol)
                                  112.95772 (Kcal/Mol)
 Warning -- explicit consideration of  24 degrees of freedom as
           vibrations may cause significant error
 Vibrational temperatures:     40.91    75.20   127.13   237.20   248.87
          (Kelvin)            275.74   315.56   372.37   397.98   482.77
                              497.16   546.00   565.72   576.39   598.19
                              635.22   666.33   700.40   729.36   733.88
                              802.05   831.78   871.02   888.09   989.86
                              991.81  1004.14  1041.91  1058.91  1077.49
                             1120.88  1134.77  1143.78  1177.79  1279.22
                             1298.25  1336.53  1341.94  1383.58  1468.61
                             1517.89  1525.11  1564.03  1615.74  1654.47
                             1678.74  1704.45  1741.32  1771.57  1820.16
                             1873.53  1920.22  1937.22  1969.79  2041.74
                             2067.89  2097.92  2116.89  2124.82  2186.15
                             2260.18  2274.65  2278.50  2305.75  4389.56
                             4436.31  4471.66  4474.15  4547.56  4554.80
                             4564.54  5132.93

 Zero-point correction=                           0.180010 (Hartree/Particle)
 Thermal correction to Energy=                    0.193957
 Thermal correction to Enthalpy=                  0.194901
 Thermal correction to Gibbs Free Energy=         0.138725
 Sum of electronic and zero-point Energies=          -1203.747606
 Sum of electronic and thermal Energies=             -1203.733659
 Sum of electronic and thermal Enthalpies=           -1203.732715
 Sum of electronic and thermal Free Energies=        -1203.788891

                     E (Thermal)             CV                S
                      KCal/Mol        Cal/Mol-Kelvin    Cal/Mol-Kelvin
 Total                  121.710             56.374            118.232
 Electronic               0.000              0.000              0.000
 Translational            0.889              2.981             42.532
 Rotational               0.889              2.981             33.253
 Vibrational            119.932             50.412             42.448
 Vibration     1          0.593              1.984              5.936
 Vibration     2          0.596              1.977              4.730
 Vibration     3          0.601              1.957              3.696
 Vibration     4          0.623              1.886              2.493
 Vibration     5          0.626              1.876              2.403
 Vibration     6          0.634              1.851              2.212
 Vibration     7          0.647              1.812              1.965
 Vibration     8          0.668              1.748              1.670
 Vibration     9          0.678              1.717              1.555
 Vibration    10          0.717              1.605              1.233
 Vibration    11          0.724              1.584              1.186
 Vibration    12          0.749              1.514              1.041
 Vibration    13          0.760              1.485              0.988
 Vibration    14          0.766              1.469              0.960
 Vibration    15          0.779              1.436              0.906
 Vibration    16          0.801              1.380              0.822
 Vibration    17          0.821              1.332              0.757
 Vibration    18          0.843              1.279              0.692
 Vibration    19          0.862              1.235              0.641
 Vibration    20          0.865              1.228              0.633
 Vibration    21          0.913              1.123              0.529
 Vibration    22          0.935              1.079              0.489
 Vibration    23          0.964              1.020              0.440
 Vibration    24          0.977              0.995              0.421

 Optimization completed.
    -- Stationary point found.
 Normal termination of Gaussian 16 at Thu Dec 21 09:18:28 2023.
