 Q-Chem 5.4, Q-Chem, Inc., Pleasanton, CA (2021)
 Q-Chem 5.4.0 for Intel X86 EM64T Linux

User input:
--------------------------------------------------------------
$molecule
-2 1
C                 -1.8576080000      1.8849000000     -5.1069070000
C                 -1.7106550000      0.5727070000     -5.5087770000
C                 -1.2349340000     -0.3983610000     -4.5859430000
C                 -1.5422560000      2.3148710000     -3.7928940000
C                 -1.0591350000      1.3278550000     -2.8606500000
C                 -0.9207110000     -0.0129060000     -3.2988840000
C                 -1.7370450000      3.7240360000     -3.4629980000
C                 -0.7152790000      1.6702350000     -1.4980570000
C                 -1.3390800000      4.0881260000     -2.1218680000
C                 -0.8989900000      3.0691390000     -1.1666320000
C                 -1.3611760000      5.4294030000     -1.6087870000
C                 -1.1110530000      5.7897260000     -0.2953340000
C                 -0.7941620000      4.7232580000      0.5968540000
C                 -0.6990270000      3.4263730000      0.1840990000
O                 -2.2237330000      4.5331190000     -4.3251490000
O                 -0.3061010000      0.8034200000     -0.6481100000
H                 -2.2220750000      2.6497500000     -5.7851810000
H                 -1.9579890000      0.2809680000     -6.5281350000
H                 -1.1220390000     -1.4365980000     -4.8931130000
H                 -0.5565180000     -0.7259120000     -2.5657330000
Br                -0.7403550000      5.1039380000      2.5527740000
H                 -0.4696250000      2.6153900000      0.8656760000
N                 -1.1076710000      7.1281760000      0.1614290000
Cl                -1.5148250000      6.8332200000     -2.7314370000
H                 -0.9675430000      7.7791140000     -0.6024810000
H                 -0.4362310000      7.2774430000      0.9062250000
$end
$rem
MAX_SCF_CYCLES=200
BASIS  =  6-311++G(d,p)
GUI  =  2
JOB_TYPE  =  SP
METHOD  =  B3LYP
SOLVENT_METHOD = COSMO
$end
$solvent
dielectric 37.219
opticaldielectric 1.43
$end

--------------------------------------------------------------

             Standard Nuclear Orientation (Angstroms)
    I     Atom           X                Y                Z
 ----------------------------------------------------------------
    1      C       4.2146162989    -0.7870762147     0.2183039703
    2      C       5.3072590553     0.0536270451     0.1527678243
    3      C       5.1125525592     1.4504723437    -0.0256101848
    4      C       2.8838029473    -0.3102955735     0.1061962003
    5      C       2.6905159594     1.1061115750    -0.0757826186
    6      C       3.8299312420     1.9468853470    -0.1364668812
    7      C       1.7945316990    -1.2789864214     0.1936393901
    8      C       1.3709628152     1.6860686032    -0.1964061735
    9      C       0.4747198064    -0.7174852519     0.0136939786
   10      C       0.2857002494     0.7286620716    -0.1182872914
   11      C      -0.7341882568    -1.4919500870    -0.0251628134
   12      C      -2.0176257282    -0.9735839039    -0.0656315674
   13      C      -2.1179433585     0.4488729719    -0.0836908460
   14      C      -1.0215421929     1.2605864389    -0.1025002386
   15      O       2.0385099216    -2.5147731364     0.4129352610
   16      O       1.1775298625     2.9447981106    -0.3356487776
   17      H       4.3283839258    -1.8573359335     0.3579048190
   18      H       6.3148852619    -0.3499660844     0.2374938379
   19      H       5.9687372611     2.1211559366    -0.0721508402
   20      H       3.6414327065     3.0074209973    -0.2715850614
   21      Br     -3.9100574909     1.2792593862     0.1850485099
   22      H      -1.0993759862     2.3416989926    -0.1043596871
   23      N      -3.1819945198    -1.7728807626    -0.1395377734
   24      Cl     -0.6648929700    -3.2807682023    -0.2487273919
   25      H      -2.9729619880    -2.6986016029    -0.4948699431
   26      H      -3.9200237148    -1.3268795034    -0.6726692550
 ----------------------------------------------------------------

   12   -3777.4722675732      9.44e-06  Convergence criterion met
 Total energy in the final basis set =    -3777.4722675732
    6   -3777.7337206142      4.26e-06  Convergence criterion met
 Total energy in the final basis set =    -3777.7337206142

                    Orbital Energies (a.u.)
 --------------------------------------------------------------

 Alpha MOs
 -- Occupied --
********-101.5367 -62.4764 -56.2967 -56.2930 -56.2930 -19.0345 -19.0230
-14.3118 -10.2163 -10.2152 -10.2143 -10.1872 -10.1849 -10.1662 -10.1587
-10.1539 -10.1533 -10.1513 -10.1508 -10.1492 -10.1446 -10.1440  -9.4514
 -8.6848  -7.2154  -7.2066  -7.2060  -6.5156  -6.5037  -6.5035  -2.6265
 -2.6232  -2.6231  -2.6136  -2.6136  -0.9553  -0.9481  -0.9213  -0.8469
 -0.8323  -0.8271  -0.7838  -0.7484  -0.7283  -0.7190  -0.7060  -0.6433
 -0.6146  -0.5962  -0.5720  -0.5380  -0.5197  -0.5096  -0.4884  -0.4676
 -0.4427  -0.4349  -0.4302  -0.4166  -0.4073  -0.4041  -0.3958  -0.3857
 -0.3761  -0.3752  -0.3687  -0.3458  -0.3398  -0.3322  -0.3267  -0.3245
 -0.3129  -0.3053  -0.3028  -0.2882  -0.2816  -0.2377  -0.2322  -0.2277
 -0.2147  -0.2075  -0.1989  -0.1140

          Ground-State Mulliken Net Atomic Charges

     Atom                 Charge (a.u.)
  ----------------------------------------
      1 C                     0.033230
      2 C                    -0.516553
      3 C                    -0.579252
      4 C                     0.010450
      5 C                     0.230791
      6 C                     0.065396
      7 C                    -1.745126
      8 C                    -0.507524
      9 C                     0.743078
     10 C                     0.674409
     11 C                     1.158247
     12 C                    -1.891765
     13 C                     0.273145
     14 C                     0.128065
     15 O                    -0.585648
     16 O                    -0.659587
     17 H                     0.158623
     18 H                     0.184593
     19 H                     0.181302
     20 H                     0.162098
     21 Br                   -0.219943
     22 H                     0.189728
     23 N                    -0.194867
     24 Cl                    0.186655
     25 H                     0.260823
     26 H                     0.259632
  ----------------------------------------
  Sum of atomic charges =    -2.000000

                    Cartesian Multipole Moments
 -----------------------------------------------------------------
    Charge (ESU x 10^10)
                -9.6064
    Dipole Moment (Debye)
         X     -11.6951      Y      -0.6153      Z      -1.7820
       Tot      11.8461
    Quadrupole Moments (Debye-Ang)
        XX    -180.2688     XY       7.0319     YY    -194.4582
        XZ       4.5636     YZ       9.5823     ZZ    -142.0018

 Total job time:  111.44s(wall), 723.62s(cpu)
        *  Thank you very much for using Q-Chem.  Have a nice day.  *
