 Q-Chem 5.4, Q-Chem, Inc., Pleasanton, CA (2021)
 Q-Chem 5.4.0 for Intel X86 EM64T Linux

User input:
--------------------------------------------------------------
$molecule
-1 2
C                 -6.7555630000      5.7399680000      0.9651510000
C                 -7.8565690000      4.9815480000      0.6131010000
C                 -7.7297990000      3.9564790000     -0.3461820000
C                 -6.4998720000      3.7106880000     -0.9349080000
C                 -5.3650440000      4.4674530000     -0.5947510000
C                 -5.4952390000      5.5031950000      0.3746290000
C                 -4.3430340000      6.2978950000      0.7437570000
C                 -3.0969040000      5.9805230000      0.0852590000
C                 -2.9375300000      4.9912540000     -0.8620050000
C                 -4.0693950000      4.1746150000     -1.2441620000
O                 -4.3471320000      7.2455750000      1.5967320000
O                 -3.9657200000      3.2526460000     -2.0950740000
C                 -1.6010170000      4.7203960000     -1.5029850000
C                 -0.8036110000      3.6070710000     -0.7965920000
C                  0.5407010000      3.3092670000     -1.4693930000
C                  1.3435830000      2.2026800000     -0.7758180000
C                  2.6889350000      1.8991940000     -1.4455110000
C                  3.4876630000      0.7913660000     -0.7490500000
C                  4.8330630000      0.4851830000     -1.4170040000
C                  5.6256480000     -0.6238570000     -0.7149710000
C                  6.9725570000     -0.9286820000     -1.3853330000
C                  7.7404240000     -2.0352270000     -0.6640790000
S                  9.3523880000     -2.3586860000     -1.5159270000
C                 10.0185860000     -3.6647870000     -0.4766690000
C                  9.7495100000     -5.0072600000     -0.7599530000
C                 10.8473260000     -3.3582400000      0.6066820000
C                 11.3813060000     -4.3743990000      1.3960360000
C                 11.1074640000     -5.7197230000      1.1279840000
C                 10.2866840000     -6.0172420000      0.0348000000
C                 11.6611520000     -6.8161350000      2.0056070000
H                 -6.8280530000      6.5337130000      1.7001550000
H                 -8.8202670000      5.1748670000      1.0755610000
H                 -8.5951840000      3.3612900000     -0.6222160000
H                 -6.3732220000      2.9283720000     -1.6747590000
O                 -2.0554910000      6.7672820000      0.4851450000
H                 -1.0049060000      5.6387490000     -1.5097730000
H                 -1.7751050000      4.4151730000     -2.5398580000
H                 -1.4159790000      2.6991860000     -0.7816310000
H                 -0.6342000000      3.8962390000      0.2476170000
H                  1.1437020000      4.2272970000     -1.4995990000
H                  0.3642460000      3.0254130000     -2.5154920000
H                  0.7401170000      1.2861130000     -0.7458220000
H                  1.5172960000      2.4852770000      0.2709600000
H                  3.2930960000      2.8157080000     -1.4756410000
H                  2.5157100000      1.6160770000     -2.4921620000
H                  2.8828690000     -0.1243930000     -0.7187650000
H                  3.6603140000      1.0745760000      0.2975930000
H                  5.4395640000      1.3996540000     -1.4465860000
H                  4.6617400000      0.2003510000     -2.4631380000
H                  5.0195140000     -1.5382570000     -0.6864100000
H                  5.7973100000     -0.3385170000      0.3307460000
H                  7.5825150000     -0.0184910000     -1.4109530000
H                  6.8040770000     -1.2213500000     -2.4279700000
H                  7.1671500000     -2.9649950000     -0.6567270000
H                  7.9531380000     -1.7511310000      0.3689830000
H                  9.1242450000     -5.2570790000     -1.6092900000
H                 11.0772840000     -2.3216240000      0.8240500000
H                 12.0253120000     -4.1156050000      2.2309200000
H                 10.0680370000     -7.0536430000     -0.2036060000
H                 12.6135950000     -6.5249100000      2.4547610000
H                 11.8196250000     -7.7377800000      1.4405620000
H                 10.9708260000     -7.0488530000      2.8240810000
H                 -2.4894460000      7.3587630000      1.1394460000
$end

$rem
BASIS  =  6-311++G(d,p)
GUI  =  2
JOB_TYPE  =  SP
METHOD  =  B3LYP
SCF_CONVERGENCE  = 8
SOLVENT_METHOD = sm12
$end

$smx
solvent dimethylformamide
charges CM5
$end

--------------------------------------------------------------

             Standard Nuclear Orientation (Angstroms)
    I     Atom           X                Y                Z
 ----------------------------------------------------------------
    1      C      -6.7555630000     5.7399680000     0.9651510000
    2      C      -7.8565690000     4.9815480000     0.6131010000
    3      C      -7.7297990000     3.9564790000    -0.3461820000
    4      C      -6.4998720000     3.7106880000    -0.9349080000
    5      C      -5.3650440000     4.4674530000    -0.5947510000
    6      C      -5.4952390000     5.5031950000     0.3746290000
    7      C      -4.3430340000     6.2978950000     0.7437570000
    8      C      -3.0969040000     5.9805230000     0.0852590000
    9      C      -2.9375300000     4.9912540000    -0.8620050000
   10      C      -4.0693950000     4.1746150000    -1.2441620000
   11      O      -4.3471320000     7.2455750000     1.5967320000
   12      O      -3.9657200000     3.2526460000    -2.0950740000
   13      C      -1.6010170000     4.7203960000    -1.5029850000
   14      C      -0.8036110000     3.6070710000    -0.7965920000
   15      C       0.5407010000     3.3092670000    -1.4693930000
   16      C       1.3435830000     2.2026800000    -0.7758180000
   17      C       2.6889350000     1.8991940000    -1.4455110000
   18      C       3.4876630000     0.7913660000    -0.7490500000
   19      C       4.8330630000     0.4851830000    -1.4170040000
   20      C       5.6256480000    -0.6238570000    -0.7149710000
   21      C       6.9725570000    -0.9286820000    -1.3853330000
   22      C       7.7404240000    -2.0352270000    -0.6640790000
   23      S       9.3523880000    -2.3586860000    -1.5159270000
   24      C      10.0185860000    -3.6647870000    -0.4766690000
   25      C       9.7495100000    -5.0072600000    -0.7599530000
   26      C      10.8473260000    -3.3582400000     0.6066820000
   27      C      11.3813060000    -4.3743990000     1.3960360000
   28      C      11.1074640000    -5.7197230000     1.1279840000
   29      C      10.2866840000    -6.0172420000     0.0348000000
   30      C      11.6611520000    -6.8161350000     2.0056070000
   31      H      -6.8280530000     6.5337130000     1.7001550000
   32      H      -8.8202670000     5.1748670000     1.0755610000
   33      H      -8.5951840000     3.3612900000    -0.6222160000
   34      H      -6.3732220000     2.9283720000    -1.6747590000
   35      O      -2.0554910000     6.7672820000     0.4851450000
   36      H      -1.0049060000     5.6387490000    -1.5097730000
   37      H      -1.7751050000     4.4151730000    -2.5398580000
   38      H      -1.4159790000     2.6991860000    -0.7816310000
   39      H      -0.6342000000     3.8962390000     0.2476170000
   40      H       1.1437020000     4.2272970000    -1.4995990000
   41      H       0.3642460000     3.0254130000    -2.5154920000
   42      H       0.7401170000     1.2861130000    -0.7458220000
   43      H       1.5172960000     2.4852770000     0.2709600000
   44      H       3.2930960000     2.8157080000    -1.4756410000
   45      H       2.5157100000     1.6160770000    -2.4921620000
   46      H       2.8828690000    -0.1243930000    -0.7187650000
   47      H       3.6603140000     1.0745760000     0.2975930000
   48      H       5.4395640000     1.3996540000    -1.4465860000
   49      H       4.6617400000     0.2003510000    -2.4631380000
   50      H       5.0195140000    -1.5382570000    -0.6864100000
   51      H       5.7973100000    -0.3385170000     0.3307460000
   52      H       7.5825150000    -0.0184910000    -1.4109530000
   53      H       6.8040770000    -1.2213500000    -2.4279700000
   54      H       7.1671500000    -2.9649950000    -0.6567270000
   55      H       7.9531380000    -1.7511310000     0.3689830000
   56      H       9.1242450000    -5.2570790000    -1.6092900000
   57      H      11.0772840000    -2.3216240000     0.8240500000
   58      H      12.0253120000    -4.1156050000     2.2309200000
   59      H      10.0680370000    -7.0536430000    -0.2036060000
   60      H      12.6135950000    -6.5249100000     2.4547610000
   61      H      11.8196250000    -7.7377800000     1.4405620000
   62      H      10.9708260000    -7.0488530000     2.8240810000
   63      H      -2.4894460000     7.3587630000     1.1394460000
 ----------------------------------------------------------------

   19   -1672.4829869268      5.99e-09  Convergence criterion met
 Total energy in the final basis set =    -1672.5811264548

                    Orbital Energies (a.u.)
 --------------------------------------------------------------

 Alpha MOs
 -- Occupied --
-88.8390 -19.1439 -19.0855 -19.0728 -10.2236 -10.2232 -10.2211 -10.2064
-10.1964 -10.1932 -10.1852 -10.1851 -10.1813 -10.1812 -10.1812 -10.1800
-10.1799 -10.1784 -10.1776 -10.1770 -10.1714 -10.1686 -10.1665 -10.1646
-10.1641 -10.1633 -10.1627 -10.1624 -10.1623 -10.1622 -10.1621  -7.9251
 -5.8893  -5.8856  -5.8784  -1.0635  -0.9978  -0.9950  -0.8729  -0.8635
 -0.8218  -0.8176  -0.8070  -0.7947  -0.7794  -0.7607  -0.7571  -0.7568
 -0.7404  -0.7190  -0.6965  -0.6772  -0.6623  -0.6397  -0.6223  -0.6193
 -0.6101  -0.5926  -0.5831  -0.5802  -0.5763  -0.5752  -0.5717  -0.5409
 -0.5075  -0.4995  -0.4908  -0.4869  -0.4794  -0.4754  -0.4655  -0.4603
 -0.4590  -0.4520  -0.4395  -0.4344  -0.4326  -0.4308  -0.4278  -0.4269
 -0.4237  -0.4191  -0.4123  -0.4046  -0.4037  -0.3941  -0.3919  -0.3894
 -0.3888  -0.3826  -0.3803  -0.3720  -0.3701  -0.3641  -0.3601  -0.3547
 -0.3511  -0.3476  -0.3448  -0.3430  -0.3406  -0.3368  -0.3314  -0.3294
 -0.3257  -0.3239  -0.3229  -0.3184  -0.3045  -0.2703  -0.2668  -0.2634
 -0.2582  -0.2509  -0.2377  -0.2304  -0.2299  -0.1517

 Beta MOs
 -- Occupied --
-88.8390 -19.1434 -19.0788 -19.0671 -10.2225 -10.2223 -10.2185 -10.2064
-10.1964 -10.1932 -10.1852 -10.1851 -10.1812 -10.1812 -10.1812 -10.1796
-10.1790 -10.1779 -10.1775 -10.1762 -10.1714 -10.1686 -10.1665 -10.1643
-10.1637 -10.1633 -10.1627 -10.1624 -10.1623 -10.1621 -10.1621  -7.9251
 -5.8893  -5.8856  -5.8784  -1.0614  -0.9881  -0.9837  -0.8729  -0.8612
 -0.8217  -0.8160  -0.8059  -0.7939  -0.7784  -0.7596  -0.7571  -0.7548
 -0.7398  -0.7184  -0.6952  -0.6732  -0.6585  -0.6389  -0.6209  -0.6193
 -0.6088  -0.5915  -0.5827  -0.5799  -0.5763  -0.5747  -0.5697  -0.5393
 -0.5053  -0.4995  -0.4906  -0.4851  -0.4789  -0.4748  -0.4644  -0.4603
 -0.4581  -0.4516  -0.4350  -0.4327  -0.4318  -0.4308  -0.4272  -0.4249
 -0.4212  -0.4175  -0.4077  -0.4023  -0.4014  -0.3935  -0.3910  -0.3885
 -0.3816  -0.3805  -0.3779  -0.3698  -0.3679  -0.3638  -0.3541  -0.3513
 -0.3510  -0.3461  -0.3420  -0.3395  -0.3355  -0.3309  -0.3305  -0.3269
 -0.3256  -0.3233  -0.3225  -0.3184  -0.3039  -0.2668  -0.2563  -0.2523
 -0.2509  -0.2500  -0.2323  -0.2299  -0.2203

          Ground-State Mulliken Net Atomic Charges

     Atom                 Charge (a.u.)    Spin (a.u.)
  --------------------------------------------------------
      1 C                     0.282597       0.075559
      2 C                     0.785371       0.001021
      3 C                     0.969114       0.076037
      4 C                    -0.209916       0.000365
      5 C                    -0.994601       0.076254
      6 C                    -0.938804      -0.000942
      7 C                    -1.548477       0.141030
      8 C                    -0.727415       0.054601
      9 C                     1.482734       0.046550
     10 C                    -1.992747       0.048003
     11 O                    -0.374004       0.248397
     12 O                    -0.289275       0.210844
     13 C                    -0.495147       0.026557
     14 C                    -1.219267       0.000742
     15 C                     0.393069      -0.002599
     16 C                     0.304568      -0.005276
     17 C                     0.683349      -0.001920
     18 C                    -0.008985       0.000186
     19 C                    -0.367689       0.000268
     20 C                    -0.152281      -0.000084
     21 C                     0.101600      -0.000036
     22 C                    -0.653796       0.000068
     23 S                    -0.239118       0.000000
     24 C                     0.608807       0.000000
     25 C                    -0.698760      -0.000001
     26 C                    -0.712768      -0.000004
     27 C                    -0.412151      -0.000001
     28 C                     0.449240       0.000005
     29 C                    -0.405248      -0.000002
     30 C                     0.114592      -0.000002
     31 H                     0.171085      -0.004022
     32 H                     0.346082      -0.000720
     33 H                     0.346309      -0.005322
     34 H                     0.141630      -0.000376
     35 O                    -0.141024       0.015872
     36 H                     0.198215      -0.000898
     37 H                     0.135117       0.002902
     38 H                     0.050282      -0.001498
     39 H                     0.077776       0.002433
     40 H                     0.153193      -0.000484
     41 H                     0.158230       0.000555
     42 H                     0.118375      -0.000091
     43 H                     0.117890      -0.000025
     44 H                     0.104066      -0.000002
     45 H                     0.101019       0.000008
     46 H                     0.109937       0.000007
     47 H                     0.114678      -0.000001
     48 H                     0.126304      -0.000015
     49 H                     0.123969       0.000002
     50 H                     0.125378      -0.000004
     51 H                     0.124652      -0.000001
     52 H                     0.107704       0.000001
     53 H                     0.107352      -0.000004
     54 H                     0.198981      -0.000002
     55 H                     0.201071      -0.000001
     56 H                     0.225328       0.000000
     57 H                     0.226099       0.000000
     58 H                     0.242612       0.000001
     59 H                     0.243491       0.000001
     60 H                     0.204848      -0.000000
     61 H                     0.204024      -0.000000
     62 H                     0.203317       0.000000
     63 H                     0.297413      -0.003933
  --------------------------------------------------------
  Sum of atomic charges =    -1.000004

                    Cartesian Multipole Moments
 -----------------------------------------------------------------
    Charge (ESU x 10^10)
                -4.8032
    Dipole Moment (Debye)
         X      18.5166      Y     -25.7612      Z       3.5421
       Tot      31.9226
    Quadrupole Moments (Debye-Ang)
        XX    -303.1305     XY      91.6973     YY    -331.1766
        XZ      19.3813     YZ     -10.7439     ZZ    -216.8374

 Total job time:  4902.33s(wall), 33273.02s(cpu)
        *  Thank you very much for using Q-Chem.  Have a nice day.  *
