 Gaussian 16, Revision A.03,
 Gaussian 16:  ES64L-G16RevA.03 25-Dec-2016

 --------------------------------------
 #P UB3LYP/6-311++G(d,p) nosym opt freq
 --------------------------------------

 --------
 Oxidized
 --------
 Symbolic Z-matrix:
 Charge =  0 Multiplicity = 1

 SCF Done:  E(UB3LYP) =  -988.858928928     A.U. after   17 cycles
 SCF Done:  E(UB3LYP) =  -988.863231120     A.U. after   14 cycles
 SCF Done:  E(UB3LYP) =  -988.863806565     A.U. after   14 cycles
 SCF Done:  E(UB3LYP) =  -988.863733931     A.U. after   15 cycles
 SCF Done:  E(UB3LYP) =  -988.864165776     A.U. after   15 cycles
 SCF Done:  E(UB3LYP) =  -988.864276417     A.U. after   13 cycles
 SCF Done:  E(UB3LYP) =  -988.864290762     A.U. after   14 cycles
 SCF Done:  E(UB3LYP) =  -988.864315203     A.U. after   13 cycles
 SCF Done:  E(UB3LYP) =  -988.864321422     A.U. after   12 cycles
 SCF Done:  E(UB3LYP) =  -988.864322863     A.U. after   12 cycles
 SCF Done:  E(UB3LYP) =  -988.864323104     A.U. after   11 cycles
 Optimization completed.
    -- Stationary point found.
 Normal termination of Gaussian 16 at Tue Dec 26 20:44:32 2023.

 ----------------------------------------------------------------------
 #P Geom=AllCheck Guess=TCheck SCRF=Check GenChk UB3LYP/6-311++G(d,p) F
 req
 ----------------------------------------------------------------------

 Structure from the checkpoint file:  "270.chk"
 --------
 Oxidized
 --------
 Charge =  0 Multiplicity = 1

                          Input orientation:
 ---------------------------------------------------------------------
 Center     Atomic      Atomic             Coordinates (Angstroms)
 Number     Number       Type             X           Y           Z
 ---------------------------------------------------------------------
      1          6           0       -0.991701    3.995313   -0.110949
      2          6           0       -2.240198    3.382941   -0.166685
      3          6           0       -2.334549    1.990556   -0.189427
      4          6           0        0.165069    3.213279   -0.072728
      5          6           0        0.070809    1.813079   -0.091425
      6          6           0       -1.182715    1.207018   -0.155110
      7          6           0        1.492936    3.866185   -0.035876
      8          6           0        2.710166    2.991740    0.031219
      9          6           0        2.598135    1.629836    0.093943
     10          6           0        1.300200    0.956537   -0.040079
     11          8           0        1.637199    5.079062   -0.077924
     12          8           0        1.217541   -0.261297   -0.108397
     13          7           0        3.882620    3.682556    0.073649
     14         16           0        3.999289    0.541770    0.238974
     15          1           0       -0.893694    5.073816   -0.099417
     16          1           0       -3.138552    3.988721   -0.194831
     17          1           0       -3.307677    1.514854   -0.234233
     18          1           0       -1.234885    0.125548   -0.173692
     19          1           0        3.801529    4.676752   -0.096603
     20          1           0        4.727974    3.227123   -0.235161
     21          1           0        4.745650    1.391772    0.978331
 ---------------------------------------------------------------------

 SCF Done:  E(UB3LYP) =  -988.864323104     A.U. after    2 cycles

 Alpha  occ. eigenvalues --  -88.87275 -19.14319 -19.12230 -14.35819 -10.29260
 Alpha  occ. eigenvalues --  -10.27804 -10.25705 -10.22736 -10.21287 -10.21182
 Alpha  occ. eigenvalues --  -10.20484 -10.20419 -10.20346 -10.20036  -7.95894
 Alpha  occ. eigenvalues --   -5.92263  -5.91903  -5.91294  -1.07856  -1.05698
 Alpha  occ. eigenvalues --   -0.96031  -0.89444  -0.83925  -0.79615  -0.78288
 Alpha  occ. eigenvalues --   -0.74253  -0.69289  -0.65224  -0.63720  -0.60042
 Alpha  occ. eigenvalues --   -0.58245  -0.55011  -0.51885  -0.51168  -0.49460
 Alpha  occ. eigenvalues --   -0.47018  -0.46403  -0.45615  -0.45523  -0.43997
 Alpha  occ. eigenvalues --   -0.43492  -0.42029  -0.39885  -0.38809  -0.37814
 Alpha  occ. eigenvalues --   -0.37070  -0.36140  -0.30264  -0.29406  -0.28908
 Alpha  occ. eigenvalues --   -0.28198  -0.27476  -0.23213
 Alpha virt. eigenvalues --   -0.12261  -0.05755  -0.03068  -0.02229  -0.00890
 Alpha virt. eigenvalues --    0.00798   0.01138   0.01386   0.01793   0.02463
 Alpha virt. eigenvalues --    0.03268   0.04032   0.04645   0.04812   0.05453

  Beta  occ. eigenvalues --  -88.87275 -19.14319 -19.12230 -14.35819 -10.29260
  Beta  occ. eigenvalues --  -10.27804 -10.25705 -10.22736 -10.21287 -10.21182
  Beta  occ. eigenvalues --  -10.20484 -10.20419 -10.20346 -10.20036  -7.95894
  Beta  occ. eigenvalues --   -5.92263  -5.91903  -5.91294  -1.07856  -1.05698
  Beta  occ. eigenvalues --   -0.96031  -0.89444  -0.83925  -0.79615  -0.78288
  Beta  occ. eigenvalues --   -0.74253  -0.69289  -0.65224  -0.63720  -0.60042
  Beta  occ. eigenvalues --   -0.58245  -0.55011  -0.51885  -0.51168  -0.49460
  Beta  occ. eigenvalues --   -0.47018  -0.46403  -0.45615  -0.45523  -0.43997
  Beta  occ. eigenvalues --   -0.43492  -0.42029  -0.39885  -0.38809  -0.37814
  Beta  occ. eigenvalues --   -0.37070  -0.36140  -0.30264  -0.29406  -0.28908
  Beta  occ. eigenvalues --   -0.28198  -0.27476  -0.23213
  Beta virt. eigenvalues --   -0.12261  -0.05755  -0.03068  -0.02229  -0.00890
  Beta virt. eigenvalues --    0.00798   0.01138   0.01386   0.01793   0.02463
  Beta virt. eigenvalues --    0.03268   0.04032   0.04645   0.04812   0.05453

 Mulliken charges and spin densities:
               1          2
     1  C    0.099437  -0.000000
     2  C   -0.284145   0.000000
     3  C   -0.296638   0.000000
     4  C    0.329795   0.000000
     5  C    0.640727   0.000000
     6  C    0.173038   0.000000
     7  C   -1.182300  -0.000000
     8  C   -0.059417  -0.000000
     9  C    1.931549  -0.000000
    10  C   -1.465350   0.000000
    11  O   -0.252038   0.000000
    12  O   -0.197046   0.000000
    13  N   -0.303465   0.000000
    14  S   -0.454268   0.000000
    15  H    0.178670   0.000000
    16  H    0.181326   0.000000
    17  H    0.182988   0.000000
    18  H    0.182807  -0.000000
    19  H    0.291548  -0.000000
    20  H    0.250292   0.000000
    21  H    0.052490  -0.000000
 Sum of Mulliken charges =   0.00000   0.00000

 Dipole moment (field-independent basis, Debye):
    X=             -0.3074    Y=              2.3437    Z=             -0.1204  Tot=              2.3668
 Quadrupole moment (field-independent basis, Debye-Ang):
   XX=            -66.3757   YY=            -90.2574   ZZ=            -90.2937
   XY=              5.7414   XZ=              0.6577   YZ=             -1.2794

  Exact polarizability: 209.773  -7.165 188.366   7.710  -2.144  80.089
 Approx polarizability: 302.917   9.674 393.966  11.407   0.091 127.385

                      1                      2                      3
                      A                      A                      A
 Frequencies --     58.4910                93.1635               124.4841
 Red. masses --      9.1869                 5.7695                 5.5195
 Frc consts  --      0.0185                 0.0295                 0.0504
 IR Inten    --      6.0820                 4.1976                 0.5975

                      4                      5                      6
                      A                      A                      A
 Frequencies --    148.1048               166.9486               242.0940
 Red. masses --      3.2471                 6.7730                 2.4577
 Frc consts  --      0.0420                 0.1112                 0.0849
 IR Inten    --      8.7247                 0.7064                10.7028

                      7                      8                      9
                      A                      A                      A
 Frequencies --    272.9055               284.7777               307.4764
 Red. masses --      6.2251                 2.6196                 3.8042
 Frc consts  --      0.2732                 0.1252                 0.2119
 IR Inten    --      0.1738                30.7550                 2.3148

                     10                     11                     12
                      A                      A                      A
 Frequencies --    369.2858               394.9455               411.1539
 Red. masses --      6.4458                 7.3895                 6.0548
 Frc consts  --      0.5179                 0.6791                 0.6031
 IR Inten    --      4.5957                13.1645                 4.4222

                     13                     14                     15
                      A                      A                      A
 Frequencies --    424.6673               442.9214               482.6421
 Red. masses --      3.6485                 2.8692                 1.5278
 Frc consts  --      0.3877                 0.3316                 0.2097
 IR Inten    --      9.1166                11.8139                89.4827

                     16                     17                     18
                      A                      A                      A
 Frequencies --    496.5141               564.1322               587.1452
 Red. masses --      9.0598                 4.2640                 1.2387
 Frc consts  --      1.3159                 0.7995                 0.2516
 IR Inten    --      4.5215                76.2352                78.5651

                     19                     20                     21
                      A                      A                      A
 Frequencies --    592.5950               671.2665               692.8587
 Red. masses --      5.7974                 6.4213                 4.7756
 Frc consts  --      1.1995                 1.7048                 1.3507
 IR Inten    --      4.9143                 4.7448                10.4992

                     22                     23                     24
                      A                      A                      A
 Frequencies --    701.0098               733.2808               777.2735
 Red. masses --      4.8690                 2.7379                 6.0359
 Frc consts  --      1.4097                 0.8674                 2.1485
 IR Inten    --      1.8421                47.6682                 2.4478

                     25                     26                     27
                      A                      A                      A
 Frequencies --    805.0277               825.1674               834.8047
 Red. masses --      1.8835                 4.7102                 3.9344
 Frc consts  --      0.7192                 1.8896                 1.6155
 IR Inten    --     22.1909                13.8057                31.5441

                     28                     29                     30
                      A                      A                      A
 Frequencies --    913.9378               957.0305               997.7820
 Red. masses --      1.3426                 1.4468                 1.3798
 Frc consts  --      0.6607                 0.7807                 0.8093
 IR Inten    --      0.0273                 2.5725                 1.8210

                     31                     32                     33
                      A                      A                      A
 Frequencies --   1015.5243              1022.2134              1060.4518
 Red. masses --      1.3248                 4.5585                 1.9782
 Frc consts  --      0.8050                 2.8065                 1.3107
 IR Inten    --      0.1020                66.6883                12.4729

                     34                     35                     36
                      A                      A                      A
 Frequencies --   1100.5342              1129.7059              1182.1850
 Red. masses --      2.7583                 1.8411                 1.1652
 Frc consts  --      1.9684                 1.3844                 0.9595
 IR Inten    --     12.6157                49.4717                 6.7970

                     37                     38                     39
                      A                      A                      A
 Frequencies --   1197.8575              1239.9430              1292.2388
 Red. masses --      2.3775                 2.3503                 2.4886
 Frc consts  --      2.0099                 2.1290                 2.4484
 IR Inten    --      4.7308                35.6306               177.5092

                     40                     41                     42
                      A                      A                      A
 Frequencies --   1317.0062              1360.0403              1371.6945
 Red. masses --      3.4455                 5.5147                 4.9824
 Frc consts  --      3.5211                 6.0101                 5.5234
 IR Inten    --     94.5947                58.6955               206.9023

                     43                     44                     45
                      A                      A                      A
 Frequencies --   1482.9606              1506.9668              1590.7401
 Red. masses --      2.3797                 2.6557                 1.8868
 Frc consts  --      3.0834                 3.5533                 2.8131
 IR Inten    --      2.6642                 5.3802                27.7566

                     46                     47                     48
                      A                      A                      A
 Frequencies --   1616.0969              1627.6680              1643.3576
 Red. masses --      3.4755                 5.6700                 4.5401
 Frc consts  --      5.3481                 8.8504                 7.2240
 IR Inten    --    162.6979                84.9715               389.0854

                     49                     50                     51
                      A                      A                      A
 Frequencies --   1700.3276              1715.8274              2636.4742
 Red. masses --     12.5019                 8.1698                 1.0385
 Frc consts  --     21.2956                14.1713                 4.2529
 IR Inten    --     95.0930               242.1451                 3.4190

                     52                     53                     54
                      A                      A                      A
 Frequencies --   3171.3738              3185.6581              3200.2478
 Red. masses --      1.0870                 1.0917                 1.0929
 Frc consts  --      6.4413                 6.5277                 6.5949
 IR Inten    --      3.4910                 9.0554                 1.1252

                     55                     56                     57
                      A                      A                      A
 Frequencies --   3203.2627              3546.5601              3667.1085
 Red. masses --      1.0948                 1.0460                 1.1018
 Frc consts  --      6.6187                 7.7520                 8.7297
 IR Inten    --      8.6463                67.2596                53.9547

 - Thermochemistry -
 -------------------
 Temperature   298.150 Kelvin.  Pressure   1.00000 Atm.
 Atom     1 has atomic number  6 and mass  12.00000

 Molecular mass:   205.01975 amu.
 Principal axes and moments of inertia in atomic units:
                           1         2         3
     Eigenvalues --  1718.550733483.365465191.46465
           X            0.96025   0.27330  -0.05684
           Y           -0.27290   0.96193   0.01477
           Z            0.05871   0.00133   0.99827
 This molecule is an asymmetric top.
 Rotational symmetry number  1.
 Warning -- assumption of classical behavior for rotation
           may cause significant error
 Rotational temperatures (Kelvin)      0.05040     0.02487     0.01668
 Rotational constants (GHZ):           1.05015     0.51810     0.34764
 Zero-point vibrational energy     389730.9 (Joules/Mol)
                                   93.14791 (Kcal/Mol)
 Warning -- explicit consideration of  19 degrees of freedom as
           vibrations may cause significant error
 Vibrational temperatures:     84.16   134.04   179.10   213.09   240.20
          (Kelvin)            348.32   392.65   409.73   442.39   531.32
                              568.24   591.56   611.00   637.27   694.41
                              714.37   811.66   844.77   852.61   965.80
                              996.87  1008.60  1055.03  1118.32  1158.26
                             1187.23  1201.10  1314.95  1376.95  1435.59
                             1461.11  1470.74  1525.75  1583.42  1625.39
                             1700.90  1723.45  1784.00  1859.24  1894.88
                             1956.79  1973.56  2133.65  2168.19  2288.72
                             2325.20  2341.85  2364.43  2446.39  2468.69
                             3793.30  4562.90  4583.45  4604.44  4608.78
                             5102.71  5276.15

 Zero-point correction=                           0.148441 (Hartree/Particle)
 Thermal correction to Energy=                    0.160223
 Thermal correction to Enthalpy=                  0.161167
 Thermal correction to Gibbs Free Energy=         0.110462
 Sum of electronic and zero-point Energies=           -988.715882
 Sum of electronic and thermal Energies=              -988.704100
 Sum of electronic and thermal Enthalpies=            -988.703156
 Sum of electronic and thermal Free Energies=         -988.753861

                     E (Thermal)             CV                S
                      KCal/Mol        Cal/Mol-Kelvin    Cal/Mol-Kelvin
 Total                  100.541             45.750            106.718
 Electronic               0.000              0.000              0.000
 Translational            0.889              2.981             41.858
 Rotational               0.889              2.981             31.808
 Vibrational             98.764             39.788             33.052
 Vibration     1          0.596              1.974              4.507
 Vibration     2          0.602              1.954              3.593
 Vibration     3          0.610              1.929              3.030
 Vibration     4          0.617              1.905              2.696
 Vibration     5          0.624              1.883              2.470
 Vibration     6          0.658              1.776              1.787
 Vibration     7          0.676              1.723              1.578
 Vibration     8          0.683              1.702              1.505
 Vibration     9          0.697              1.659              1.376
 Vibration    10          0.742              1.535              1.083
 Vibration    11          0.762              1.481              0.981
 Vibration    12          0.775              1.446              0.923
 Vibration    13          0.787              1.417              0.876
 Vibration    14          0.803              1.377              0.817
 Vibration    15          0.839              1.289              0.703
 Vibration    16          0.852              1.258              0.667
 Vibration    17          0.920              1.109              0.516
 Vibration    18          0.944              1.059              0.472
 Vibration    19          0.950              1.048              0.463

 Optimization completed.
    -- Stationary point found.
 Normal termination of Gaussian 16 at Tue Dec 26 21:15:18 2023.
