 Gaussian 16, Revision A.03,
 Gaussian 16:  ES64L-G16RevA.03 25-Dec-2016

 --------------------------------------
 #P UB3LYP/6-311++G(d,p) nosym opt freq
 --------------------------------------

 --------
 Oxidized
 --------
 Symbolic Z-matrix:
 Charge =  0 Multiplicity = 1

 SCF Done:  E(UB3LYP) =  -1203.87566738     A.U. after   18 cycles
 SCF Done:  E(UB3LYP) =  -1203.91162776     A.U. after   16 cycles
 SCF Done:  E(UB3LYP) =  -1203.92361648     A.U. after   15 cycles
 SCF Done:  E(UB3LYP) =  -1203.93427682     A.U. after   15 cycles
 SCF Done:  E(UB3LYP) =  -1203.94180845     A.U. after   15 cycles
 SCF Done:  E(UB3LYP) =  -1203.94506363     A.U. after   15 cycles
 SCF Done:  E(UB3LYP) =  -1203.94680325     A.U. after   15 cycles
 SCF Done:  E(UB3LYP) =  -1203.94729418     A.U. after   15 cycles
 SCF Done:  E(UB3LYP) =  -1203.94769921     A.U. after   14 cycles
 SCF Done:  E(UB3LYP) =  -1203.94782623     A.U. after   13 cycles
 SCF Done:  E(UB3LYP) =  -1203.94790012     A.U. after   12 cycles
 SCF Done:  E(UB3LYP) =  -1203.94791503     A.U. after   14 cycles
 SCF Done:  E(UB3LYP) =  -1203.94790087     A.U. after   13 cycles
 SCF Done:  E(UB3LYP) =  -1203.94791534     A.U. after   12 cycles
 SCF Done:  E(UB3LYP) =  -1203.94791541     A.U. after   10 cycles
 SCF Done:  E(UB3LYP) =  -1203.94791549     A.U. after   10 cycles
 SCF Done:  E(UB3LYP) =  -1203.94791562     A.U. after   10 cycles
 SCF Done:  E(UB3LYP) =  -1203.94791575     A.U. after   10 cycles
 SCF Done:  E(UB3LYP) =  -1203.94791579     A.U. after    8 cycles
 Optimization completed.
    -- Stationary point found.
 Normal termination of Gaussian 16 at Thu Dec 21 08:28:31 2023.

 ----------------------------------------------------------------------
 #P Geom=AllCheck Guess=TCheck SCRF=Check GenChk UB3LYP/6-311++G(d,p) F
 req
 ----------------------------------------------------------------------

 Structure from the checkpoint file:  "153.chk"
 --------
 Oxidized
 --------
 Charge =  0 Multiplicity = 1

                          Input orientation:
 ---------------------------------------------------------------------
 Center     Atomic      Atomic             Coordinates (Angstroms)
 Number     Number       Type             X           Y           Z
 ---------------------------------------------------------------------
      1          7           0       -2.798435   -2.008505    0.522300
      2          6           0       -2.484303   -0.716510    0.249582
      3          6           0       -3.530981    0.226260    0.104515
      4          6           0       -3.273321    1.552022   -0.172748
      5          6           0       -1.958788    2.004317   -0.319384
      6          6           0       -0.910905    1.105217   -0.183220
      7          6           0        0.471464    1.626823   -0.346782
      8          8           0        0.682163    2.804175   -0.592215
      9          6           0        1.608583    0.668034   -0.202662
     10          6           0        2.894030    1.184379   -0.361544
     11          6           0        3.996756    0.351631   -0.241218
     12          6           0        3.812389   -0.996623    0.038035
     13          6           0        2.529809   -1.521726    0.198601
     14         17           0        2.478070   -3.238586    0.546677
     15          6           0        1.388795   -0.699543    0.081833
     16          6           0       -0.014993   -1.208549    0.243784
     17          8           0       -0.215727   -2.397963    0.491147
     18          6           0       -1.135717   -0.264227    0.101488
     19          1           0       -3.761174   -2.281209    0.619333
     20          1           0       -2.048463   -2.679241    0.625487
     21          1           0       -4.554141   -0.117886    0.216941
     22          1           0       -4.099632    2.246250   -0.277202
     23          1           0       -1.734686    3.039756   -0.536921
     24          1           0        2.998252    2.239477   -0.578235
     25          1           0        4.999829    0.743506   -0.363078
     26          1           0        4.661125   -1.661279    0.135487
 ---------------------------------------------------------------------

 SCF Done:  E(UB3LYP) =  -1203.94791579     A.U. after    2 cycles

 Alpha  occ. eigenvalues -- -101.55613 -19.12302 -19.12243 -14.33949 -10.28109
 Alpha  occ. eigenvalues --  -10.27645 -10.26180 -10.25128 -10.22198 -10.21276
 Alpha  occ. eigenvalues --  -10.20740 -10.20593 -10.20541 -10.20385 -10.20082
 Alpha  occ. eigenvalues --  -10.19922 -10.19681 -10.18681  -9.47090  -7.23577
 Alpha  occ. eigenvalues --   -7.22598  -7.22474  -1.06019  -1.05775  -0.94929
 Alpha  occ. eigenvalues --   -0.91163  -0.87340  -0.85596  -0.81414  -0.77635
 Alpha  occ. eigenvalues --   -0.76294  -0.75654  -0.68963  -0.67008  -0.65556
 Alpha  occ. eigenvalues --   -0.61542  -0.58951  -0.57870  -0.55813  -0.53431
 Alpha  occ. eigenvalues --   -0.51233  -0.50534  -0.49655  -0.48036  -0.47583
 Alpha  occ. eigenvalues --   -0.45734  -0.45479  -0.44883  -0.44692  -0.43281
 Alpha  occ. eigenvalues --   -0.41703  -0.41340  -0.40455  -0.39472  -0.38344
 Alpha  occ. eigenvalues --   -0.38033  -0.37847  -0.34579  -0.33535  -0.32553
 Alpha  occ. eigenvalues --   -0.29153  -0.28038  -0.27885  -0.26577  -0.26273
 Alpha  occ. eigenvalues --   -0.22898
 Alpha virt. eigenvalues --   -0.11459  -0.06982  -0.04112  -0.02016  -0.01471
 Alpha virt. eigenvalues --   -0.00670   0.00279   0.00798   0.01631   0.02257
 Alpha virt. eigenvalues --    0.02918   0.03176   0.03905   0.04074   0.04444

  Beta  occ. eigenvalues -- -101.55613 -19.12302 -19.12243 -14.33949 -10.28109
  Beta  occ. eigenvalues --  -10.27645 -10.26180 -10.25128 -10.22198 -10.21276
  Beta  occ. eigenvalues --  -10.20740 -10.20593 -10.20541 -10.20385 -10.20082
  Beta  occ. eigenvalues --  -10.19922 -10.19681 -10.18681  -9.47090  -7.23577
  Beta  occ. eigenvalues --   -7.22598  -7.22474  -1.06019  -1.05775  -0.94929
  Beta  occ. eigenvalues --   -0.91163  -0.87340  -0.85596  -0.81414  -0.77635
  Beta  occ. eigenvalues --   -0.76294  -0.75654  -0.68963  -0.67008  -0.65556
  Beta  occ. eigenvalues --   -0.61542  -0.58951  -0.57870  -0.55813  -0.53431
  Beta  occ. eigenvalues --   -0.51233  -0.50534  -0.49655  -0.48036  -0.47583
  Beta  occ. eigenvalues --   -0.45734  -0.45479  -0.44883  -0.44692  -0.43281
  Beta  occ. eigenvalues --   -0.41703  -0.41340  -0.40455  -0.39472  -0.38344
  Beta  occ. eigenvalues --   -0.38033  -0.37847  -0.34579  -0.33535  -0.32553
  Beta  occ. eigenvalues --   -0.29153  -0.28038  -0.27885  -0.26577  -0.26273
  Beta  occ. eigenvalues --   -0.22898
  Beta virt. eigenvalues --   -0.11459  -0.06982  -0.04112  -0.02016  -0.01471
  Beta virt. eigenvalues --   -0.00670   0.00279   0.00798   0.01631   0.02257
  Beta virt. eigenvalues --    0.02918   0.03176   0.03905   0.04074   0.04444

 Mulliken charges and spin densities:
               1          2
     1  N   -0.405901   0.000000
     2  C    0.158325  -0.000000
     3  C   -0.155351   0.000000
     4  C   -0.431825  -0.000000
     5  C    0.024308   0.000000
     6  C    0.507705   0.000000
     7  C   -0.980730  -0.000000
     8  O   -0.205681   0.000000
     9  C    0.404517   0.000000
    10  C    0.393962   0.000000
    11  C   -0.660518  -0.000000
    12  C   -0.041835  -0.000000
    13  C    0.881264  -0.000000
    14  Cl   0.408806   0.000000
    15  C   -0.186467  -0.000000
    16  C   -1.297531   0.000000
    17  O   -0.172349  -0.000000
    18  C    0.078177   0.000000
    19  H    0.273680   0.000000
    20  H    0.337203  -0.000000
    21  H    0.141643   0.000000
    22  H    0.178978  -0.000000
    23  H    0.178045   0.000000
    24  H    0.193219  -0.000000
    25  H    0.175899  -0.000000
    26  H    0.202459   0.000000
 Sum of Mulliken charges =  -0.00000   0.00000

 Dipole moment (field-independent basis, Debye):
    X=             -1.6960    Y=             -0.2706    Z=              0.1274  Tot=              1.7221
 Quadrupole moment (field-independent basis, Debye-Ang):
   XX=            -80.5041   YY=           -119.0382   ZZ=           -113.6397
   XY=              4.0579   XZ=             -2.2329   YZ=              0.9226

  Exact polarizability: 279.707 -12.173 224.705  -5.584 -26.390  96.432
 Approx polarizability: 419.582  -1.761 420.450 -11.225 -54.822 158.864

                      1                      2                      3
                      A                      A                      A
 Frequencies --     18.9887                44.4067                69.8517
 Red. masses --      8.7853                 8.2608                 9.0149
 Frc consts  --      0.0019                 0.0096                 0.0259
 IR Inten    --      1.6572                 0.7585                21.3217

                      4                      5                      6
                      A                      A                      A
 Frequencies --    138.9089               173.2721               178.6706
 Red. masses --      2.9552                 9.8911                 3.9181
 Frc consts  --      0.0336                 0.1750                 0.0737
 IR Inten    --     30.5638                 1.0683                16.6110

                      7                      8                      9
                      A                      A                      A
 Frequencies --    208.1358               224.0951               262.8552
 Red. masses --      4.9682                 1.4553                 6.5663
 Frc consts  --      0.1268                 0.0431                 0.2673
 IR Inten    --     11.7117                91.1159                 0.8819

                     10                     11                     12
                      A                      A                      A
 Frequencies --    271.6488               339.6094               355.9928
 Red. masses --      8.0945                 5.8505                11.4286
 Frc consts  --      0.3519                 0.3976                 0.8533
 IR Inten    --      0.0449                 1.1193                 2.7934

                     13                     14                     15
                      A                      A                      A
 Frequencies --    397.9111               417.1615               432.9126
 Red. masses --      7.6288                 5.5661                 5.1689
 Frc consts  --      0.7117                 0.5707                 0.5708
 IR Inten    --      0.6343                 0.4048                 0.2580

                     16                     17                     18
                      A                      A                      A
 Frequencies --    434.1493               461.1921               489.5919
 Red. masses --     10.8854                 7.0498                 3.9045
 Frc consts  --      1.2089                 0.8835                 0.5514
 IR Inten    --     20.4768                 8.0607                 0.2199

                     19                     20                     21
                      A                      A                      A
 Frequencies --    496.4625               506.1084               563.1722
 Red. masses --      6.7129                 4.7896                 6.0401
 Frc consts  --      0.9748                 0.7228                 1.1287
 IR Inten    --      2.8051                 7.4916                 0.1692

                     22                     23                     24
                      A                      A                      A
 Frequencies --    565.5918               630.0405               649.1310
 Red. masses --      4.5170                 6.6594                 1.1299
 Frc consts  --      0.8513                 1.5575                 0.2805
 IR Inten    --      4.0519                 4.3221                18.0547

                     25                     26                     27
                      A                      A                      A
 Frequencies --    666.0964               704.2703               725.0603
 Red. masses --      3.4592                 7.0217                 3.1996
 Frc consts  --      0.9043                 2.0520                 0.9910
 IR Inten    --     16.2475                 8.7135                 0.4229

                     28                     29                     30
                      A                      A                      A
 Frequencies --    758.3503               760.5559               794.4216
 Red. masses --      7.8231                 2.5553                 4.1317
 Frc consts  --      2.6508                 0.8709                 1.5363
 IR Inten    --     45.1758                63.8230                 1.3228

                     31                     32                     33
                      A                      A                      A
 Frequencies --    799.1902               810.6005               834.6434
 Red. masses --      7.0559                 1.6180                 2.3059
 Frc consts  --      2.6552                 0.6264                 0.9464
 IR Inten    --     18.6874                 0.0456                31.9831

                     34                     35                     36
                      A                      A                      A
 Frequencies --    914.0556               921.4427               923.1146
 Red. masses --      1.4166                 6.5071                 7.2496
 Frc consts  --      0.6973                 3.2552                 3.6398
 IR Inten    --      0.5218                 9.2311                24.6014

                     37                     38                     39
                      A                      A                      A
 Frequencies --    950.4947               996.4737              1011.8314
 Red. masses --      1.3740                 1.3245                 1.3349
 Frc consts  --      0.7314                 0.7748                 0.8052
 IR Inten    --      0.1182                 0.3288                 0.7314

                     40                     41                     42
                      A                      A                      A
 Frequencies --   1025.9421              1067.5470              1094.2773
 Red. masses --      2.4035                 2.6004                 2.4567
 Frc consts  --      1.4905                 1.7461                 1.7333
 IR Inten    --     48.0846                 4.5753                 0.3708

                     43                     44                     45
                      A                      A                      A
 Frequencies --   1129.7480              1152.4297              1173.8368
 Red. masses --      2.0835                 2.3500                 2.2001
 Frc consts  --      1.5668                 1.8389                 1.7861
 IR Inten    --      9.6356                43.5574                 0.7192

                     46                     47                     48
                      A                      A                      A
 Frequencies --   1196.5015              1201.9472              1242.6469
 Red. masses --      1.2191                 1.2937                 2.0450
 Frc consts  --      1.0283                 1.1012                 1.8605
 IR Inten    --     25.6471                 7.8740                 9.5322

                     49                     50                     51
                      A                      A                      A
 Frequencies --   1269.7518              1317.3843              1332.4288
 Red. masses --      4.8631                 2.5163                 8.6712
 Frc consts  --      4.6196                 2.5730                 9.0702
 IR Inten    --    615.6315               135.3113                84.7408

                     52                     53                     54
                      A                      A                      A
 Frequencies --   1357.1253              1392.9220              1447.5925
 Red. masses --      4.5508                 5.3483                 3.5043
 Frc consts  --      4.9383                 6.1139                 4.3266
 IR Inten    --      5.5882                37.7271                21.5313

                     55                     56                     57
                      A                      A                      A
 Frequencies --   1468.0368              1481.1778              1490.2312
 Red. masses --      2.3199                 2.4879                 3.1656
 Frc consts  --      2.9457                 3.2159                 4.1421
 IR Inten    --     12.1164                16.3226                14.8312

                     58                     59                     60
                      A                      A                      A
 Frequencies --   1576.5483              1596.8147              1604.5017
 Red. masses --      2.8306                 6.1889                 2.4821
 Frc consts  --      4.1451                 9.2977                 3.7649
 IR Inten    --    166.1328                11.6612                72.6496

                     61                     62                     63
                      A                      A                      A
 Frequencies --   1615.4209              1642.6402              1682.1881
 Red. masses --      5.9275                 3.7344                 7.9417
 Frc consts  --      9.1137                 5.9368                13.2408
 IR Inten    --     60.6512               238.4766               181.1097

                     64                     65                     66
                      A                      A                      A
 Frequencies --   1719.6725              3158.0772              3179.7283
 Red. masses --     12.0299                 1.0878                 1.0886
 Frc consts  --     20.9606                 6.3922                 6.4845
 IR Inten    --    170.5098                 9.3751                 6.5840

                     67                     68                     69
                      A                      A                      A
 Frequencies --   3180.1386              3201.7643              3209.4586
 Red. masses --      1.0933                 1.0930                 1.0941
 Frc consts  --      6.5146                 6.6017                 6.6403
 IR Inten    --     16.7457                 1.5489                 5.5628

                     70                     71                     72
                      A                      A                      A
 Frequencies --   3213.0234              3525.2573              3704.1952
 Red. masses --      1.0927                 1.0514                 1.0993
 Frc consts  --      6.6461                 7.6987                 8.8867
 IR Inten    --      2.0551                69.3946                84.3732

 - Thermochemistry -
 -------------------
 Temperature   298.150 Kelvin.  Pressure   1.00000 Atm.
 Atom     1 has atomic number  7 and mass  14.00307

 Molecular mass:   257.02436 amu.
 Principal axes and moments of inertia in atomic units:
                           1         2         3
     Eigenvalues --  2840.984545487.685038328.66925
           X            0.93283   0.35790   0.04163
           Y           -0.35884   0.91238   0.19698
           Z            0.03252  -0.19868   0.97952
 This molecule is an asymmetric top.
 Rotational symmetry number  1.
 Warning -- assumption of classical behavior for rotation
           may cause significant error
 Rotational temperatures (Kelvin)      0.03049     0.01578     0.01040
 Rotational constants (GHZ):           0.63525     0.32887     0.21669
 Zero-point vibrational energy     487785.8 (Joules/Mol)
                                  116.58361 (Kcal/Mol)
 Warning -- explicit consideration of  22 degrees of freedom as
           vibrations may cause significant error
 Vibrational temperatures:     27.32    63.89   100.50   199.86   249.30
          (Kelvin)            257.07   299.46   322.42   378.19   390.84
                              488.62   512.19   572.51   600.20   622.86
                              624.64   663.55   704.41   714.30   728.18
                              810.28   813.76   906.49   933.95   958.36
                             1013.29  1043.20  1091.10  1094.27  1143.00
                             1149.86  1166.27  1200.87  1315.12  1325.75
                             1328.16  1367.55  1433.70  1455.80  1476.10
                             1535.96  1574.42  1625.46  1658.09  1688.89
                             1721.50  1729.33  1787.89  1826.89  1895.42
                             1917.07  1952.60  2004.10  2082.76  2112.18
                             2131.08  2144.11  2268.30  2297.46  2308.52
                             2324.23  2363.39  2420.29  2474.23  4543.77
                             4574.92  4575.51  4606.62  4617.70  4622.82
                             5072.06  5329.51

 Zero-point correction=                           0.185788 (Hartree/Particle)
 Thermal correction to Energy=                    0.199864
 Thermal correction to Enthalpy=                  0.200808
 Thermal correction to Gibbs Free Energy=         0.143521
 Sum of electronic and zero-point Energies=          -1203.762128
 Sum of electronic and thermal Energies=             -1203.748052
 Sum of electronic and thermal Enthalpies=           -1203.747108
 Sum of electronic and thermal Free Energies=        -1203.804395

                     E (Thermal)             CV                S
                      KCal/Mol        Cal/Mol-Kelvin    Cal/Mol-Kelvin
 Total                  125.417             55.392            120.572
 Electronic               0.000              0.000              0.000
 Translational            0.889              2.981             42.532
 Rotational               0.889              2.981             33.229
 Vibrational            123.639             49.430             44.811
 Vibration     1          0.593              1.986              6.737
 Vibration     2          0.595              1.980              5.052
 Vibration     3          0.598              1.968              4.158
 Vibration     4          0.615              1.914              2.819
 Vibration     5          0.627              1.875              2.400
 Vibration     6          0.629              1.869              2.342
 Vibration     7          0.641              1.828              2.060
 Vibration     8          0.649              1.804              1.926
 Vibration     9          0.670              1.741              1.643
 Vibration    10          0.675              1.726              1.586
 Vibration    11          0.720              1.596              1.214
 Vibration    12          0.731              1.563              1.140
 Vibration    13          0.764              1.475              0.970
 Vibration    14          0.780              1.433              0.902
 Vibration    15          0.794              1.399              0.849
 Vibration    16          0.795              1.396              0.845
 Vibration    17          0.819              1.336              0.763
 Vibration    18          0.845              1.273              0.685
 Vibration    19          0.852              1.258              0.667
 Vibration    20          0.861              1.236              0.643
 Vibration    21          0.919              1.111              0.518
 Vibration    22          0.921              1.106              0.513

                           ! Non-Optimized Parameters !
 Normal termination of Gaussian 16 at Thu Dec 21 09:33:36 2023.
