 Q-Chem 5.4, Q-Chem, Inc., Pleasanton, CA (2021)
 Q-Chem 5.4.0 for Intel X86 EM64T Linux

User input:
--------------------------------------------------------------
$molecule
0 1
C                 -1.0137440000      3.9425990000      0.0255030000
C                 -2.1983990000      3.2231470000      0.1601780000
C                 -2.1746400000      1.8280860000      0.1401710000
C                  0.1964700000      3.2640240000     -0.1269520000
C                  0.2208930000      1.8624720000     -0.1457860000
C                 -0.9682250000      1.1472820000     -0.0147390000
C                  1.4587100000      4.0253620000     -0.2725610000
C                  2.7530930000      3.2724610000     -0.4480270000
C                  2.7559330000      1.8959540000     -0.3972220000
C                  1.5100090000      1.1326400000     -0.3082910000
O                  1.4880030000      5.2453920000     -0.2634370000
O                  1.5320710000     -0.0974970000     -0.3832050000
N                  3.8156330000      4.0687020000     -0.6760750000
H                 -1.0082530000      5.0254790000      0.0349740000
H                 -3.1388170000      3.7484950000      0.2801610000
H                 -3.0978830000      1.2696750000      0.2451430000
H                 -0.9292710000      0.0654220000     -0.0345270000
H                  3.6383790000      5.0587410000     -0.5648250000
H                  4.7393690000      3.6950130000     -0.4567600000
N                  3.8679450000      1.0445980000     -0.5688680000
C                  5.1904970000      1.2103520000     -0.2628820000
C                  6.0558700000     -0.0115300000     -0.4975180000
H                  3.5553050000      0.0937770000     -0.7433340000
H                  5.4930720000     -0.9032720000     -0.7767760000
H                  6.6249640000     -0.2106660000      0.4121680000
H                  6.7733840000      0.2173980000     -1.2890810000
O                  5.6771090000      2.2551330000      0.1600990000
$end

$rem
BASIS  =  6-311++G(d,p)
GUI  =  2
JOB_TYPE  =  SP
METHOD  =  B3LYP
SCF_CONVERGENCE  = 8
SOLVENT_METHOD = sm12
$end

$smx
solvent dimethylformamide
charges CM5
$end

--------------------------------------------------------------

             Standard Nuclear Orientation (Angstroms)
    I     Atom           X                Y                Z
 ----------------------------------------------------------------
    1      C      -1.0137440000     3.9425990000     0.0255030000
    2      C      -2.1983990000     3.2231470000     0.1601780000
    3      C      -2.1746400000     1.8280860000     0.1401710000
    4      C       0.1964700000     3.2640240000    -0.1269520000
    5      C       0.2208930000     1.8624720000    -0.1457860000
    6      C      -0.9682250000     1.1472820000    -0.0147390000
    7      C       1.4587100000     4.0253620000    -0.2725610000
    8      C       2.7530930000     3.2724610000    -0.4480270000
    9      C       2.7559330000     1.8959540000    -0.3972220000
   10      C       1.5100090000     1.1326400000    -0.3082910000
   11      O       1.4880030000     5.2453920000    -0.2634370000
   12      O       1.5320710000    -0.0974970000    -0.3832050000
   13      N       3.8156330000     4.0687020000    -0.6760750000
   14      H      -1.0082530000     5.0254790000     0.0349740000
   15      H      -3.1388170000     3.7484950000     0.2801610000
   16      H      -3.0978830000     1.2696750000     0.2451430000
   17      H      -0.9292710000     0.0654220000    -0.0345270000
   18      H       3.6383790000     5.0587410000    -0.5648250000
   19      H       4.7393690000     3.6950130000    -0.4567600000
   20      N       3.8679450000     1.0445980000    -0.5688680000
   21      C       5.1904970000     1.2103520000    -0.2628820000
   22      C       6.0558700000    -0.0115300000    -0.4975180000
   23      H       3.5553050000     0.0937770000    -0.7433340000
   24      H       5.4930720000    -0.9032720000    -0.7767760000
   25      H       6.6249640000    -0.2106660000     0.4121680000
   26      H       6.7733840000     0.2173980000    -1.2890810000
   27      O       5.6771090000     2.2551330000     0.1600990000
 ----------------------------------------------------------------

   15    -798.7380410659      7.81e-09  Convergence criterion met
 Total energy in the final basis set =     -798.7596935136

                    Orbital Energies (a.u.)
 --------------------------------------------------------------

 Alpha MOs
 -- Occupied --
-19.1413 -19.1255 -19.1087 -14.3665 -14.3389 -10.2951 -10.2907 -10.2784
-10.2538 -10.2358 -10.2092 -10.2087 -10.1987 -10.1975 -10.1962 -10.1959
-10.1739  -1.0777  -1.0653  -1.0565  -0.9608  -0.9381  -0.8900  -0.8210
 -0.7788  -0.7742  -0.7398  -0.6971  -0.6558  -0.6498  -0.6123  -0.5947
 -0.5673  -0.5450  -0.5394  -0.5101  -0.5033  -0.4861  -0.4740  -0.4674
 -0.4583  -0.4553  -0.4510  -0.4474  -0.4355  -0.4245  -0.4191  -0.4009
 -0.3963  -0.3832  -0.3748  -0.3693  -0.3581  -0.3203  -0.2983  -0.2861
 -0.2828  -0.2822  -0.2780  -0.2253

          Ground-State Mulliken Net Atomic Charges

     Atom                 Charge (a.u.)
  ----------------------------------------
      1 C                     0.286562
      2 C                     0.463716
      3 C                     0.370112
      4 C                     0.071927
      5 C                    -0.149841
      6 C                     0.215439
      7 C                    -1.089893
      8 C                     0.035973
      9 C                     0.213374
     10 C                    -1.397459
     11 O                    -0.262184
     12 O                    -0.272610
     13 N                    -0.408532
     14 H                     0.204204
     15 H                     0.319763
     16 H                     0.320901
     17 H                     0.197703
     18 H                     0.326117
     19 H                     0.277660
     20 N                    -0.037629
     21 C                    -0.168403
     22 C                    -0.055427
     23 H                     0.372285
     24 H                     0.228241
     25 H                     0.208095
     26 H                     0.218311
     27 O                    -0.488407
  ----------------------------------------
  Sum of atomic charges =     0.000000

                    Cartesian Multipole Moments
 -----------------------------------------------------------------
    Charge (ESU x 10^10)
                 0.0000
    Dipole Moment (Debye)
         X      -2.1654      Y      -1.6872      Z      -0.4376
       Tot       2.7798
    Quadrupole Moments (Debye-Ang)
        XX     -88.1442     XY     -17.3820     YY    -107.9116
        XZ      -6.4740     YZ       0.2254     ZZ    -100.7613

 Total job time:  523.62s(wall), 4093.45s(cpu)
        *  Thank you very much for using Q-Chem.  Have a nice day.  *
