 Gaussian 16, Revision A.03,
 Gaussian 16:  ES64L-G16RevA.03 25-Dec-2016

 ----------------------------------------------------------------
 #P UB3LYP/6-311++G(d,p) SCRF=(PCM,Solvent=n,n-DiMethylFormamide)
 ----------------------------------------------------------------

 ------------------
 Quinone PCM in DMF
 ------------------
 Symbolic Z-matrix:
 Charge =  0 Multiplicity = 1

                         Standard orientation:
 ---------------------------------------------------------------------
 Center     Atomic      Atomic             Coordinates (Angstroms)
 Number     Number       Type             X           Y           Z
 ---------------------------------------------------------------------
      1          8           0        0.308469    2.616957   -0.000354
      2          6           0        0.306916    1.376982   -0.000054
      3          6           0       -0.924008    0.600530   -0.000138
      4          6           0       -2.196802    1.229311   -0.000040
      5          6           0       -3.346111    0.440796    0.000036
      6          6           0       -3.248727   -0.947880    0.000099
      7          6           0       -2.014196   -1.591003    0.000064
      8          6           0       -0.864525   -0.805220   -0.000101
      9          8           0        0.325036   -1.490738   -0.000225
     10          6           0        1.508415   -0.804749   -0.000146
     11          6           0        2.677387   -1.567999   -0.000205
     12          6           0        3.902790   -0.919869    0.000013
     13          6           0        3.973967    0.481064    0.000295
     14          6           0        2.809126    1.227507    0.000273
     15          6           0        1.554687    0.595722    0.000034
     16          8           0       -2.314095    2.568854    0.000121
     17          1           0       -4.312429    0.928541    0.000126
     18          1           0       -4.142643   -1.560344    0.000224
     19          8           0       -1.960002   -2.957539    0.000168
     20          1           0        2.605676   -2.648575   -0.000384
     21          1           0        4.813754   -1.507323   -0.000018
     22          1           0        4.938358    0.974273    0.000495
     23          1           0        2.827523    2.310451    0.000465
     24          1           0       -1.403364    2.945016    0.000349
     25          1           0       -1.035657   -3.233474    0.000280
 ---------------------------------------------------------------------

 SCF Done:  E(UB3LYP) =  -801.345460722     A.U. after   15 cycles

 The electronic state is 1-A.
 Alpha  occ. eigenvalues --  -19.21630 -19.16897 -19.15922 -19.13046 -10.28620
 Alpha  occ. eigenvalues --  -10.27394 -10.27160 -10.26049 -10.25197 -10.20941
 Alpha  occ. eigenvalues --  -10.20809 -10.20236 -10.20007 -10.20006 -10.19794
 Alpha  occ. eigenvalues --  -10.19247 -10.18800  -1.13747  -1.08536  -1.07837
 Alpha  occ. eigenvalues --   -1.05584  -0.89051  -0.87948  -0.80932  -0.79565
 Alpha  occ. eigenvalues --   -0.77535  -0.75210  -0.68921  -0.68017  -0.63321
 Alpha  occ. eigenvalues --   -0.62726  -0.59219  -0.58451  -0.57136  -0.55489
 Alpha  occ. eigenvalues --   -0.51179  -0.50660  -0.49726  -0.49616  -0.46647
 Alpha  occ. eigenvalues --   -0.46292  -0.45515  -0.43959  -0.43764  -0.43100
 Alpha  occ. eigenvalues --   -0.42866  -0.41904  -0.40296  -0.39526  -0.38810
 Alpha  occ. eigenvalues --   -0.38104  -0.37747  -0.36704  -0.32934  -0.28761
 Alpha  occ. eigenvalues --   -0.28721  -0.28250  -0.26548  -0.22272
 Alpha virt. eigenvalues --   -0.09072  -0.04369  -0.02623  -0.00915  -0.00150
 Alpha virt. eigenvalues --    0.00097   0.00429   0.01250   0.02133   0.03332
 Alpha virt. eigenvalues --    0.03473   0.03690   0.04113   0.04139   0.06117

  Beta  occ. eigenvalues --  -19.21630 -19.16897 -19.15922 -19.13046 -10.28620
  Beta  occ. eigenvalues --  -10.27394 -10.27160 -10.26049 -10.25197 -10.20941
  Beta  occ. eigenvalues --  -10.20809 -10.20236 -10.20007 -10.20006 -10.19794
  Beta  occ. eigenvalues --  -10.19247 -10.18800  -1.13747  -1.08536  -1.07837
  Beta  occ. eigenvalues --   -1.05584  -0.89051  -0.87948  -0.80932  -0.79565
  Beta  occ. eigenvalues --   -0.77535  -0.75210  -0.68921  -0.68017  -0.63321
  Beta  occ. eigenvalues --   -0.62726  -0.59219  -0.58451  -0.57136  -0.55489
  Beta  occ. eigenvalues --   -0.51179  -0.50660  -0.49726  -0.49616  -0.46647
  Beta  occ. eigenvalues --   -0.46292  -0.45515  -0.43959  -0.43764  -0.43100
  Beta  occ. eigenvalues --   -0.42866  -0.41904  -0.40296  -0.39526  -0.38810
  Beta  occ. eigenvalues --   -0.38104  -0.37747  -0.36704  -0.32934  -0.28761
  Beta  occ. eigenvalues --   -0.28721  -0.28250  -0.26548  -0.22272
  Beta virt. eigenvalues --   -0.09072  -0.04369  -0.02623  -0.00915  -0.00150
  Beta virt. eigenvalues --    0.00097   0.00429   0.01250   0.02133   0.03332
  Beta virt. eigenvalues --    0.03473   0.03690   0.04113   0.04139   0.06117

 Mulliken charges and spin densities:
               1          2
     1  O   -0.368888   0.000000
     2  C   -0.030249  -0.000000
     3  C    1.369968   0.000000
     4  C   -0.059285   0.000000
     5  C   -0.014719  -0.000000
     6  C    0.028508  -0.000000
     7  C   -1.065684   0.000000
     8  C   -0.511518  -0.000000
     9  O   -0.084892   0.000000
    10  C   -1.334202  -0.000000
    11  C   -0.334619   0.000000
    12  C   -0.400933   0.000000
    13  C   -0.255839  -0.000000
    14  C    0.362902   0.000000
    15  C    1.384588   0.000000
    16  O   -0.316497  -0.000000
    17  H    0.216298  -0.000000
    18  H    0.228560  -0.000000
    19  O   -0.280699  -0.000000
    20  H    0.212127   0.000000
    21  H    0.210496   0.000000
    22  H    0.199509  -0.000000
    23  H    0.207373  -0.000000
    24  H    0.330212   0.000000
    25  H    0.307484   0.000000
 Sum of Mulliken charges =  -0.00000  -0.00000

 Dipole moment (field-independent basis, Debye):
    X=              4.1346    Y=             -4.1888    Z=              0.0017  Tot=              5.8856
 Quadrupole moment (field-independent basis, Debye-Ang):
   XX=            -81.9015   YY=           -104.0479   ZZ=           -100.6845
   XY=             -2.2598   XZ=              0.0003   YZ=              0.0039

 Normal termination of Gaussian 16 at Sat Jan 13 19:18:56 2024.
