 Q-Chem 5.4, Q-Chem, Inc., Pleasanton, CA (2021)
 Q-Chem 5.4.0 for Intel X86 EM64T Linux

User input:
--------------------------------------------------------------
$molecule
0 1
C                 -3.2567610000      0.0619150000      1.0087520000
C                 -1.9377220000     -0.0124970000      0.3025790000
C                 -1.8142350000     -0.2279730000     -1.0204710000
C                 -0.5162220000     -0.3022480000     -1.7221790000
O                 -0.4716810000     -0.5005280000     -2.9268010000
C                  0.7185620000     -0.1265550000     -0.9038940000
C                  1.9737590000     -0.1867580000     -1.5124400000
C                  3.1247140000     -0.0229480000     -0.7482580000
C                  3.0277960000      0.2017870000      0.6273580000
C                  1.7804330000      0.2630190000      1.2399190000
C                  0.6197810000      0.0994600000      0.4790690000
C                 -0.7125520000      0.1672760000      1.1470410000
O                 -0.8183650000      0.3630090000      2.3467640000
H                 -4.0836040000     -0.0799070000      0.3120770000
H                 -3.3143890000     -0.6966080000      1.7942580000
H                 -3.3697850000      1.0275780000      1.5091390000
H                 -2.6845260000     -0.3614680000     -1.6554140000
H                  2.0250280000     -0.3619610000     -2.5801150000
H                  4.0988010000     -0.0698930000     -1.2217270000
H                  3.9267970000      0.3289240000      1.2196500000
H                  1.6841720000      0.4363770000      2.3046930000
$end
$rem
MAX_SCF_CYCLES=200
BASIS  =  6-311++G(d,p)
GUI  =  2
JOB_TYPE  =  SP
METHOD  =  B3LYP
SOLVENT_METHOD = COSMO
$end
$solvent
dielectric 37.219
opticaldielectric 1.43
$end

--------------------------------------------------------------

             Standard Nuclear Orientation (Angstroms)
    I     Atom           X                Y                Z
 ----------------------------------------------------------------
    1      C       3.4821519708    -0.4120805993     0.0000724314
    2      C       2.0457221012     0.0130670975     0.0000418521
    3      C       1.6517117620     1.3002718575     0.0001242396
    4      C       0.2367769965     1.7253697747     0.0000181981
    5      O      -0.0555349738     2.9115260600    -0.0000092015
    6      C      -0.8024425533     0.6552423900    -0.0000585669
    7      C      -2.1562476879     0.9968324785    -0.0001730693
    8      C      -3.1246161196    -0.0020508094    -0.0000516421
    9      C      -2.7457492837    -1.3469218687     0.0001780912
   10      C      -1.3987800626    -1.6941519186     0.0001842138
   11      C      -0.4202355385    -0.6965508307     0.0000508929
   12      C       1.0213145711    -1.0810376169    -0.0000844750
   13      O       1.3725674579    -2.2495685056    -0.0003002995
   14      H       4.1473313412     0.4520230413    -0.0003580577
   15      H       3.6984893367    -1.0318494468     0.8745908838
   16      H       3.6982999027    -1.0326770399    -0.8738879416
   17      H       2.3721481747     2.1122763671     0.0001910246
   18      H      -2.4268654575     2.0456510991    -0.0003495094
   19      H      -4.1754774055     0.2642436971    -0.0001167771
   20      H      -3.5030842462    -2.1225636429     0.0003223923
   21      H      -1.0847384552    -2.7307042370     0.0002709981
 ----------------------------------------------------------------

    9    -574.5907431130      3.04e-06  Convergence criterion met
 Total energy in the final basis set =     -574.5907431130
    5    -574.6044619642      2.74e-06  Convergence criterion met
 Total energy in the final basis set =     -574.6044619642

                    Orbital Energies (a.u.)
 --------------------------------------------------------------

 Alpha MOs
 -- Occupied --
-19.1389 -19.1359 -10.2859 -10.2838 -10.2203 -10.2078 -10.2069 -10.2022
-10.1970 -10.1968 -10.1962 -10.1958 -10.1746  -1.0722  -1.0681  -0.8902
 -0.8464  -0.7849  -0.7778  -0.7285  -0.6843  -0.6471  -0.6226  -0.5878
 -0.5456  -0.5286  -0.5016  -0.4776  -0.4656  -0.4603  -0.4563  -0.4503
 -0.4292  -0.4274  -0.4140  -0.4100  -0.3963  -0.3790  -0.3784  -0.3680
 -0.2994  -0.2914  -0.2788  -0.2783  -0.2777

          Ground-State Mulliken Net Atomic Charges

     Atom                 Charge (a.u.)
  ----------------------------------------
      1 C                    -0.340950
      2 C                     0.866313
      3 C                    -0.438938
      4 C                    -0.801577
      5 O                    -0.321392
      6 C                     0.452185
      7 C                     0.072561
      8 C                    -0.366716
      9 C                    -0.468478
     10 C                     0.104535
     11 C                     0.321559
     12 C                    -0.444489
     13 O                    -0.287237
     14 H                     0.182571
     15 H                     0.199818
     16 H                     0.199711
     17 H                     0.219826
     18 H                     0.196968
     19 H                     0.229942
     20 H                     0.231472
     21 H                     0.192318
  ----------------------------------------
  Sum of atomic charges =     0.000000

                    Cartesian Multipole Moments
 -----------------------------------------------------------------
    Charge (ESU x 10^10)
                 0.0000
    Dipole Moment (Debye)
         X      -1.0380      Y      -1.2350      Z       0.0006
       Tot       1.6133
    Quadrupole Moments (Debye-Ang)
        XX     -55.3951     XY       8.0218     YY     -91.6012
        XZ       0.0011     YZ      -0.0034     ZZ     -76.4155

 Total job time:  85.88s(wall), 192.34s(cpu)
        *  Thank you very much for using Q-Chem.  Have a nice day.  *
