 Q-Chem 5.4, Q-Chem, Inc., Pleasanton, CA (2021)
 Q-Chem 5.4.0 for Intel X86 EM64T Linux

User input:
--------------------------------------------------------------
$molecule
-1 2
C                 -1.7631600000     -3.7213920000      1.3013420000
C                 -0.3781800000     -3.9547000000      1.0442140000
C                  0.4328430000     -2.9503280000      0.5696640000
C                 -0.0540060000     -1.6106830000      0.3024510000
C                 -1.4684500000     -1.3551830000      0.5585770000
C                 -2.2526940000     -2.3723510000      1.0331060000
O                 -2.6017410000     -4.5785780000      1.7401020000
O                  0.7102190000     -0.7031020000     -0.1335570000
O                 -3.5849730000     -2.2210230000      1.3033750000
C                 -2.0083880000      0.0230220000      0.2914550000
H                  0.0074330000     -4.9517040000      1.2375650000
H                  1.4867670000     -3.1238330000      0.3732270000
H                 -1.5519990000      0.7608530000      0.9621000000
H                 -3.0912090000      0.0522160000      0.4242650000
H                 -1.7586160000      0.3436920000     -0.7251920000
H                 -3.8268800000     -3.1226740000      1.6124360000
$end
$rem
MAX_SCF_CYCLES=200
BASIS  =  6-311++G(d,p)
GUI  =  2
JOB_TYPE  =  SP
METHOD  =  B3LYP
SOLVENT_METHOD = COSMO
$end
$solvent
dielectric 37.219
opticaldielectric 1.43
$end

--------------------------------------------------------------

             Standard Nuclear Orientation (Angstroms)
    I     Atom           X                Y                Z
 ----------------------------------------------------------------
    1      C       1.4733238946     0.5113841692    -0.0002578528
    2      C       0.7912030468     1.7657478156    -0.0001058946
    3      C      -0.5829422173     1.8244305554     0.0003968516
    4      C      -1.4176808831     0.6385617525     0.0003303231
    5      C      -0.7363114052    -0.6526646330    -0.0013015256
    6      C       0.6326185389    -0.6822319409     0.0006339576
    7      O       2.7391234907     0.3433159859    -0.0011170241
    8      O      -2.6793128045     0.7168602374     0.0009137846
    9      O       1.3519796596    -1.8456015901     0.0024960053
   10      C      -1.5706711597    -1.9041350680    -0.0026353703
   11      H       1.3975937396     2.6670742260    -0.0001275779
   12      H      -1.1053311084     2.7765633741     0.0008654378
   13      H      -2.1510728467    -1.9906639630     0.9236998022
   14      H      -0.9450213966    -2.7921240407    -0.1076594720
   15      H      -2.3027217890    -1.8775882068    -0.8163819917
   16      H       2.2749917437    -1.5064143607    -0.0011012580
 ----------------------------------------------------------------

    9    -496.2321899063      8.89e-06  Convergence criterion met
 Total energy in the final basis set =     -496.2321899063
    4    -496.3184369061      6.84e-06  Convergence criterion met
 Total energy in the final basis set =     -496.3184369061

                    Orbital Energies (a.u.)
 --------------------------------------------------------------

 Alpha MOs
 -- Occupied --
-19.1443 -19.0923 -19.0816 -10.2254 -10.2236 -10.2222 -10.1656 -10.1655
-10.1645 -10.1549  -1.0637  -1.0027  -1.0001  -0.8253  -0.7635  -0.6939
 -0.6685  -0.5921  -0.5794  -0.5134  -0.4879  -0.4604  -0.4382  -0.4334
 -0.4069  -0.4013  -0.4006  -0.3959  -0.3767  -0.3624  -0.3585  -0.3470
 -0.2848  -0.2644  -0.2457  -0.2289  -0.1671

 Beta MOs
 -- Occupied --
-19.1440 -19.0857 -19.0752 -10.2229 -10.2224 -10.2214 -10.1652 -10.1650
-10.1621 -10.1549  -1.0617  -0.9915  -0.9891  -0.8195  -0.7610  -0.6881
 -0.6611  -0.5888  -0.5757  -0.5097  -0.4859  -0.4570  -0.4293  -0.4282
 -0.4029  -0.3978  -0.3944  -0.3916  -0.3606  -0.3583  -0.3449  -0.3391
 -0.2585  -0.2551  -0.2397  -0.2215

          Ground-State Mulliken Net Atomic Charges

     Atom                 Charge (a.u.)    Spin (a.u.)
  --------------------------------------------------------
      1 C                    -0.104325       0.158241
      2 C                    -0.028355       0.050677
      3 C                     0.160060       0.183957
      4 C                    -0.949535       0.083635
      5 C                     1.952209       0.027989
      6 C                    -1.558475       0.037467
      7 O                    -0.567493       0.229759
      8 O                    -0.522884       0.224434
      9 O                    -0.317969       0.013612
     10 C                    -0.296904       0.009093
     11 H                     0.208492      -0.004643
     12 H                     0.200055      -0.014352
     13 H                     0.174296       0.002045
     14 H                     0.178015      -0.000350
     15 H                     0.166601       0.001529
     16 H                     0.306211      -0.003092
  --------------------------------------------------------
  Sum of atomic charges =    -1.000000

                    Cartesian Multipole Moments
 -----------------------------------------------------------------
    Charge (ESU x 10^10)
                -4.8032
    Dipole Moment (Debye)
         X       0.6990      Y      -1.1896      Z       0.0019
       Tot       1.3798
    Quadrupole Moments (Debye-Ang)
        XX     -97.9937     XY       3.8572     YY     -64.1531
        XZ      -0.0104     YZ       0.0015     ZZ     -62.2378

 Total job time:  19.93s(wall), 138.36s(cpu)
        *  Thank you very much for using Q-Chem.  Have a nice day.  *
