 Gaussian 16, Revision A.03,
 Gaussian 16:  ES64L-G16RevA.03 25-Dec-2016

 --------------------------------------
 #P UB3LYP/6-311++G(d,p) nosym opt freq
 --------------------------------------

 -------
 Radical
 -------
 Symbolic Z-matrix:
 Charge = -1 Multiplicity = 2

 SCF Done:  E(UB3LYP) =  -496.220503414     A.U. after   19 cycles
 SCF Done:  E(UB3LYP) =  -496.231008859     A.U. after   17 cycles
 SCF Done:  E(UB3LYP) =  -496.232067427     A.U. after   16 cycles
 SCF Done:  E(UB3LYP) =  -496.232132215     A.U. after   15 cycles
 SCF Done:  E(UB3LYP) =  -496.232107499     A.U. after   14 cycles
 SCF Done:  E(UB3LYP) =  -496.232132648     A.U. after   13 cycles
 SCF Done:  E(UB3LYP) =  -496.232138909     A.U. after   13 cycles
 SCF Done:  E(UB3LYP) =  -496.232139225     A.U. after   11 cycles
 SCF Done:  E(UB3LYP) =  -496.232139387     A.U. after   11 cycles
 SCF Done:  E(UB3LYP) =  -496.232139492     A.U. after   10 cycles
 SCF Done:  E(UB3LYP) =  -496.232190808     A.U. after   13 cycles
 SCF Done:  E(UB3LYP) =  -496.232195512     A.U. after   13 cycles
 SCF Done:  E(UB3LYP) =  -496.232192950     A.U. after   13 cycles
 SCF Done:  E(UB3LYP) =  -496.232195890     A.U. after   12 cycles
 SCF Done:  E(UB3LYP) =  -496.232196368     A.U. after   11 cycles
 SCF Done:  E(UB3LYP) =  -496.232196835     A.U. after   12 cycles
 SCF Done:  E(UB3LYP) =  -496.232196884     A.U. after   10 cycles
 SCF Done:  E(UB3LYP) =  -496.232196911     A.U. after   11 cycles
 SCF Done:  E(UB3LYP) =  -496.232196913     A.U. after    8 cycles
 Optimization completed.
    -- Stationary point found.
 Normal termination of Gaussian 16 at Tue Jan 23 03:23:17 2024.

 ----------------------------------------------------------------------
 #P Geom=AllCheck Guess=TCheck SCRF=Check GenChk UB3LYP/6-311++G(d,p) F
 req
 ----------------------------------------------------------------------

 Structure from the checkpoint file:  "108-rad.chk"
 -------
 Radical
 -------
 Charge = -1 Multiplicity = 2

                          Input orientation:
 ---------------------------------------------------------------------
 Center     Atomic      Atomic             Coordinates (Angstroms)
 Number     Number       Type             X           Y           Z
 ---------------------------------------------------------------------
      1          6           0       -1.763160   -3.721392    1.301342
      2          6           0       -0.378180   -3.954700    1.044214
      3          6           0        0.432843   -2.950328    0.569664
      4          6           0       -0.054006   -1.610683    0.302451
      5          6           0       -1.468450   -1.355183    0.558577
      6          6           0       -2.252694   -2.372351    1.033106
      7          8           0       -2.601741   -4.578578    1.740102
      8          8           0        0.710219   -0.703102   -0.133557
      9          8           0       -3.584973   -2.221023    1.303375
     10          6           0       -2.008388    0.023022    0.291455
     11          1           0        0.007433   -4.951704    1.237565
     12          1           0        1.486767   -3.123833    0.373227
     13          1           0       -1.551999    0.760853    0.962100
     14          1           0       -3.091209    0.052216    0.424265
     15          1           0       -1.758616    0.343692   -0.725192
     16          1           0       -3.826880   -3.122674    1.612436
 ---------------------------------------------------------------------

 SCF Done:  E(UB3LYP) =  -496.232196913     A.U. after    1 cycles

 Alpha  occ. eigenvalues --  -19.00444 -18.94431 -18.93034 -10.08099 -10.07988
 Alpha  occ. eigenvalues --  -10.07699 -10.02905 -10.02677 -10.02558 -10.02498
 Alpha  occ. eigenvalues --   -0.92292  -0.85241  -0.85088  -0.68366  -0.62699
 Alpha  occ. eigenvalues --   -0.55586  -0.52935  -0.45210  -0.44029  -0.37114
 Alpha  occ. eigenvalues --   -0.34687  -0.31940  -0.29804  -0.29121  -0.26588
 Alpha  occ. eigenvalues --   -0.26535  -0.26138  -0.25450  -0.23113  -0.22422
 Alpha  occ. eigenvalues --   -0.21405  -0.20713  -0.13869  -0.11567  -0.09380
 Alpha  occ. eigenvalues --   -0.08895  -0.01978
 Alpha virt. eigenvalues --    0.10134   0.10755   0.12152   0.13134   0.13474
 Alpha virt. eigenvalues --    0.14299   0.14629   0.16829   0.17254   0.18231
 Alpha virt. eigenvalues --    0.18628   0.19442   0.20409   0.20690   0.21727

  Beta  occ. eigenvalues --  -19.00414 -18.93744 -18.92346 -10.08028 -10.07763
  Beta  occ. eigenvalues --  -10.07618 -10.02910 -10.02614 -10.02519 -10.02239
  Beta  occ. eigenvalues --   -0.92124  -0.84093  -0.83889  -0.67799  -0.62438
  Beta  occ. eigenvalues --   -0.55192  -0.52046  -0.44895  -0.43665  -0.36776
  Beta  occ. eigenvalues --   -0.34515  -0.31587  -0.29139  -0.28826  -0.26464
  Beta  occ. eigenvalues --   -0.25788  -0.25708  -0.24969  -0.22135  -0.21282
  Beta  occ. eigenvalues --   -0.20495  -0.19164  -0.10946  -0.10775  -0.08723
  Beta  occ. eigenvalues --   -0.08042
  Beta virt. eigenvalues --    0.05394   0.10141   0.10763   0.12174   0.13151
  Beta virt. eigenvalues --    0.13731   0.14403   0.15685   0.17283   0.18253
  Beta virt. eigenvalues --    0.18308   0.18673   0.20173   0.20617   0.20743

 Mulliken charges and spin densities:
               1          2
     1  C   -0.338263   0.131705
     2  C    0.121775   0.054598
     3  C    0.316035   0.202695
     4  C   -1.226880   0.043217
     5  C    2.229405   0.038368
     6  C   -1.649246   0.037975
     7  O   -0.476915   0.244755
     8  O   -0.399729   0.248753
     9  O   -0.273186   0.011934
    10  C   -0.287729   0.007702
    11  H    0.139535  -0.005183
    12  H    0.140123  -0.016061
    13  H    0.137625   0.002299
    14  H    0.162655  -0.000321
    15  H    0.145985   0.001670
    16  H    0.258810  -0.004106
 Sum of Mulliken charges =  -1.00000   1.00000

 Dipole moment (field-independent basis, Debye):
    X=              5.3659    Y=             11.3317    Z=             -3.6743  Tot=             13.0653
 Quadrupole moment (field-independent basis, Debye-Ang):
   XX=            -84.3453   YY=           -107.7322   ZZ=            -69.3749
   XY=            -24.6355   XZ=             11.1931   YZ=             16.6541

  Exact polarizability: 125.912  16.002 134.548 -19.725 -24.230  72.751
 Approx polarizability: 203.638  50.434 209.520 -40.765 -45.018 113.197

                      1                      2                      3
                      A                      A                      A
 Frequencies --     19.4093               130.5880               143.0222
 Red. masses --      1.0243                 6.2672                 6.0444
 Frc consts  --      0.0002                 0.0630                 0.0728
 IR Inten    --      0.0383                 8.5797                 0.2589

                      4                      5                      6
                      A                      A                      A
 Frequencies --    255.5605               278.7441               336.3136
 Red. masses --      4.3072                 3.0050                 5.8128
 Frc consts  --      0.1657                 0.1376                 0.3874
 IR Inten    --      0.6640                 3.9132                 9.6664

                      7                      8                      9
                      A                      A                      A
 Frequencies --    340.2725               386.8941               475.7962
 Red. masses --      5.6437                10.6267                 7.1811
 Frc consts  --      0.3850                 0.9372                 0.9578
 IR Inten    --      0.0039                15.9595                 4.9373

                     10                     11                     12
                      A                      A                      A
 Frequencies --    481.2147               500.1828               616.4315
 Red. masses --     11.0234                 4.0358                 4.0197
 Frc consts  --      1.5040                 0.5949                 0.8999
 IR Inten    --      0.0236                 0.0829                 0.6016

                     13                     14                     15
                      A                      A                      A
 Frequencies --    630.5515               665.0954               728.7177
 Red. masses --      2.3249                 6.2724                 2.0178
 Frc consts  --      0.5446                 1.6348                 0.6313
 IR Inten    --      6.4540                 4.0896                30.0221

                     16                     17                     18
                      A                      A                      A
 Frequencies --    732.5614               773.6512               803.8789
 Red. masses --      1.8548                 7.6147                 2.1135
 Frc consts  --      0.5865                 2.6853                 0.8047
 IR Inten    --     48.3459                26.0647                51.5232

                     19                     20                     21
                      A                      A                      A
 Frequencies --    896.3555               899.6531              1027.9334
 Red. masses --      2.2035                 1.2229                 3.0667
 Frc consts  --      1.0431                 0.5832                 1.9092
 IR Inten    --     14.9777                 0.3368                29.1016

                     22                     23                     24
                      A                      A                      A
 Frequencies --   1047.7160              1085.2102              1157.4202
 Red. masses --      1.4488                 1.7219                 1.7304
 Frc consts  --      0.9370                 1.1948                 1.3658
 IR Inten    --      0.4746                46.8097                 4.2740

                     25                     26                     27
                      A                      A                      A
 Frequencies --   1202.9355              1246.5761              1319.7170
 Red. masses --      4.3846                 3.9186                 1.9734
 Frc consts  --      3.7382                 3.5877                 2.0250
 IR Inten    --    136.0678                 0.7036                31.2325

                     28                     29                     30
                      A                      A                      A
 Frequencies --   1392.4985              1395.4191              1440.9431
 Red. masses --      1.8985                 1.3421                 3.5960
 Frc consts  --      2.1689                 1.5397                 4.3992
 IR Inten    --     47.4454                 1.5718               383.9228

                     31                     32                     33
                      A                      A                      A
 Frequencies --   1467.1780              1476.0598              1492.8958
 Red. masses --      3.2894                 1.0791                 1.2680
 Frc consts  --      4.1719                 1.3852                 1.6650
 IR Inten    --     24.7652                 4.9636                49.2703

                     34                     35                     36
                      A                      A                      A
 Frequencies --   1529.9891              1581.0525              1671.0196
 Red. masses --      6.2160                 5.1892                 6.0857
 Frc consts  --      8.5732                 7.6426                10.0121
 IR Inten    --    363.9787                62.5639                 3.8716

                     37                     38                     39
                      A                      A                      A
 Frequencies --   3006.3791              3044.9860              3103.3941
 Red. masses --      1.0415                 1.0943                 1.0989
 Frc consts  --      5.5460                 5.9781                 6.2359
 IR Inten    --     75.1568                39.9520                17.1025

                     40                     41                     42
                      A                      A                      A
 Frequencies --   3137.6597              3159.6719              3470.6253
 Red. masses --      1.0851                 1.0942                 1.0637
 Frc consts  --      6.2943                 6.4362                 7.5487
 IR Inten    --     22.2144                38.6868               114.8178

 - Thermochemistry -
 -------------------
 Temperature   298.150 Kelvin.  Pressure   1.00000 Atm.
 Atom     1 has atomic number  6 and mass  12.00000

 Molecular mass:   138.03169 amu.
 Principal axes and moments of inertia in atomic units:
                           1         2         3
     Eigenvalues --   849.287251385.647052223.91028
           X            0.60016   0.76923   0.21930
           Y            0.72147  -0.63896   0.26686
           Z           -0.34540   0.00194   0.93845
 This molecule is an asymmetric top.
 Rotational symmetry number  1.
 Warning -- assumption of classical behavior for rotation
           may cause significant error
 Rotational temperatures (Kelvin)      0.10198     0.06251     0.03895
 Rotational constants (GHZ):           2.12501     1.30245     0.81152
 Zero-point vibrational energy     302369.1 (Joules/Mol)
                                   72.26796 (Kcal/Mol)
 Warning -- explicit consideration of  12 degrees of freedom as
           vibrations may cause significant error
 Vibrational temperatures:     27.93   187.89   205.78   367.69   401.05
          (Kelvin)            483.88   489.58   556.65   684.56   692.36
                              719.65   886.91   907.22   956.92  1048.46
                             1053.99  1113.11  1156.60  1289.66  1294.40
                             1478.97  1507.43  1561.38  1665.27  1730.76
                             1793.54  1898.78  2003.49  2007.70  2073.20
                             2110.94  2123.72  2147.94  2201.31  2274.78
                             2404.22  4325.51  4381.06  4465.09  4514.39
                             4546.06  4993.46

 Zero-point correction=                           0.115166 (Hartree/Particle)
 Thermal correction to Energy=                    0.124031
 Thermal correction to Enthalpy=                  0.124975
 Thermal correction to Gibbs Free Energy=         0.079602
 Sum of electronic and zero-point Energies=           -496.117031
 Sum of electronic and thermal Energies=              -496.108166
 Sum of electronic and thermal Enthalpies=            -496.107222
 Sum of electronic and thermal Free Energies=         -496.152595

                     E (Thermal)             CV                S
                      KCal/Mol        Cal/Mol-Kelvin    Cal/Mol-Kelvin
 Total                   77.830             32.975             95.495
 Electronic               0.000              0.000              1.377
 Translational            0.889              2.981             40.679
 Rotational               0.889              2.981             29.349
 Vibrational             76.053             27.013             24.089
 Vibration     1          0.593              1.986              6.694
 Vibration     2          0.612              1.923              2.937
 Vibration     3          0.616              1.910              2.763
 Vibration     4          0.666              1.753              1.692
 Vibration     5          0.679              1.713              1.541
 Vibration     6          0.717              1.603              1.230
 Vibration     7          0.720              1.595              1.211
 Vibration     8          0.755              1.498              1.012
 Vibration     9          0.832              1.304              0.721
 Vibration    10          0.838              1.292              0.707
 Vibration    11          0.856              1.250              0.658
 Vibration    12          0.976              0.997              0.422

 Optimization completed.
    -- Stationary point found.
 Normal termination of Gaussian 16 at Tue Jan 23 03:36:45 2024.
