 Q-Chem 5.4, Q-Chem, Inc., Pleasanton, CA (2021)
 Q-Chem 5.4.0 for Intel X86 EM64T Linux

User input:
--------------------------------------------------------------
$molecule
-1 2
C                 -4.5694400000      0.2298380000      0.0195070000
C                 -3.1186740000     -0.1910530000      0.0204040000
C                 -2.7776570000     -1.5677950000     -0.0148770000
C                 -1.4582210000     -1.9670220000     -0.0146220000
C                 -0.4050130000     -1.0263920000      0.0205320000
C                  0.9800000000     -1.4981920000      0.0193300000
O                  1.2683200000     -2.7209270000     -0.0121830000
C                  2.0113930000     -0.4585830000      0.0570980000
C                  3.3720380000     -0.8371680000      0.0583200000
C                  4.3788560000      0.1068470000      0.0931610000
C                  4.0533300000      1.4812890000      0.1284800000
C                  2.7304410000      1.8756360000      0.1280330000
C                  1.6824800000      0.9286340000      0.0927460000
C                  0.2953410000      1.3977130000      0.0938580000
O                  0.0067360000      2.6215600000      0.1253910000
C                 -0.7338660000      0.3584460000      0.0561340000
C                 -2.0961910000      0.7375030000      0.0549610000
H                 -5.0909410000     -0.1268730000     -0.8771170000
H                 -4.6637630000      1.3180140000      0.0502070000
H                 -5.1068680000     -0.1780000000      0.8843560000
H                 -3.5689050000     -2.3133510000     -0.0423690000
H                 -1.1869990000     -3.0163740000     -0.0414350000
H                  3.5915830000     -1.8984330000      0.0307560000
H                  5.4193740000     -0.2046800000      0.0934660000
H                  4.8441250000      2.2254210000      0.1559290000
H                  2.4517920000      2.9229190000      0.1547210000
H                 -2.3092710000      1.8010250000      0.0826960000
$end
$rem
MAX_SCF_CYCLES=200
BASIS  =  6-311++G(d,p)
GUI  =  2
JOB_TYPE  =  SP
METHOD  =  B3LYP
SOLVENT_METHOD = PCM
$end
$pcm
theory = CPCM
$end
$solvent
dielectric 37.219
opticaldielectric 1.43
$end

--------------------------------------------------------------

             Standard Nuclear Orientation (Angstroms)
    I     Atom           X                Y                Z
 ----------------------------------------------------------------
    1      C      -4.5694400000     0.2298380000     0.0195070000
    2      C      -3.1186740000    -0.1910530000     0.0204040000
    3      C      -2.7776570000    -1.5677950000    -0.0148770000
    4      C      -1.4582210000    -1.9670220000    -0.0146220000
    5      C      -0.4050130000    -1.0263920000     0.0205320000
    6      C       0.9800000000    -1.4981920000     0.0193300000
    7      O       1.2683200000    -2.7209270000    -0.0121830000
    8      C       2.0113930000    -0.4585830000     0.0570980000
    9      C       3.3720380000    -0.8371680000     0.0583200000
   10      C       4.3788560000     0.1068470000     0.0931610000
   11      C       4.0533300000     1.4812890000     0.1284800000
   12      C       2.7304410000     1.8756360000     0.1280330000
   13      C       1.6824800000     0.9286340000     0.0927460000
   14      C       0.2953410000     1.3977130000     0.0938580000
   15      O       0.0067360000     2.6215600000     0.1253910000
   16      C      -0.7338660000     0.3584460000     0.0561340000
   17      C      -2.0961910000     0.7375030000     0.0549610000
   18      H      -5.0909410000    -0.1268730000    -0.8771170000
   19      H      -4.6637630000     1.3180140000     0.0502070000
   20      H      -5.1068680000    -0.1780000000     0.8843560000
   21      H      -3.5689050000    -2.3133510000    -0.0423690000
   22      H      -1.1869990000    -3.0163740000    -0.0414350000
   23      H       3.5915830000    -1.8984330000     0.0307560000
   24      H       5.4193740000    -0.2046800000     0.0934660000
   25      H       4.8441250000     2.2254210000     0.1559290000
   26      H       2.4517920000     2.9229190000     0.1547210000
   27      H      -2.3092710000     1.8010250000     0.0826960000
 ----------------------------------------------------------------

    8    -728.4267996125      4.47e-06  Convergence criterion met
 Total energy in the final basis set =     -728.4267996125

                    Orbital Energies (a.u.)
 --------------------------------------------------------------

 Alpha MOs
 -- Occupied --
-19.0770 -19.0768 -10.2252 -10.2239 -10.1799 -10.1725 -10.1721 -10.1716
-10.1715 -10.1710 -10.1701 -10.1692 -10.1691 -10.1690 -10.1679 -10.1644
-10.1599  -1.0044  -1.0018  -0.8616  -0.8513  -0.7907  -0.7580  -0.7500
 -0.7423  -0.6933  -0.6604  -0.6305  -0.6048  -0.5849  -0.5553  -0.5296
 -0.5165  -0.4723  -0.4639  -0.4555  -0.4435  -0.4251  -0.4232  -0.4218
 -0.4148  -0.4117  -0.4114  -0.4000  -0.3817  -0.3761  -0.3685  -0.3607
 -0.3427  -0.3419  -0.3337  -0.3302  -0.2659  -0.2577  -0.2541  -0.2483
 -0.2423  -0.2384  -0.1418

 Beta MOs
 -- Occupied --
-19.0719 -19.0715 -10.2233 -10.2219 -10.1795 -10.1718 -10.1713 -10.1710
-10.1708 -10.1705 -10.1695 -10.1692 -10.1690 -10.1689 -10.1675 -10.1643
-10.1600  -0.9952  -0.9923  -0.8590  -0.8500  -0.7872  -0.7561  -0.7479
 -0.7405  -0.6911  -0.6538  -0.6288  -0.6024  -0.5843  -0.5528  -0.5274
 -0.5147  -0.4693  -0.4629  -0.4541  -0.4425  -0.4227  -0.4211  -0.4178
 -0.4108  -0.4086  -0.4041  -0.3977  -0.3755  -0.3674  -0.3587  -0.3568
 -0.3418  -0.3411  -0.3288  -0.3222  -0.2536  -0.2471  -0.2451  -0.2436
 -0.2365  -0.2337

          Ground-State Mulliken Net Atomic Charges

     Atom                 Charge (a.u.)    Spin (a.u.)
  --------------------------------------------------------
      1 C                    -0.406225      -0.002170
      2 C                     0.347906       0.034292
      3 C                    -0.441799       0.037679
      4 C                     0.087903       0.025962
      5 C                     0.187037       0.024099
      6 C                    -0.608349       0.106576
      7 O                    -0.482527       0.191700
      8 C                     0.119123       0.034230
      9 C                     0.104774       0.026174
     10 C                    -0.488568       0.041845
     11 C                    -0.481682       0.034554
     12 C                     0.028107       0.032083
     13 C                     0.341316       0.032943
     14 C                    -0.495726       0.117718
     15 O                    -0.484036       0.201082
     16 C                     0.119539       0.044273
     17 C                    -0.194373       0.028338
     18 H                     0.168059       0.002292
     19 H                     0.174293       0.000119
     20 H                     0.167905       0.002288
     21 H                     0.196902      -0.002961
     22 H                     0.170235      -0.001433
     23 H                     0.171377      -0.001303
     24 H                     0.196423      -0.003398
     25 H                     0.197698      -0.002961
     26 H                     0.168645      -0.001758
     27 H                     0.136043      -0.002262
  --------------------------------------------------------
  Sum of atomic charges =    -1.000000

                    Cartesian Multipole Moments
 -----------------------------------------------------------------
    Charge (ESU x 10^10)
                -4.8032
    Dipole Moment (Debye)
         X      -3.8342      Y       0.1945      Z      -0.2803
       Tot       3.8494
    Quadrupole Moments (Debye-Ang)
        XX     -95.2611     XY       9.6306     YY    -134.1910
        XZ       0.1611     YZ      -0.6881     ZZ    -106.1839

 Total job time:  182.10s(wall), 349.55s(cpu)
        *  Thank you very much for using Q-Chem.  Have a nice day.  *
