 Gaussian 16, Revision A.03,
 Gaussian 16:  ES64L-G16RevA.03 25-Dec-2016

 ----------------------------------------------------------------------
 #P UB3LYP/6-311++G(d,p) nosym opt freq SCRF=(PCM,Solvent=n,n-DiMethylF
 ormamide)
 ----------------------------------------------------------------------

 --------
 Oxidized
 --------
 Symbolic Z-matrix:
 Charge =  0 Multiplicity = 1

 SCF Done:  E(UB3LYP) =  -1529.91737504     A.U. after   17 cycles
 SCF Done:  E(UB3LYP) =  -1529.91745646     A.U. after   12 cycles
 SCF Done:  E(UB3LYP) =  -1529.91751356     A.U. after   12 cycles
 SCF Done:  E(UB3LYP) =  -1529.91748788     A.U. after   14 cycles
 SCF Done:  E(UB3LYP) =  -1529.91755235     A.U. after   13 cycles
 SCF Done:  E(UB3LYP) =  -1529.91755314     A.U. after   11 cycles
 SCF Done:  E(UB3LYP) =  -1529.91755338     A.U. after   10 cycles
 SCF Done:  E(UB3LYP) =  -1529.91755346     A.U. after   10 cycles
 SCF Done:  E(UB3LYP) =  -1529.91755350     A.U. after    9 cycles
 Optimization completed.
    -- Stationary point found.
 Normal termination of Gaussian 16 at Sat Feb 10 10:16:30 2024.

 ----------------------------------------------------------------------
 #P Geom=AllCheck Guess=TCheck SCRF=Check GenChk UB3LYP/6-311++G(d,p) F
 req
 ----------------------------------------------------------------------

 Structure from the checkpoint file:  "022.chk"
 --------
 Oxidized
 --------
 Charge =  0 Multiplicity = 1

                          Input orientation:
 ---------------------------------------------------------------------
 Center     Atomic      Atomic             Coordinates (Angstroms)
 Number     Number       Type             X           Y           Z
 ---------------------------------------------------------------------
      1          6           0       -3.813716    0.026084   -0.041454
      2          8           0       -2.637643    0.859933   -0.219277
      3          6           0       -1.381305    0.446710   -0.184577
      4          6           0       -0.389135    1.376550   -0.151093
      5         17           0       -0.770768    3.074351   -0.144549
      6          6           0        1.030286    1.028661   -0.125110
      7          8           0        1.911898    1.870073   -0.153196
      8          6           0        1.388780   -0.443693   -0.063500
      9          6           0        0.398872   -1.372799   -0.148771
     10         17           0        0.779640   -3.070789   -0.149161
     11          6           0       -1.016542   -1.023762   -0.252801
     12          8           0       -1.889914   -1.862507   -0.393429
     13          8           0        2.642836   -0.858420    0.012166
     14          6           0        3.800280   -0.030829    0.304347
     15          1           0       -3.717953   -0.592018    0.848534
     16          1           0       -4.620637    0.745070    0.078023
     17          1           0       -3.977090   -0.594704   -0.918518
     18          1           0        4.031798    0.613421   -0.539798
     19          1           0        3.634569    0.562712    1.200884
     20          1           0        4.595742   -0.754040    0.467182
 ---------------------------------------------------------------------

 SCF Done:  E(UB3LYP) =  -1529.91755350     A.U. after    1 cycles

 Alpha  occ. eigenvalues -- -101.57354-101.57352 -19.19820 -19.19812 -19.15147
 Alpha  occ. eigenvalues --  -19.15139 -10.30903 -10.30892 -10.29606 -10.29598
 Alpha  occ. eigenvalues --  -10.25811 -10.25802 -10.23660 -10.23656  -9.48789
 Alpha  occ. eigenvalues --   -9.48787  -7.25277  -7.25275  -7.24281  -7.24279
 Alpha  occ. eigenvalues --   -7.24202  -7.24199  -1.11966  -1.11706  -1.08279
 Alpha  occ. eigenvalues --   -1.08183  -0.91215  -0.89590  -0.83721  -0.79345
 Alpha  occ. eigenvalues --   -0.74930  -0.72502  -0.69400  -0.62876  -0.62091
 Alpha  occ. eigenvalues --   -0.58014  -0.55575  -0.54137  -0.50980  -0.49555
 Alpha  occ. eigenvalues --   -0.48824  -0.48398  -0.47469  -0.46692  -0.45361
 Alpha  occ. eigenvalues --   -0.44870  -0.43756  -0.42569  -0.40332  -0.39003
 Alpha  occ. eigenvalues --   -0.38230  -0.38072  -0.35715  -0.35460  -0.33561
 Alpha  occ. eigenvalues --   -0.33046  -0.29977  -0.29911  -0.27964  -0.25164
 Alpha virt. eigenvalues --   -0.14044  -0.02660  -0.02216  -0.01067   0.00056
 Alpha virt. eigenvalues --    0.00308   0.00635   0.02418   0.02520   0.03135
 Alpha virt. eigenvalues --    0.03259   0.03748   0.04139   0.05142   0.05243

  Beta  occ. eigenvalues -- -101.57354-101.57352 -19.19820 -19.19812 -19.15147
  Beta  occ. eigenvalues --  -19.15139 -10.30903 -10.30892 -10.29606 -10.29598
  Beta  occ. eigenvalues --  -10.25811 -10.25802 -10.23660 -10.23656  -9.48789
  Beta  occ. eigenvalues --   -9.48787  -7.25277  -7.25275  -7.24281  -7.24279
  Beta  occ. eigenvalues --   -7.24202  -7.24199  -1.11966  -1.11706  -1.08279
  Beta  occ. eigenvalues --   -1.08183  -0.91215  -0.89590  -0.83721  -0.79345
  Beta  occ. eigenvalues --   -0.74930  -0.72502  -0.69400  -0.62876  -0.62091
  Beta  occ. eigenvalues --   -0.58014  -0.55575  -0.54137  -0.50980  -0.49555
  Beta  occ. eigenvalues --   -0.48824  -0.48398  -0.47469  -0.46692  -0.45361
  Beta  occ. eigenvalues --   -0.44870  -0.43756  -0.42569  -0.40332  -0.39003
  Beta  occ. eigenvalues --   -0.38230  -0.38072  -0.35715  -0.35460  -0.33561
  Beta  occ. eigenvalues --   -0.33046  -0.29977  -0.29911  -0.27964  -0.25164
  Beta virt. eigenvalues --   -0.14044  -0.02660  -0.02216  -0.01067   0.00056
  Beta virt. eigenvalues --    0.00308   0.00635   0.02418   0.02520   0.03135
  Beta virt. eigenvalues --    0.03259   0.03748   0.04139   0.05142   0.05243

 Mulliken charges and spin densities:
               1          2
     1  C   -0.253747  -0.000000
     2  O   -0.149859   0.000000
     3  C   -1.341669  -0.000000
     4  C    1.690787   0.000000
     5  Cl   0.279498  -0.000000
     6  C   -0.561200  -0.000000
     7  O   -0.245323   0.000000
     8  C   -1.335800  -0.000000
     9  C    1.698534   0.000000
    10  Cl   0.278814  -0.000000
    11  C   -0.559419  -0.000000
    12  O   -0.245180   0.000000
    13  O   -0.151419   0.000000
    14  C   -0.251752  -0.000000
    15  H    0.189987  -0.000000
    16  H    0.182457   0.000000
    17  H    0.200933  -0.000000
    18  H    0.200679   0.000000
    19  H    0.190522   0.000000
    20  H    0.183158   0.000000
 Sum of Mulliken charges =  -0.00000   0.00000

 Dipole moment (field-independent basis, Debye):
    X=             -0.0426    Y=             -0.0116    Z=              1.2386  Tot=              1.2393
 Quadrupole moment (field-independent basis, Debye-Ang):
   XX=            -73.2789   YY=           -113.3306   ZZ=            -92.0361
   XY=             -3.3557   XZ=              0.6990   YZ=             -0.4681

  Exact polarizability: 256.533  41.386 231.460   8.009   3.745 101.151
 Approx polarizability: 316.883  82.929 272.942  10.853   6.125 116.917

                      1                      2                      3
                      A                      A                      A
 Frequencies --      9.6083                31.4646                58.9625
 Red. masses --      3.4794                 4.2772                10.6199
 Frc consts  --      0.0002                 0.0025                 0.0218
 IR Inten    --     19.3054                 3.9919                 0.0149

                      4                      5                      6
                      A                      A                      A
 Frequencies --     85.6916               105.7337               184.0779
 Red. masses --      6.5556                 5.8626                 9.2750
 Frc consts  --      0.0284                 0.0386                 0.1852
 IR Inten    --      2.4838                 5.1685                13.9788

                      7                      8                      9
                      A                      A                      A
 Frequencies --    191.0800               199.8255               210.6982
 Red. masses --      6.9715                 8.3161                 5.3951
 Frc consts  --      0.1500                 0.1956                 0.1411
 IR Inten    --      0.7987                 3.8709                 6.9705

                     10                     11                     12
                      A                      A                      A
 Frequencies --    227.2267               228.4434               279.2742
 Red. masses --      1.1095                 1.1094                10.8582
 Frc consts  --      0.0338                 0.0341                 0.4990
 IR Inten    --      0.1536                 0.5914                 0.0526

                     13                     14                     15
                      A                      A                      A
 Frequencies --    288.5184               323.4121               355.1638
 Red. masses --      9.9136                 5.8186                11.5327
 Frc consts  --      0.4862                 0.3586                 0.8571
 IR Inten    --      1.2544                 0.1941                 0.0070

                     16                     17                     18
                      A                      A                      A
 Frequencies --    381.2759               413.1454               414.6779
 Red. masses --     14.8017                 4.7575                 6.6447
 Frc consts  --      1.2678                 0.4784                 0.6732
 IR Inten    --     12.9242                24.0579                 0.7482

                     19                     20                     21
                      A                      A                      A
 Frequencies --    493.6194               506.2605               514.3603
 Red. masses --     11.5637                11.2228                12.1430
 Frc consts  --      1.6601                 1.6947                 1.8928
 IR Inten    --      0.3438                 0.0087                17.8558

                     22                     23                     24
                      A                      A                      A
 Frequencies --    586.0571               749.0008               770.8802
 Red. masses --     11.9419                12.1639                12.1046
 Frc consts  --      2.4166                 4.0206                 4.2381
 IR Inten    --     24.1140                 6.5616                10.4352

                     25                     26                     27
                      A                      A                      A
 Frequencies --    793.6318               809.8515               857.5937
 Red. masses --      9.6036                 9.0674                11.1050
 Frc consts  --      3.5639                 3.5038                 4.8121
 IR Inten    --      2.1973               377.9479                 0.6807

                     28                     29                     30
                      A                      A                      A
 Frequencies --    906.4579               966.6858              1067.4094
 Red. masses --     10.3466                10.4479                12.5664
 Frc consts  --      5.0089                 5.7524                 8.4357
 IR Inten    --    102.2997                 2.9397               263.7342

                     31                     32                     33
                      A                      A                      A
 Frequencies --   1157.2301              1157.7080              1176.6253
 Red. masses --      1.2440                 1.2455                 1.7825
 Frc consts  --      0.9816                 0.9835                 1.4539
 IR Inten    --      1.8889                 0.5227               360.3671

                     34                     35                     36
                      A                      A                      A
 Frequencies --   1184.8072              1226.5663              1264.8889
 Red. masses --      1.4054                 3.5083                10.6567
 Frc consts  --      1.1624                 3.1098                10.0456
 IR Inten    --      0.1953              1139.6925                 0.1522

                     37                     38                     39
                      A                      A                      A
 Frequencies --   1302.1942              1355.4457              1469.9694
 Red. masses --      5.2607                 6.4262                 1.1138
 Frc consts  --      5.2558                 6.9562                 1.4180
 IR Inten    --      4.4947               707.6116                92.7117

                     40                     41                     42
                      A                      A                      A
 Frequencies --   1472.2157              1480.6553              1480.8282
 Red. masses --      1.0819                 1.0499                 1.0491
 Frc consts  --      1.3816                 1.3561                 1.3554
 IR Inten    --      3.9640                23.1232                24.8635

                     43                     44                     45
                      A                      A                      A
 Frequencies --   1486.0568              1487.0700              1587.2079
 Red. masses --      1.1938                 1.2066                 8.6379
 Frc consts  --      1.5532                 1.5721                12.8211
 IR Inten    --     44.2738                 0.8858              1466.2657

                     46                     47                     48
                      A                      A                      A
 Frequencies --   1632.0698              1696.3080              1700.1122
 Red. masses --      9.6337                12.5082                13.0086
 Frc consts  --     15.1190                21.2057                22.1532
 IR Inten    --      2.0723               863.4000                 3.6267

                     49                     50                     51
                      A                      A                      A
 Frequencies --   3070.9929              3071.2434              3163.0312
 Red. masses --      1.0271                 1.0271                 1.1090
 Frc consts  --      5.7071                 5.7079                 6.5371
 IR Inten    --     57.9399                29.4009                21.5387

                     52                     53                     54
                      A                      A                      A
 Frequencies --   3163.5047              3168.2466              3168.5703
 Red. masses --      1.1090                 1.1092                 1.1092
 Frc consts  --      6.5394                 6.5596                 6.5611
 IR Inten    --     21.4692                17.0215                16.3633

 - Thermochemistry -
 -------------------
 Temperature   298.150 Kelvin.  Pressure   1.00000 Atm.
 Atom     1 has atomic number  6 and mass  12.00000

 Molecular mass:   235.96431 amu.
 Principal axes and moments of inertia in atomic units:
                           1         2         3
     Eigenvalues --  2739.901673664.161076359.95343
           X            0.75193   0.65756  -0.04710
           Y           -0.65870   0.75229  -0.01310
           Z            0.02682   0.04088   0.99880
 This molecule is an asymmetric top.
 Rotational symmetry number  1.
 Warning -- assumption of classical behavior for rotation
           may cause significant error
 Rotational temperatures (Kelvin)      0.03161     0.02364     0.01362
 Rotational constants (GHZ):           0.65869     0.49254     0.28377
 Zero-point vibrational energy     341735.0 (Joules/Mol)
                                   81.67663 (Kcal/Mol)
 Warning -- explicit consideration of  22 degrees of freedom as
           vibrations may cause significant error
 Vibrational temperatures:     13.82    45.27    84.83   123.29   152.13
          (Kelvin)            264.85   274.92   287.50   303.15   326.93
                              328.68   401.81   415.11   465.32   511.00
                              548.57   594.42   596.63   710.21   728.40
                              740.05   843.21  1077.65  1109.12  1141.86
                             1165.20  1233.89  1304.19  1390.85  1535.76
                             1665.00  1665.68  1692.90  1704.67  1764.76
                             1819.89  1873.57  1950.18  2114.96  2118.19
                             2130.33  2130.58  2138.10  2139.56  2283.64
                             2348.18  2440.61  2446.08  4418.47  4418.83
                             4550.90  4551.58  4558.40  4558.87

 Zero-point correction=                           0.130160 (Hartree/Particle)
 Thermal correction to Energy=                    0.144464
 Thermal correction to Enthalpy=                  0.145408
 Thermal correction to Gibbs Free Energy=         0.085920
 Sum of electronic and zero-point Energies=          -1529.787393
 Sum of electronic and thermal Energies=             -1529.773090
 Sum of electronic and thermal Enthalpies=           -1529.772146
 Sum of electronic and thermal Free Energies=        -1529.831634

                     E (Thermal)             CV                S
                      KCal/Mol        Cal/Mol-Kelvin    Cal/Mol-Kelvin
 Total                   90.652             49.254            125.203
 Electronic               0.000              0.000              0.000
 Translational            0.889              2.981             42.277
 Rotational               0.889              2.981             32.524
 Vibrational             88.875             43.292             50.402
 Vibration     1          0.593              1.987              8.090
 Vibration     2          0.594              1.983              5.735
 Vibration     3          0.596              1.974              4.492
 Vibration     4          0.601              1.959              3.756
 Vibration     5          0.605              1.945              3.346
 Vibration     6          0.631              1.862              2.287
 Vibration     7          0.634              1.852              2.217
 Vibration     8          0.638              1.840              2.135
 Vibration     9          0.643              1.825              2.038
 Vibration    10          0.651              1.800              1.901
 Vibration    11          0.651              1.798              1.891
 Vibration    12          0.680              1.712              1.538
 Vibration    13          0.685              1.695              1.483
 Vibration    14          0.708              1.629              1.293
 Vibration    15          0.731              1.565              1.143
 Vibration    16          0.751              1.510              1.034
 Vibration    17          0.777              1.442              0.916
 Vibration    18          0.778              1.438              0.910
 Vibration    19          0.849              1.264              0.674
 Vibration    20          0.861              1.236              0.643
 Vibration    21          0.869              1.218              0.623
 Vibration    22          0.943              1.062              0.474

                           ! Non-Optimized Parameters !
 Normal termination of Gaussian 16 at Sat Feb 10 10:29:17 2024.
