 Q-Chem 5.4, Q-Chem, Inc., Pleasanton, CA (2021)
 Q-Chem 5.4.0 for Intel X86 EM64T Linux

User input:
--------------------------------------------------------------
$molecule
-1 2
C                  0.4910750000      1.7038820000     -2.0313420000
C                 -0.8688580000      2.0133190000     -2.4762580000
C                 -1.8160840000      1.0636980000     -2.6804860000
C                 -1.5477590000     -0.3557040000     -2.4691550000
C                 -0.2177680000     -0.6709090000     -2.0315000000
C                  0.7745180000      0.2828990000     -1.8129320000
O                  1.3214130000      2.6256750000     -1.8638870000
O                 -2.4362670000     -1.2316910000     -2.6625120000
C                  3.2431310000      0.7550670000     -1.0801460000
C                  4.1706580000      1.0368820000     -2.0952660000
C                  3.4436150000      1.2283100000      0.2260060000
C                  4.5812920000      1.9910410000      0.5013120000
C                  5.2982380000      1.8018000000     -1.7871340000
C                  5.5077800000      2.2792000000     -0.4965600000
H                 -1.0767490000      3.0674970000     -2.6364180000
H                 -2.8177880000      1.3247720000     -3.0116680000
H                  0.0187610000     -1.7154580000     -1.8630920000
H                  4.7372070000      2.3645220000      1.5093800000
H                  6.0154250000      2.0274420000     -2.5711760000
H                  6.3875710000      2.8733270000     -0.2700350000
C                  2.0924720000     -0.1978490000     -1.3609980000
O                  2.3270080000     -1.3959420000     -1.1857460000
C                  2.4332870000      0.9460370000      1.3126820000
H                  2.2483430000     -0.1264880000      1.4181690000
H                  1.4744430000      1.4206260000      1.0816490000
H                  2.7790220000      1.3312500000      2.2753760000
C                  3.9405620000      0.5512470000     -3.5066560000
H                  3.0463960000      1.0168090000     -3.9329550000
H                  3.7909540000     -0.5314450000     -3.5383700000
H                  4.7905720000      0.7994050000     -4.1474600000
$end
$rem
MAX_SCF_CYCLES=200
BASIS  =  6-311++G(d,p)
GUI  =  2
JOB_TYPE  =  SP
METHOD  =  B3LYP
SOLVENT_METHOD = COSMO
$end
$solvent
dielectric 37.219
opticaldielectric 1.43
$end

--------------------------------------------------------------

             Standard Nuclear Orientation (Angstroms)
    I     Atom           X                Y                Z
 ----------------------------------------------------------------
    1      C       1.1719271501    -0.0922185307     1.2177995589
    2      C       2.4894364664    -0.1295520094     1.8548982023
    3      C       3.6519036692    -0.0756038172     1.1574128550
    4      C       3.6772319590     0.0253148101    -0.2987928459
    5      C       2.3909971235     0.0640265902    -0.9343032684
    6      C       1.1815965964     0.0111952059    -0.2438596522
    7      O       0.1350727767    -0.1489670999     1.9170257843
    8      O       4.7646574431     0.0744740805    -0.9385395163
    9      C      -1.4323275133     0.0261641657    -0.3892720471
   10      C      -2.0902542611    -1.2040746981    -0.2348719920
   11      C      -2.0834930373     1.2311290871    -0.0823049205
   12      C      -3.3991620076     1.1881844037     0.3857034589
   13      C      -3.4058777984    -1.2126438127     0.2347478659
   14      C      -4.0622674244    -0.0251006940     0.5450603843
   15      H       2.4795299631    -0.2051497626     2.9385715802
   16      H       4.6155187430    -0.1058170506     1.6591948836
   17      H       2.3696743178     0.1396316379    -2.0156075967
   18      H      -3.9047605660     2.1179748727     0.6303632609
   19      H      -3.9166541124    -2.1629146629     0.3615793732
   20      H      -5.0843915713    -0.0451633108     0.9100157120
   21      C      -0.0584205183     0.0639589668    -1.0388057301
   22      O      -0.0437104529     0.1438706726    -2.2694742349
   23      C      -1.3674758228     2.5533595499    -0.2248931215
   24      H      -0.9716693969     2.6870271964    -1.2353939376
   25      H      -0.5210341683     2.6110358445     0.4666289337
   26      H      -2.0408168434     3.3862807674    -0.0068206594
   27      C      -1.3800940839    -2.5018543602    -0.5385950992
   28      H      -0.5391671360    -2.6498910247     0.1461958639
   29      H      -0.9778255973    -2.5099458265    -1.5553177217
   30      H      -2.0588847524    -3.3517990505    -0.4310478481
 ----------------------------------------------------------------

    9    -804.7709545544      7.37e-06  Convergence criterion met
 Total energy in the final basis set =     -804.7709545544
    4    -804.8553285514      7.78e-06  Convergence criterion met
 Total energy in the final basis set =     -804.8553285514

                    Orbital Energies (a.u.)
 --------------------------------------------------------------

 Alpha MOs
 -- Occupied --
-19.1121 -19.0935 -19.0912 -10.2625 -10.2408 -10.2327 -10.1809 -10.1808
-10.1796 -10.1777 -10.1773 -10.1763 -10.1755 -10.1690 -10.1659 -10.1658
-10.1597 -10.1596  -1.0425  -1.0175  -1.0136  -0.8618  -0.8345  -0.7812
 -0.7727  -0.7583  -0.7050  -0.6914  -0.6772  -0.6441  -0.6023  -0.5896
 -0.5724  -0.5406  -0.4985  -0.4838  -0.4796  -0.4775  -0.4604  -0.4417
 -0.4337  -0.4240  -0.4200  -0.4178  -0.4139  -0.4122  -0.4015  -0.3985
 -0.3923  -0.3901  -0.3799  -0.3706  -0.3696  -0.3495  -0.3436  -0.3360
 -0.2936  -0.2749  -0.2720  -0.2579  -0.2484  -0.2413  -0.2314  -0.1795

 Beta MOs
 -- Occupied --
-19.1112 -19.0859 -19.0857 -10.2622 -10.2402 -10.2317 -10.1809 -10.1808
-10.1787 -10.1775 -10.1763 -10.1745 -10.1742 -10.1690 -10.1658 -10.1658
-10.1597 -10.1596  -1.0408  -1.0080  -1.0004  -0.8617  -0.8283  -0.7811
 -0.7713  -0.7565  -0.7007  -0.6851  -0.6771  -0.6413  -0.6005  -0.5859
 -0.5723  -0.5389  -0.4963  -0.4816  -0.4789  -0.4746  -0.4586  -0.4402
 -0.4319  -0.4197  -0.4147  -0.4125  -0.4110  -0.4084  -0.4010  -0.3983
 -0.3867  -0.3781  -0.3692  -0.3683  -0.3598  -0.3494  -0.3435  -0.3355
 -0.2728  -0.2656  -0.2591  -0.2518  -0.2455  -0.2412  -0.2292

          Ground-State Mulliken Net Atomic Charges

     Atom                 Charge (a.u.)    Spin (a.u.)
  --------------------------------------------------------
      1 C                    -0.944329       0.007419
      2 C                    -0.248805       0.101403
      3 C                    -0.035651      -0.000466
      4 C                    -0.498051       0.132497
      5 C                    -0.203052       0.127652
      6 C                     1.079012       0.117908
      7 O                    -0.310078       0.203852
      8 O                    -0.509497       0.262440
      9 C                     0.894391      -0.018040
     10 C                     0.237651       0.003123
     11 C                     0.242095       0.003158
     12 C                    -0.345787       0.000955
     13 C                    -0.340610       0.001262
     14 C                    -0.329207      -0.001441
     15 H                     0.223102      -0.006439
     16 H                     0.223594      -0.002039
     17 H                     0.232547      -0.016536
     18 H                     0.176141       0.000046
     19 H                     0.175767       0.000063
     20 H                     0.207311       0.000028
     21 C                    -0.492816       0.047019
     22 O                    -0.336151       0.033845
     23 C                    -0.585800       0.001032
     24 H                     0.184066      -0.000216
     25 H                     0.181321       0.000317
     26 H                     0.168305       0.000079
     27 C                    -0.579875       0.001059
     28 H                     0.182633       0.000174
     29 H                     0.183227      -0.000244
     30 H                     0.168547       0.000092
  --------------------------------------------------------
  Sum of atomic charges =    -1.000000

                    Cartesian Multipole Moments
 -----------------------------------------------------------------
    Charge (ESU x 10^10)
                -4.8032
    Dipole Moment (Debye)
         X      -8.9990      Y      -0.1911      Z       3.2664
       Tot       9.5753
    Quadrupole Moments (Debye-Ang)
        XX    -157.7066     XY      -1.0258     YY    -101.7064
        XZ      13.1625     YZ       1.9089     ZZ    -129.6275

 Total job time:  92.18s(wall), 693.14s(cpu)
        *  Thank you very much for using Q-Chem.  Have a nice day.  *
