 Gaussian 16, Revision A.03,
 Gaussian 16:  ES64L-G16RevA.03 25-Dec-2016

 --------------------------------------
 #P UB3LYP/6-311++G(d,p) nosym opt freq
 --------------------------------------

 -------
 Radical
 -------
 Symbolic Z-matrix:
 Charge = -1 Multiplicity = 2

 SCF Done:  E(UB3LYP) =  -804.770959824     A.U. after   22 cycles
 Optimization completed.
    -- Stationary point found.
 Normal termination of Gaussian 16 at Wed Jan 10 04:58:07 2024.

 ----------------------------------------------------------------------
 #P Geom=AllCheck Guess=TCheck SCRF=Check GenChk UB3LYP/6-311++G(d,p) F
 req
 ----------------------------------------------------------------------

 Structure from the checkpoint file:  "078-rad.chk"
 -------
 Radical
 -------
 Charge = -1 Multiplicity = 2

                          Input orientation:
 ---------------------------------------------------------------------
 Center     Atomic      Atomic             Coordinates (Angstroms)
 Number     Number       Type             X           Y           Z
 ---------------------------------------------------------------------
      1          6           0        0.491075    1.703882   -2.031342
      2          6           0       -0.868858    2.013319   -2.476258
      3          6           0       -1.816084    1.063698   -2.680486
      4          6           0       -1.547759   -0.355704   -2.469155
      5          6           0       -0.217768   -0.670909   -2.031500
      6          6           0        0.774518    0.282899   -1.812932
      7          8           0        1.321413    2.625675   -1.863887
      8          8           0       -2.436267   -1.231691   -2.662512
      9          6           0        3.243131    0.755067   -1.080146
     10          6           0        4.170658    1.036882   -2.095266
     11          6           0        3.443615    1.228310    0.226006
     12          6           0        4.581292    1.991041    0.501312
     13          6           0        5.298238    1.801800   -1.787134
     14          6           0        5.507780    2.279200   -0.496560
     15          1           0       -1.076749    3.067497   -2.636418
     16          1           0       -2.817788    1.324772   -3.011668
     17          1           0        0.018761   -1.715458   -1.863092
     18          1           0        4.737207    2.364522    1.509380
     19          1           0        6.015425    2.027442   -2.571176
     20          1           0        6.387571    2.873327   -0.270035
     21          6           0        2.092472   -0.197849   -1.360998
     22          8           0        2.327008   -1.395942   -1.185746
     23          6           0        2.433287    0.946037    1.312682
     24          1           0        2.248343   -0.126488    1.418169
     25          1           0        1.474443    1.420626    1.081649
     26          1           0        2.779022    1.331250    2.275376
     27          6           0        3.940562    0.551247   -3.506656
     28          1           0        3.046396    1.016809   -3.932955
     29          1           0        3.790954   -0.531445   -3.538370
     30          1           0        4.790572    0.799405   -4.147460
 ---------------------------------------------------------------------

 SCF Done:  E(UB3LYP) =  -804.770959824     A.U. after    1 cycles

 Alpha  occ. eigenvalues --  -18.98396 -18.95857 -18.95683 -10.13660 -10.11118
 Alpha  occ. eigenvalues --  -10.09932 -10.07750 -10.07742 -10.07102 -10.06978
 Alpha  occ. eigenvalues --  -10.06735 -10.06728 -10.06286 -10.06263 -10.05577
 Alpha  occ. eigenvalues --  -10.05307 -10.05127 -10.04847  -0.91459  -0.88521
 Alpha  occ. eigenvalues --   -0.87617  -0.75791  -0.70719  -0.68016  -0.66448
 Alpha  occ. eigenvalues --   -0.63911  -0.59669  -0.57873  -0.56952  -0.52707
 Alpha  occ. eigenvalues --   -0.49037  -0.47229  -0.46351  -0.42889  -0.38456
 Alpha  occ. eigenvalues --   -0.37728  -0.36151  -0.35071  -0.34408  -0.32631
 Alpha  occ. eigenvalues --   -0.31570  -0.31222  -0.31179  -0.30718  -0.30420
 Alpha  occ. eigenvalues --   -0.29760  -0.29460  -0.28174  -0.27411  -0.26228
 Alpha  occ. eigenvalues --   -0.26098  -0.25128  -0.24760  -0.24417  -0.23952
 Alpha  occ. eigenvalues --   -0.23437  -0.16205  -0.15470  -0.14654  -0.13826
 Alpha  occ. eigenvalues --   -0.12699  -0.11778  -0.10919  -0.04760
 Alpha virt. eigenvalues --    0.05774   0.07217   0.08410   0.09022   0.09188
 Alpha virt. eigenvalues --    0.09479   0.09689   0.10798   0.11489   0.11914
 Alpha virt. eigenvalues --    0.12938   0.12988   0.13357   0.13781   0.14419

  Beta  occ. eigenvalues --  -18.98302 -18.95308 -18.94846 -10.13623 -10.11072
  Beta  occ. eigenvalues --  -10.09883 -10.07748 -10.07741 -10.07103 -10.06982
  Beta  occ. eigenvalues --  -10.06735 -10.06727 -10.06286 -10.06263 -10.05552
  Beta  occ. eigenvalues --  -10.05217 -10.05060 -10.04517  -0.91283  -0.87590
  Beta  occ. eigenvalues --   -0.86161  -0.75784  -0.70119  -0.68014  -0.66409
  Beta  occ. eigenvalues --   -0.63631  -0.59596  -0.57871  -0.56022  -0.52478
  Beta  occ. eigenvalues --   -0.48820  -0.47221  -0.45998  -0.42756  -0.38307
  Beta  occ. eigenvalues --   -0.37689  -0.35984  -0.34699  -0.34267  -0.32574
  Beta  occ. eigenvalues --   -0.31473  -0.31144  -0.31101  -0.30665  -0.30401
  Beta  occ. eigenvalues --   -0.29679  -0.28315  -0.27493  -0.27260  -0.25703
  Beta  occ. eigenvalues --   -0.25318  -0.24734  -0.24251  -0.23822  -0.23280
  Beta  occ. eigenvalues --   -0.22576  -0.15333  -0.13960  -0.13838  -0.12596
  Beta  occ. eigenvalues --   -0.12578  -0.11073  -0.10451
  Beta virt. eigenvalues --    0.02311   0.07195   0.07216   0.08417   0.09023
  Beta virt. eigenvalues --    0.09194   0.09496   0.09697   0.10802   0.11498
  Beta virt. eigenvalues --    0.11928   0.12943   0.13369   0.13468   0.14024

 Mulliken charges and spin densities:
               1          2
     1  C   -1.112727  -0.004836
     2  C   -0.128388   0.091863
     3  C    0.085460   0.015402
     4  C   -0.732864   0.086860
     5  C   -0.129878   0.155495
     6  C    1.195166   0.100950
     7  O   -0.210508   0.204844
     8  O   -0.381087   0.300009
     9  C    0.913768  -0.018028
    10  C    0.325853   0.003773
    11  C    0.328832   0.003968
    12  C   -0.289906   0.000465
    13  C   -0.285147   0.000844
    14  C   -0.263107  -0.002050
    15  H    0.164155  -0.006508
    16  H    0.161905  -0.002913
    17  H    0.222234  -0.017859
    18  H    0.103764   0.000087
    19  H    0.103645   0.000115
    20  H    0.134958   0.000038
    21  C   -0.685880   0.048201
    22  O   -0.249728   0.036176
    23  C   -0.613870   0.001165
    24  H    0.174947   0.000075
    25  H    0.178152   0.000275
    26  H    0.122642   0.000052
    27  C   -0.609598   0.001341
    28  H    0.180237   0.000083
    29  H    0.174184   0.000047
    30  H    0.122788   0.000063
 Sum of Mulliken charges =  -1.00000   1.00000

 Dipole moment (field-independent basis, Debye):
    X=             -2.6586    Y=             -0.2282    Z=              8.9306  Tot=              9.3207
 Quadrupole moment (field-independent basis, Debye-Ang):
   XX=           -145.7108   YY=           -132.6780   ZZ=           -126.1129
   XY=            -11.6287   XZ=             -5.7441   YZ=             -0.7726

  Exact polarizability: 276.497  36.471 190.897  31.897   8.472 172.327
 Approx polarizability: 389.174  64.866 346.916  36.219  11.048 262.946

                      1                      2                      3
                      A                      A                      A
 Frequencies --      6.4708                19.0789                65.5371
 Red. masses --      7.9140                 4.4735                 4.4687
 Frc consts  --      0.0002                 0.0010                 0.0113
 IR Inten    --      0.1715                 0.0919                 0.0377

                      4                      5                      6
                      A                      A                      A
 Frequencies --     86.5602               105.8107               112.5563
 Red. masses --      6.1269                 1.6548                 1.0882
 Frc consts  --      0.0270                 0.0109                 0.0081
 IR Inten    --      4.0113                 4.2587                 0.3558

                      7                      8                      9
                      A                      A                      A
 Frequencies --    131.1376               141.3602               173.7828
 Red. masses --      1.5977                 6.9353                 5.1523
 Frc consts  --      0.0162                 0.0817                 0.0917
 IR Inten    --      2.0948                 9.1426                 0.1453

                     10                     11                     12
                      A                      A                      A
 Frequencies --    197.2310               229.3107               239.9254
 Red. masses --      6.9183                 2.8372                 4.5867
 Frc consts  --      0.1586                 0.0879                 0.1556
 IR Inten    --      0.0281                 0.0041                10.4998

                     13                     14                     15
                      A                      A                      A
 Frequencies --    307.5514               312.8625               348.7367
 Red. masses --      5.4099                 3.4012                 9.3627
 Frc consts  --      0.3015                 0.1962                 0.6709
 IR Inten    --      0.4452                 0.0561                 0.1320

                     16                     17                     18
                      A                      A                      A
 Frequencies --    400.7475               401.9623               431.0472
 Red. masses --      5.0974                 3.5987                 7.6724
 Frc consts  --      0.4823                 0.3426                 0.8399
 IR Inten    --      8.6491                 0.3878                 5.0741

                     19                     20                     21
                      A                      A                      A
 Frequencies --    442.6985               476.4032               514.8477
 Red. masses --      2.9202                10.7821                 3.1570
 Frc consts  --      0.3372                 1.4418                 0.4930
 IR Inten    --      0.9028                 2.0387                 0.2844

                     22                     23                     24
                      A                      A                      A
 Frequencies --    531.6617               541.2435               569.0802
 Red. masses --      4.9526                 4.9456                 2.5362
 Frc consts  --      0.8248                 0.8536                 0.4839
 IR Inten    --      0.0004                18.0786                 5.5436

                     25                     26                     27
                      A                      A                      A
 Frequencies --    573.5557               625.6845               648.9617
 Red. masses --      4.8252                 4.4179                 6.5204
 Frc consts  --      0.9352                 1.0190                 1.6179
 IR Inten    --      3.1226                 0.0220                 7.2578

                     28                     29                     30
                      A                      A                      A
 Frequencies --    740.3661               744.6875               760.6425
 Red. masses --      4.0725                 5.4466                 1.3343
 Frc consts  --      1.3152                 1.7796                 0.4549
 IR Inten    --     45.4955                 0.5161                36.5294

                     31                     32                     33
                      A                      A                      A
 Frequencies --    770.8494               781.2981               817.5672
 Red. masses --      3.1659                 5.4755                 5.5453
 Frc consts  --      1.1084                 1.9693                 2.1838
 IR Inten    --      0.6677                 1.7448                41.9789

                     34                     35                     36
                      A                      A                      A
 Frequencies --    842.2863               848.9101               882.0489
 Red. masses --      2.2600                 6.9458                 1.3158
 Frc consts  --      0.9447                 2.9492                 0.6032
 IR Inten    --     29.9316                 2.2606                 0.0249

                     37                     38                     39
                      A                      A                      A
 Frequencies --    902.1928               931.3509               952.2951
 Red. masses --      1.6302                 2.6160                 1.3095
 Frc consts  --      0.7818                 1.3369                 0.6997
 IR Inten    --     15.8937                 5.1343                 5.7917

                     40                     41                     42
                      A                      A                      A
 Frequencies --    968.0251               980.2361              1010.6458
 Red. masses --      2.8460                 1.2729                 1.5854
 Frc consts  --      1.5713                 0.7206                 0.9541
 IR Inten    --     77.6851                 0.1186                 0.5758

                     43                     44                     45
                      A                      A                      A
 Frequencies --   1052.6508              1054.8086              1057.1787
 Red. masses --      1.6984                 1.6931                 1.5909
 Frc consts  --      1.1088                 1.1099                 1.0476
 IR Inten    --      2.9407                 1.4136                 0.0281

                     46                     47                     48
                      A                      A                      A
 Frequencies --   1067.2676              1108.3365              1136.3357
 Red. masses --      2.9861                 1.7494                 1.5085
 Frc consts  --      2.0040                 1.2661                 1.1476
 IR Inten    --     42.5951                 9.9380                76.6739

                     49                     50                     51
                      A                      A                      A
 Frequencies --   1180.9847              1195.3010              1244.8828
 Red. masses --      1.2107                 2.0349                 2.0134
 Frc consts  --      0.9949                 1.7130                 1.8384
 IR Inten    --      0.4083                21.0039               152.9876

                     52                     53                     54
                      A                      A                      A
 Frequencies --   1266.1962              1270.3384              1287.1953
 Red. masses --      3.8994                 1.6700                 5.2111
 Frc consts  --      3.6834                 1.5878                 5.0870
 IR Inten    --      2.7766                 1.1199                32.8555

                     55                     56                     57
                      A                      A                      A
 Frequencies --   1318.7950              1345.4828              1405.9707
 Red. masses --      6.4729                 2.5104                 1.2464
 Frc consts  --      6.6329                 2.6777                 1.4516
 IR Inten    --      0.2867                 6.5713                 3.7910

                     58                     59                     60
                      A                      A                      A
 Frequencies --   1407.7664              1415.3400              1451.8473
 Red. masses --      1.2687                 4.0580                 4.5497
 Frc consts  --      1.4814                 4.7894                 5.6504
 IR Inten    --      3.4556                98.4572               394.4031

                     61                     62                     63
                      A                      A                      A
 Frequencies --   1459.8181              1482.1521              1484.0972
 Red. masses --      2.4761                 1.6492                 1.0703
 Frc consts  --      3.1090                 2.1346                 1.3889
 IR Inten    --      4.9233                 1.2397                18.4852

                     64                     65                     66
                      A                      A                      A
 Frequencies --   1484.3635              1505.5488              1509.2542
 Red. masses --      1.0865                 1.2879                 1.2722
 Frc consts  --      1.4104                 1.7199                 1.7073
 IR Inten    --      0.5380                16.5069                 2.8000

                     67                     68                     69
                      A                      A                      A
 Frequencies --   1516.6991              1564.6883              1615.4699
 Red. masses --      6.6909                 8.9783                 7.0520
 Frc consts  --      9.0684                12.9509                10.8433
 IR Inten    --    151.7413               360.2112                 9.6986

                     70                     71                     72
                      A                      A                      A
 Frequencies --   1629.7718              1636.9944              1640.9950
 Red. masses --      5.4632                11.5925                 6.9825
 Frc consts  --      8.5498                18.3030                11.0783
 IR Inten    --      0.4239               268.0662                68.8260

                     73                     74                     75
                      A                      A                      A
 Frequencies --   3021.2160              3021.8425              3077.3054
 Red. masses --      1.0351                 1.0351                 1.1001
 Frc consts  --      5.5667                 5.5692                 6.1379
 IR Inten    --     69.8896                 1.6313                11.1854

                     76                     77                     78
                      A                      A                      A
 Frequencies --   3077.5328              3088.4639              3088.8158
 Red. masses --      1.1001                 1.1021                 1.1019
 Frc consts  --      6.1389                 6.1937                 6.1942
 IR Inten    --     19.8768                20.4744                33.7553

                     79                     80                     81
                      A                      A                      A
 Frequencies --   3134.0748              3136.1886              3143.6281
 Red. masses --      1.0842                 1.0854                 1.0898
 Frc consts  --      6.2745                 6.2896                 6.3454
 IR Inten    --      0.6003                16.3282                48.4904

                     82                     83                     84
                      A                      A                      A
 Frequencies --   3159.1198              3163.9403              3182.3269
 Red. masses --      1.0957                 1.0962                 1.0885
 Frc consts  --      6.4426                 6.4654                 6.4951
 IR Inten    --     42.7522                62.2751                 6.9847

 - Thermochemistry -
 -------------------
 Temperature   298.150 Kelvin.  Pressure   1.00000 Atm.
 Atom     1 has atomic number  6 and mass  12.00000

 Molecular mass:   240.07864 amu.
 Principal axes and moments of inertia in atomic units:
                           1         2         3
     Eigenvalues --  2050.317286773.246166797.44856
           X            0.93305  -0.10770  -0.34326
           Y            0.23814   0.90008   0.36489
           Z            0.26966  -0.42220   0.86547
 This molecule is an asymmetric top.
 Rotational symmetry number  1.
 Warning -- assumption of classical behavior for rotation
           may cause significant error
 Rotational temperatures (Kelvin)      0.04224     0.01279     0.01274
 Rotational constants (GHZ):           0.88023     0.26645     0.26550
 Zero-point vibrational energy     596100.3 (Joules/Mol)
                                  142.47140 (Kcal/Mol)
 Warning -- explicit consideration of  25 degrees of freedom as
           vibrations may cause significant error
 Vibrational temperatures:      9.31    27.45    94.29   124.54   152.24
          (Kelvin)            161.94   188.68   203.39   250.03   283.77
                              329.93   345.20   442.50   450.14   501.75
                              576.59   578.33   620.18   636.94   685.44
                              740.75   764.94   778.73   818.78   825.22
                              900.22   933.71  1065.22  1071.44  1094.39
                             1109.08  1124.11  1176.30  1211.86  1221.39
                             1269.07  1298.05  1340.01  1370.14  1392.77
                             1410.34  1454.09  1514.53  1517.63  1521.04
                             1535.56  1594.65  1634.93  1699.17  1719.77
                             1791.11  1821.77  1827.73  1851.99  1897.45
                             1935.85  2022.88  2025.46  2036.36  2088.88
                             2100.35  2132.49  2135.28  2135.67  2166.15
                             2171.48  2182.19  2251.24  2324.30  2344.88
                             2355.27  2361.03  4346.86  4347.76  4427.56
                             4427.88  4443.61  4444.12  4509.23  4512.28
                             4522.98  4545.27  4552.20  4578.66

 Zero-point correction=                           0.227043 (Hartree/Particle)
 Thermal correction to Energy=                    0.243384
 Thermal correction to Enthalpy=                  0.244329
 Thermal correction to Gibbs Free Energy=         0.179731
 Sum of electronic and zero-point Energies=           -804.543917
 Sum of electronic and thermal Energies=              -804.527575
 Sum of electronic and thermal Enthalpies=            -804.526631
 Sum of electronic and thermal Free Energies=         -804.591229

                     E (Thermal)             CV                S
                      KCal/Mol        Cal/Mol-Kelvin    Cal/Mol-Kelvin
 Total                  152.726             61.233            135.957
 Electronic               0.000              0.000              1.377
 Translational            0.889              2.981             42.329
 Rotational               0.889              2.981             32.912
 Vibrational            150.949             55.272             59.339
 Vibration     1          0.593              1.987              8.876
 Vibration     2          0.593              1.986              6.728
 Vibration     3          0.597              1.971              4.283
 Vibration     4          0.601              1.959              3.736
 Vibration     5          0.605              1.945              3.344
 Vibration     6          0.607              1.939              3.224
 Vibration     7          0.612              1.922              2.929
 Vibration     8          0.615              1.912              2.785
 Vibration     9          0.627              1.875              2.394
 Vibration    10          0.637              1.844              2.159
 Vibration    11          0.652              1.796              1.884
 Vibration    12          0.657              1.779              1.803
 Vibration    13          0.697              1.659              1.375
 Vibration    14          0.701              1.649              1.347
 Vibration    15          0.726              1.578              1.172
 Vibration    16          0.767              1.469              0.960
 Vibration    17          0.768              1.466              0.955
 Vibration    18          0.792              1.403              0.855
 Vibration    19          0.802              1.377              0.818
 Vibration    20          0.833              1.302              0.720
 Vibration    21          0.870              1.217              0.622
 Vibration    22          0.887              1.180              0.584
 Vibration    23          0.896              1.159              0.563
 Vibration    24          0.925              1.098              0.506
 Vibration    25          0.930              1.088              0.497

 Optimization completed.
    -- Stationary point found.
 Normal termination of Gaussian 16 at Wed Jan 10 06:17:02 2024.
