 Q-Chem 5.4, Q-Chem, Inc., Pleasanton, CA (2021)
 Q-Chem 5.4.0 for Intel X86 EM64T Linux

User input:
--------------------------------------------------------------
$molecule
-1 2
C                  0.8028010000      1.6574700000     -0.7056460000
C                 -0.5241430000      1.0145160000     -0.6246930000
C                 -0.6511680000     -0.2467360000     -0.0548040000
C                  0.5514430000     -0.9823610000      0.3848720000
C                  1.8478690000     -0.3408120000      0.2723350000
C                  1.9675190000      0.9256540000     -0.2442910000
C                  3.3101780000      1.6058250000     -0.3581460000
C                  3.0536950000     -1.1145230000      0.7473360000
O                  0.9346150000      2.8319350000     -1.1700300000
O                  0.4644500000     -2.1583880000      0.8557840000
H                  4.0149660000      1.0117110000     -0.9534670000
H                  3.7752730000      1.7493760000      0.6260040000
H                  3.1845580000      2.5810030000     -0.8280150000
H                  2.7327120000     -2.0727740000      1.1551010000
H                  3.6072570000     -0.5659650000      1.5198230000
H                  3.7613620000     -1.3024540000     -0.0708390000
C                 -1.9206210000     -1.0705150000      0.2020480000
C                 -3.1226220000     -0.3653480000      0.8510900000
C                 -2.3286040000     -1.9454640000     -1.0027880000
C                 -1.6101200000      1.9243520000     -1.2154730000
C                 -2.2759220000      2.8360860000     -0.1624220000
C                 -2.6288520000      1.3003100000     -2.1830020000
H                 -1.5784620000     -1.7934120000      0.9459750000
H                 -3.8348490000     -1.1229670000      1.2017300000
H                 -3.6682770000      0.3034320000      0.1854170000
H                 -2.8052810000      0.2163290000      1.7214460000
H                 -3.1378120000     -2.6306990000     -0.7179420000
H                 -1.4764260000     -2.5513700000     -1.3201100000
H                 -2.6697340000     -1.3614450000     -1.8593890000
H                 -1.0237370000      2.6149610000     -1.8256230000
H                 -2.9228880000      3.5745260000     -0.6539950000
H                 -1.5058950000      3.3827620000      0.3873600000
H                 -2.8830470000      2.2851640000      0.5579770000
H                 -3.1602510000      2.1031620000     -2.7095590000
H                 -3.3839420000      0.6765390000     -1.7045640000
H                 -2.1219150000      0.6910400000     -2.9369290000
$end
$rem
MAX_SCF_CYCLES=200
BASIS  =  6-311++G(d,p)
GUI  =  2
JOB_TYPE  =  SP
METHOD  =  B3LYP
SOLVENT_METHOD = PCM
$end
$pcm
theory = CPCM
$end
$solvent
dielectric 37.219
opticaldielectric 1.43
$end

--------------------------------------------------------------

             Standard Nuclear Orientation (Angstroms)
    I     Atom           X                Y                Z
 ----------------------------------------------------------------
    1      C       0.8028010000     1.6574700000    -0.7056460000
    2      C      -0.5241430000     1.0145160000    -0.6246930000
    3      C      -0.6511680000    -0.2467360000    -0.0548040000
    4      C       0.5514430000    -0.9823610000     0.3848720000
    5      C       1.8478690000    -0.3408120000     0.2723350000
    6      C       1.9675190000     0.9256540000    -0.2442910000
    7      C       3.3101780000     1.6058250000    -0.3581460000
    8      C       3.0536950000    -1.1145230000     0.7473360000
    9      O       0.9346150000     2.8319350000    -1.1700300000
   10      O       0.4644500000    -2.1583880000     0.8557840000
   11      H       4.0149660000     1.0117110000    -0.9534670000
   12      H       3.7752730000     1.7493760000     0.6260040000
   13      H       3.1845580000     2.5810030000    -0.8280150000
   14      H       2.7327120000    -2.0727740000     1.1551010000
   15      H       3.6072570000    -0.5659650000     1.5198230000
   16      H       3.7613620000    -1.3024540000    -0.0708390000
   17      C      -1.9206210000    -1.0705150000     0.2020480000
   18      C      -3.1226220000    -0.3653480000     0.8510900000
   19      C      -2.3286040000    -1.9454640000    -1.0027880000
   20      C      -1.6101200000     1.9243520000    -1.2154730000
   21      C      -2.2759220000     2.8360860000    -0.1624220000
   22      C      -2.6288520000     1.3003100000    -2.1830020000
   23      H      -1.5784620000    -1.7934120000     0.9459750000
   24      H      -3.8348490000    -1.1229670000     1.2017300000
   25      H      -3.6682770000     0.3034320000     0.1854170000
   26      H      -2.8052810000     0.2163290000     1.7214460000
   27      H      -3.1378120000    -2.6306990000    -0.7179420000
   28      H      -1.4764260000    -2.5513700000    -1.3201100000
   29      H      -2.6697340000    -1.3614450000    -1.8593890000
   30      H      -1.0237370000     2.6149610000    -1.8256230000
   31      H      -2.9228880000     3.5745260000    -0.6539950000
   32      H      -1.5058950000     3.3827620000     0.3873600000
   33      H      -2.8830470000     2.2851640000     0.5579770000
   34      H      -3.1602510000     2.1031620000    -2.7095590000
   35      H      -3.3839420000     0.6765390000    -1.7045640000
   36      H      -2.1219150000     0.6910400000    -2.9369290000
 ----------------------------------------------------------------

    8    -696.3017821426      4.40e-06  Convergence criterion met
 Total energy in the final basis set =     -696.3017821426

                    Orbital Energies (a.u.)
 --------------------------------------------------------------

 Alpha MOs
 -- Occupied --
-19.0667 -19.0666 -10.2085 -10.2085 -10.1623 -10.1617 -10.1579 -10.1579
-10.1570 -10.1563 -10.1471 -10.1470 -10.1450 -10.1449 -10.1449 -10.1448
 -0.9915  -0.9890  -0.8225  -0.7976  -0.7746  -0.7339  -0.7153  -0.6760
 -0.6703  -0.6551  -0.6529  -0.5917  -0.5724  -0.5336  -0.5094  -0.4897
 -0.4540  -0.4339  -0.4286  -0.4278  -0.4254  -0.4163  -0.4050  -0.4008
 -0.4002  -0.3900  -0.3819  -0.3798  -0.3773  -0.3690  -0.3657  -0.3582
 -0.3563  -0.3496  -0.3316  -0.3309  -0.3275  -0.3165  -0.3049  -0.2996
 -0.2615  -0.2394  -0.2258  -0.2197  -0.1494

 Beta MOs
 -- Occupied --
-19.0604 -19.0603 -10.2066 -10.2065 -10.1612 -10.1607 -10.1580 -10.1580
-10.1560 -10.1553 -10.1471 -10.1471 -10.1449 -10.1449 -10.1448 -10.1447
 -0.9804  -0.9776  -0.8178  -0.7960  -0.7739  -0.7318  -0.7125  -0.6758
 -0.6701  -0.6535  -0.6459  -0.5877  -0.5719  -0.5295  -0.5071  -0.4879
 -0.4517  -0.4315  -0.4282  -0.4245  -0.4223  -0.4138  -0.4033  -0.3991
 -0.3947  -0.3856  -0.3809  -0.3794  -0.3768  -0.3653  -0.3591  -0.3525
 -0.3485  -0.3369  -0.3302  -0.3284  -0.3234  -0.3149  -0.3027  -0.2984
 -0.2337  -0.2332  -0.2188  -0.2143

          Ground-State Mulliken Net Atomic Charges

     Atom                 Charge (a.u.)    Spin (a.u.)
  --------------------------------------------------------
      1 C                    -1.427423       0.083299
      2 C                     0.748270       0.085535
      3 C                     0.748370       0.085528
      4 C                    -1.421486       0.083474
      5 C                     0.807647       0.095610
      6 C                     0.805468       0.095572
      7 C                    -0.513893      -0.001643
      8 C                    -0.513266      -0.001684
      9 O                    -0.474182       0.231775
     10 O                    -0.474969       0.231534
     11 H                     0.154360       0.003139
     12 H                     0.156780       0.003398
     13 H                     0.179149      -0.001201
     14 H                     0.179605      -0.001205
     15 H                     0.154587       0.003129
     16 H                     0.156677       0.003414
     17 C                     0.164818      -0.008153
     18 C                    -0.674367      -0.000530
     19 C                    -0.704746       0.009697
     20 C                     0.163288      -0.008165
     21 C                    -0.704743       0.009667
     22 C                    -0.672169      -0.000437
     23 H                     0.205915      -0.000005
     24 H                     0.159242      -0.000350
     25 H                     0.130078      -0.000053
     26 H                     0.145462       0.000261
     27 H                     0.146815       0.000955
     28 H                     0.167500      -0.001562
     29 H                     0.125535      -0.000144
     30 H                     0.206838      -0.000014
     31 H                     0.146606       0.000966
     32 H                     0.167196      -0.001550
     33 H                     0.125668      -0.000122
     34 H                     0.159190      -0.000348
     35 H                     0.130118      -0.000046
     36 H                     0.146063       0.000260
  --------------------------------------------------------
  Sum of atomic charges =    -1.000000

                    Cartesian Multipole Moments
 -----------------------------------------------------------------
    Charge (ESU x 10^10)
                -4.8032
    Dipole Moment (Debye)
         X      -2.6795      Y      -1.6402      Z       0.8588
       Tot       3.2569
    Quadrupole Moments (Debye-Ang)
        XX    -105.4315     XY      -3.9616     YY    -138.8353
        XZ       1.7847     YZ      12.8156     ZZ    -109.7990

 Total job time:  77.89s(wall), 510.95s(cpu)
        *  Thank you very much for using Q-Chem.  Have a nice day.  *
