 Q-Chem 5.4, Q-Chem, Inc., Pleasanton, CA (2021)
 Q-Chem 5.4.0 for Intel X86 EM64T Linux

User input:
--------------------------------------------------------------
$molecule
-1 2
C                 -2.5944850000     -2.4921330000      0.4055760000
O                 -2.4129980000     -1.2866460000     -0.3339220000
C                 -1.1845300000     -0.6804450000     -0.1930100000
C                 -1.1493220000      0.6081870000      0.3249430000
O                 -2.3215050000      1.1399530000      0.8145570000
C                 -2.7792660000      2.3245420000      0.1663800000
C                  0.0736920000      1.3727590000      0.4416530000
O                  0.0992810000      2.5343560000      0.9315050000
C                  1.2923650000      0.7010960000     -0.0308470000
C                  2.5276310000      1.3745750000      0.0444860000
C                  3.6973700000      0.7698180000     -0.3798040000
C                  3.6630770000     -0.5408950000     -0.8960970000
C                  2.4599790000     -1.2192930000     -0.9758250000
C                  1.2585080000     -0.6214340000     -0.5466960000
C                 -0.0010070000     -1.3700750000     -0.6594670000
O                 -0.0450530000     -2.5320860000     -1.1470570000
H                 -1.8570180000     -3.2426060000      0.1140480000
H                 -2.5282970000     -2.2936020000      1.4835660000
H                 -3.6014620000     -2.8445880000      0.1703700000
H                 -2.0358010000      3.1207280000      0.2398380000
H                 -3.6960690000      2.6188830000      0.6825040000
H                 -3.0125620000      2.1188990000     -0.8867850000
H                  2.5235100000      2.3809090000      0.4476710000
H                  4.6410950000      1.3037650000     -0.3156210000
H                  4.5802790000     -1.0171010000     -1.2304720000
H                  2.4025880000     -2.2275670000     -1.3699960000
$end
$rem
MAX_SCF_CYCLES=200
BASIS  =  6-311++G(d,p)
GUI  =  2
JOB_TYPE  =  SP
METHOD  =  B3LYP
SOLVENT_METHOD = PCM
$end
$pcm
theory = CPCM
$end
$solvent
dielectric 37.219
opticaldielectric 1.43
$end

--------------------------------------------------------------

             Standard Nuclear Orientation (Angstroms)
    I     Atom           X                Y                Z
 ----------------------------------------------------------------
    1      C      -2.5944850000    -2.4921330000     0.4055760000
    2      O      -2.4129980000    -1.2866460000    -0.3339220000
    3      C      -1.1845300000    -0.6804450000    -0.1930100000
    4      C      -1.1493220000     0.6081870000     0.3249430000
    5      O      -2.3215050000     1.1399530000     0.8145570000
    6      C      -2.7792660000     2.3245420000     0.1663800000
    7      C       0.0736920000     1.3727590000     0.4416530000
    8      O       0.0992810000     2.5343560000     0.9315050000
    9      C       1.2923650000     0.7010960000    -0.0308470000
   10      C       2.5276310000     1.3745750000     0.0444860000
   11      C       3.6973700000     0.7698180000    -0.3798040000
   12      C       3.6630770000    -0.5408950000    -0.8960970000
   13      C       2.4599790000    -1.2192930000    -0.9758250000
   14      C       1.2585080000    -0.6214340000    -0.5466960000
   15      C      -0.0010070000    -1.3700750000    -0.6594670000
   16      O      -0.0450530000    -2.5320860000    -1.1470570000
   17      H      -1.8570180000    -3.2426060000     0.1140480000
   18      H      -2.5282970000    -2.2936020000     1.4835660000
   19      H      -3.6014620000    -2.8445880000     0.1703700000
   20      H      -2.0358010000     3.1207280000     0.2398380000
   21      H      -3.6960690000     2.6188830000     0.6825040000
   22      H      -3.0125620000     2.1188990000    -0.8867850000
   23      H       2.5235100000     2.3809090000     0.4476710000
   24      H       4.6410950000     1.3037650000    -0.3156210000
   25      H       4.5802790000    -1.0171010000    -1.2304720000
   26      H       2.4025880000    -2.2275670000    -1.3699960000
 ----------------------------------------------------------------

    8    -764.5190741044      6.65e-06  Convergence criterion met
 Total energy in the final basis set =     -764.5190741044

                    Orbital Energies (a.u.)
 --------------------------------------------------------------

 Alpha MOs
 -- Occupied --
-19.1381 -19.1380 -19.0797 -19.0796 -10.2271 -10.2271 -10.2197 -10.2191
-10.2041 -10.2041 -10.1750 -10.1746 -10.1724 -10.1719 -10.1703 -10.1703
 -1.0639  -1.0445  -1.0018  -0.9993  -0.8594  -0.8037  -0.7515  -0.7467
 -0.7076  -0.6786  -0.6626  -0.6067  -0.6018  -0.5643  -0.5302  -0.5192
 -0.4999  -0.4694  -0.4681  -0.4638  -0.4458  -0.4419  -0.4352  -0.4226
 -0.4216  -0.4149  -0.4089  -0.3974  -0.3774  -0.3628  -0.3562  -0.3491
 -0.3439  -0.3402  -0.2946  -0.2898  -0.2680  -0.2580  -0.2426  -0.2422
 -0.2331  -0.1546

 Beta MOs
 -- Occupied --
-19.1378 -19.1378 -19.0740 -19.0739 -10.2252 -10.2252 -10.2184 -10.2178
-10.2040 -10.2040 -10.1745 -10.1741 -10.1720 -10.1716 -10.1702 -10.1702
 -1.0626  -1.0431  -0.9920  -0.9895  -0.8573  -0.7994  -0.7495  -0.7451
 -0.7048  -0.6770  -0.6556  -0.6056  -0.5988  -0.5616  -0.5286  -0.5173
 -0.4988  -0.4655  -0.4653  -0.4623  -0.4441  -0.4409  -0.4338  -0.4220
 -0.4197  -0.4086  -0.3981  -0.3932  -0.3615  -0.3549  -0.3525  -0.3476
 -0.3391  -0.3353  -0.2920  -0.2858  -0.2511  -0.2492  -0.2375  -0.2371
 -0.2250

          Ground-State Mulliken Net Atomic Charges

     Atom                 Charge (a.u.)    Spin (a.u.)
  --------------------------------------------------------
      1 C                    -0.285373       0.002734
      2 O                    -0.205096       0.001234
      3 C                     0.029883       0.107843
      4 C                     0.040526       0.107709
      5 O                    -0.205213       0.001266
      6 C                    -0.287316       0.002639
      7 C                    -0.574907       0.089265
      8 O                    -0.492446       0.217722
      9 C                     0.443195       0.021571
     10 C                     0.142123       0.035189
     11 C                    -0.422380       0.027691
     12 C                    -0.422554       0.027806
     13 C                     0.142981       0.035155
     14 C                     0.449044       0.021459
     15 C                    -0.575746       0.089023
     16 O                    -0.492349       0.217754
     17 H                     0.170115      -0.000228
     18 H                     0.147685       0.000874
     19 H                     0.167562       0.000993
     20 H                     0.170375      -0.000221
     21 H                     0.167796       0.000990
     22 H                     0.147680       0.000923
     23 H                     0.170165      -0.002284
     24 H                     0.201684      -0.002411
     25 H                     0.201603      -0.002416
     26 H                     0.170963      -0.002280
  --------------------------------------------------------
  Sum of atomic charges =    -1.000000

                    Cartesian Multipole Moments
 -----------------------------------------------------------------
    Charge (ESU x 10^10)
                -4.8032
    Dipole Moment (Debye)
         X       1.1255      Y       0.0322      Z       0.3316
       Tot       1.1738
    Quadrupole Moments (Debye-Ang)
        XX     -94.7293     XY      -1.4772     YY    -118.6287
        XZ      -1.2089     YZ     -15.3145     ZZ    -105.4539

 Total job time:  76.50s(wall), 315.32s(cpu)
        *  Thank you very much for using Q-Chem.  Have a nice day.  *
