 Gaussian 16, Revision A.03,
 Gaussian 16:  ES64L-G16RevA.03 25-Dec-2016

 --------------------------------------
 #P UB3LYP/6-311++G(d,p) nosym opt freq
 --------------------------------------

 -------
 Radical
 -------
 Symbolic Z-matrix:
 Charge = -1 Multiplicity = 2

 SCF Done:  E(UB3LYP) =  -893.580919269     A.U. after   26 cycles
 Optimization completed.
    -- Stationary point found.
 Normal termination of Gaussian 16 at Wed Dec 27 19:54:09 2023.

 ----------------------------------------------------------------------
 #P Geom=AllCheck Guess=TCheck SCRF=Check GenChk UB3LYP/6-311++G(d,p) F
 req
 ----------------------------------------------------------------------

 Structure from the checkpoint file:  "174-rad.chk"
 -------
 Radical
 -------
 Charge = -1 Multiplicity = 2

                          Input orientation:
 ---------------------------------------------------------------------
 Center     Atomic      Atomic             Coordinates (Angstroms)
 Number     Number       Type             X           Y           Z
 ---------------------------------------------------------------------
      1          8           0        2.384822    2.880183   -1.179510
      2          7           0        2.661319    2.319604   -0.129721
      3          8           0        3.266519    2.838447    0.803971
      4          6           0        2.378724    0.864970   -0.033580
      5          6           0        3.497979    0.063276   -0.063579
      6          6           0        3.339783   -1.335046   -0.122329
      7          6           0        2.071933   -1.878004   -0.148849
      8          6           0        0.921814   -1.065632   -0.088445
      9          6           0       -0.392108   -1.714966   -0.107299
     10          8           0       -0.510578   -2.959714   -0.197805
     11          6           0       -1.554382   -0.828987   -0.011315
     12          6           0       -2.851260   -1.385190   -0.048444
     13          6           0       -3.972119   -0.585800    0.054685
     14          6           0       -3.829365    0.810119    0.204722
     15          6           0       -2.570003    1.374446    0.248070
     16          6           0       -1.410695    0.576954    0.137462
     17          6           0       -0.096872    1.227756    0.192122
     18          8           0        0.026845    2.452370    0.415818
     19          6           0        1.058631    0.357072   -0.001654
     20          1           0        4.481755    0.516965   -0.070411
     21          1           0        4.216327   -1.972733   -0.160011
     22          1           0        1.914862   -2.948439   -0.209585
     23          1           0       -2.929802   -2.460453   -0.159010
     24          1           0       -4.962785   -1.029078    0.022110
     25          1           0       -4.710537    1.439240    0.286396
     26          1           0       -2.430807    2.442641    0.366190
 ---------------------------------------------------------------------

 SCF Done:  E(UB3LYP) =  -893.580919269     A.U. after    1 cycles

 Alpha  occ. eigenvalues --  -19.04467 -19.04431 -18.96322 -18.96151 -14.43530
 Alpha  occ. eigenvalues --  -10.12304 -10.11405 -10.11366 -10.08632 -10.07953
 Alpha  occ. eigenvalues --  -10.07919 -10.07285 -10.07175 -10.07148 -10.07100
 Alpha  occ. eigenvalues --  -10.06578 -10.06519 -10.06472 -10.06400  -1.11905
 Alpha  occ. eigenvalues --   -0.94558  -0.89211  -0.88920  -0.77253  -0.75012
 Alpha  occ. eigenvalues --   -0.69392  -0.68174  -0.64429  -0.64030  -0.58993
 Alpha  occ. eigenvalues --   -0.56122  -0.53094  -0.52027  -0.47641  -0.45647
 Alpha  occ. eigenvalues --   -0.44471  -0.43017  -0.41374  -0.40399  -0.39748
 Alpha  occ. eigenvalues --   -0.36986  -0.36153  -0.35552  -0.34842  -0.31812
 Alpha  occ. eigenvalues --   -0.31480  -0.30969  -0.29955  -0.29555  -0.28060
 Alpha  occ. eigenvalues --   -0.26997  -0.26726  -0.26434  -0.24638  -0.23671
 Alpha  occ. eigenvalues --   -0.23195  -0.20351  -0.19744  -0.19587  -0.16175
 Alpha  occ. eigenvalues --   -0.15279  -0.14814  -0.14641  -0.13179  -0.12397
 Alpha  occ. eigenvalues --   -0.03179
 Alpha virt. eigenvalues --    0.03232   0.05375   0.07717   0.07826   0.08010
 Alpha virt. eigenvalues --    0.09739   0.09799   0.10420   0.11304   0.12755
 Alpha virt. eigenvalues --    0.13557   0.14511   0.14839   0.15114   0.15551

  Beta  occ. eigenvalues --  -19.04455 -19.04414 -18.95737 -18.95529 -14.43513
  Beta  occ. eigenvalues --  -10.12304 -10.11287 -10.11252 -10.08599 -10.07834
  Beta  occ. eigenvalues --  -10.07815 -10.07319 -10.07108 -10.07060 -10.07053
  Beta  occ. eigenvalues --  -10.06514 -10.06502 -10.06421 -10.06402  -1.11873
  Beta  occ. eigenvalues --   -0.94529  -0.88190  -0.87879  -0.77047  -0.74857
  Beta  occ. eigenvalues --   -0.69165  -0.67846  -0.64264  -0.63834  -0.58748
  Beta  occ. eigenvalues --   -0.55549  -0.52908  -0.51768  -0.47567  -0.45524
  Beta  occ. eigenvalues --   -0.44276  -0.42876  -0.41241  -0.40367  -0.39596
  Beta  occ. eigenvalues --   -0.36823  -0.35948  -0.35408  -0.34762  -0.31783
  Beta  occ. eigenvalues --   -0.30846  -0.30337  -0.29604  -0.29127  -0.27788
  Beta  occ. eigenvalues --   -0.26630  -0.26302  -0.24532  -0.24474  -0.23040
  Beta  occ. eigenvalues --   -0.22603  -0.20214  -0.19592  -0.19452  -0.14991
  Beta  occ. eigenvalues --   -0.14268  -0.13995  -0.13534  -0.12616  -0.11827
  Beta virt. eigenvalues --    0.02677   0.03640   0.06073   0.07716   0.07965
  Beta virt. eigenvalues --    0.08976   0.09735   0.09982   0.10423   0.11308
  Beta virt. eigenvalues --    0.12748   0.13554   0.14571   0.14864   0.15577

 Mulliken charges and spin densities:
               1          2
     1  O    0.015709   0.003725
     2  N   -0.206276   0.002338
     3  O    0.001224   0.007102
     4  C   -0.245843   0.026741
     5  C    0.216251   0.028571
     6  C   -0.440159   0.071948
     7  C   -0.234898  -0.007693
     8  C    1.101460   0.075721
     9  C   -0.510324   0.057375
    10  O   -0.349791   0.218018
    11  C    0.432594   0.022089
    12  C   -0.001893   0.014996
    13  C   -0.423403   0.030866
    14  C   -0.396910   0.033669
    15  C    0.077552   0.024944
    16  C    0.147969   0.048753
    17  C   -1.134344   0.040369
    18  O   -0.295741   0.236767
    19  C    0.192588   0.079002
    20  H    0.171416  -0.002386
    21  H    0.143895  -0.004956
    22  H    0.156906   0.000180
    23  H    0.158760  -0.001381
    24  H    0.128414  -0.002686
    25  H    0.130879  -0.002657
    26  H    0.163966  -0.001416
 Sum of Mulliken charges =  -1.00000   1.00000

 Dipole moment (field-independent basis, Debye):
    X=             -1.5932    Y=             -3.3226    Z=             -0.1835  Tot=              3.6894
 Quadrupole moment (field-independent basis, Debye-Ang):
   XX=           -123.2079   YY=           -153.3476   ZZ=           -118.1781
   XY=            -17.7620   XZ=             -1.2608   YZ=             -1.8337

  Exact polarizability: 336.524  12.154 243.868  -2.958   9.445 108.753
 Approx polarizability: 506.391  13.913 456.338   7.232  22.488 193.721

                      1                      2                      3
                      A                      A                      A
 Frequencies --     31.2206                56.5057                88.0852
 Red. masses --     11.9655                 6.7381                 9.2860
 Frc consts  --      0.0069                 0.0127                 0.0425
 IR Inten    --      1.2278                 7.3897                 2.4088

                      4                      5                      6
                      A                      A                      A
 Frequencies --    129.4878               151.6571               170.7549
 Red. masses --      5.1930                 8.2709                 7.2619
 Frc consts  --      0.0513                 0.1121                 0.1248
 IR Inten    --      0.5814                 0.7661                 1.3617

                      7                      8                      9
                      A                      A                      A
 Frequencies --    178.3780               225.0002               257.9286
 Red. masses --      7.5303                 5.3012                 6.2452
 Frc consts  --      0.1412                 0.1581                 0.2448
 IR Inten    --      0.6382                 0.6419                 1.9302

                     10                     11                     12
                      A                      A                      A
 Frequencies --    306.1317               327.4242               364.4328
 Red. masses --      9.3067                 7.6816                 6.8760
 Frc consts  --      0.5139                 0.4852                 0.5381
 IR Inten    --      1.8347                 1.0802                 0.8905

                     13                     14                     15
                      A                      A                      A
 Frequencies --    378.1674               394.1984               413.3801
 Red. masses --     11.9021                 5.9688                 6.3133
 Frc consts  --      1.0029                 0.5465                 0.6356
 IR Inten    --      8.3480                 0.8566                 0.7812

                     16                     17                     18
                      A                      A                      A
 Frequencies --    447.0694               458.4888               492.7469
 Red. masses --      4.0474                 6.5731                 7.1124
 Frc consts  --      0.4766                 0.8141                 1.0175
 IR Inten    --      1.0074                 0.2487                 1.7057

                     19                     20                     21
                      A                      A                      A
 Frequencies --    499.6067               594.9301               614.6533
 Red. masses --      5.2775                 5.3586                 6.5951
 Frc consts  --      0.7761                 1.1175                 1.4680
 IR Inten    --      0.0433                11.5411                10.3075

                     22                     23                     24
                      A                      A                      A
 Frequencies --    651.2196               655.0167               687.0472
 Red. masses --      5.6627                 5.1211                 6.8360
 Frc consts  --      1.4149                 1.2945                 1.9012
 IR Inten    --      7.0839                10.5216                 5.8170

                     25                     26                     27
                      A                      A                      A
 Frequencies --    705.2858               722.9710               734.2533
 Red. masses --      2.7157                 7.7821                 2.5454
 Frc consts  --      0.7959                 2.3966                 0.8085
 IR Inten    --     63.8540                 8.3855                 1.9338

                     28                     29                     30
                      A                      A                      A
 Frequencies --    752.3553               780.1257               787.4412
 Red. masses --      5.5327                 2.1156                 2.0695
 Frc consts  --      1.8451                 0.7586                 0.7560
 IR Inten    --     11.4841                 1.6318                37.9430

                     31                     32                     33
                      A                      A                      A
 Frequencies --    813.6124               819.3632               876.5534
 Red. masses --      6.2297                 3.5881                 1.5072
 Frc consts  --      2.4297                 1.4193                 0.6823
 IR Inten    --      3.7878                 8.9364                 0.1167

                     34                     35                     36
                      A                      A                      A
 Frequencies --    882.4093               904.0228               938.0777
 Red. masses --      9.3999                 1.4435                 6.6598
 Frc consts  --      4.3124                 0.6951                 3.4529
 IR Inten    --      8.8169                 0.4077                 1.0592

                     37                     38                     39
                      A                      A                      A
 Frequencies --    982.8981               984.7628               988.7492
 Red. masses --      3.4760                 1.6672                 1.2822
 Frc consts  --      1.9786                 0.9526                 0.7386
 IR Inten    --     11.2207                 4.3367                 0.3080

                     40                     41                     42
                      A                      A                      A
 Frequencies --    989.7129              1040.8365              1081.7531
 Red. masses --      1.3360                 2.0375                 1.9694
 Frc consts  --      0.7710                 1.3005                 1.3578
 IR Inten    --      2.6236                17.3252                27.1592

                     43                     44                     45
                      A                      A                      A
 Frequencies --   1111.2556              1141.6039              1160.2960
 Red. masses --      2.1303                 1.5748                 1.6560
 Frc consts  --      1.5500                 1.2092                 1.3136
 IR Inten    --     11.4644                26.6531                 0.9869

                     46                     47                     48
                      A                      A                      A
 Frequencies --   1182.8440              1198.6232              1205.4525
 Red. masses --      2.1653                 2.4785                 1.9778
 Frc consts  --      1.7849                 2.0980                 1.6933
 IR Inten    --      2.5234                 3.3964                19.7301

                     49                     50                     51
                      A                      A                      A
 Frequencies --   1234.6779              1253.2167              1344.8798
 Red. masses --      2.7359                 1.9133                 4.5443
 Frc consts  --      2.4573                 1.7705                 4.8427
 IR Inten    --     28.2269                94.0782               178.2222

                     52                     53                     54
                      A                      A                      A
 Frequencies --   1349.9676              1361.1528              1384.9496
 Red. masses --      3.3349                10.5480                12.6409
 Frc consts  --      3.5808                11.5142                14.2856
 IR Inten    --     71.7891                16.7049               392.6828

                     55                     56                     57
                      A                      A                      A
 Frequencies --   1415.4815              1444.2999              1482.9779
 Red. masses --      3.2887                 2.6750                 2.8979
 Frc consts  --      3.8822                 3.2877                 3.7549
 IR Inten    --    212.4676                66.7308                12.9598

                     58                     59                     60
                      A                      A                      A
 Frequencies --   1485.6645              1534.0421              1540.7519
 Red. masses --      2.8019                 5.0271                 7.3195
 Frc consts  --      3.6437                 6.9701                10.2375
 IR Inten    --     11.5661               495.5301                21.6226

                     61                     62                     63
                      A                      A                      A
 Frequencies --   1558.8412              1576.1100              1611.4827
 Red. masses --      6.0585                13.5650                 7.4798
 Frc consts  --      8.6739                19.8537                11.4444
 IR Inten    --     64.5189               317.3331                21.2301

                     64                     65                     66
                      A                      A                      A
 Frequencies --   1622.7402              1634.6546              3139.0547
 Red. masses --      7.1987                 6.6458                 1.0850
 Frc consts  --     11.1687                10.4629                 6.2991
 IR Inten    --      6.8383                21.9833                16.8227

                     67                     68                     69
                      A                      A                      A
 Frequencies --   3157.6055              3159.5471              3185.5413
 Red. masses --      1.0913                 1.0866                 1.0916
 Frc consts  --      6.4108                 6.3907                 6.5265
 IR Inten    --     47.7394                16.2187                 7.8115

                     70                     71                     72
                      A                      A                      A
 Frequencies --   3186.0864              3188.4189              3191.2907
 Red. masses --      1.0907                 1.0930                 1.0945
 Frc consts  --      6.5234                 6.5465                 6.5677
 IR Inten    --      5.4905                29.6756                16.5233

 - Thermochemistry -
 -------------------
 Temperature   298.150 Kelvin.  Pressure   1.00000 Atm.
 Atom     1 has atomic number  8 and mass  15.99491

 Molecular mass:   253.03751 amu.
 Principal axes and moments of inertia in atomic units:
                           1         2         3
     Eigenvalues --  2643.652955700.400768083.59544
           X            0.94504  -0.32474   0.03787
           Y            0.32629   0.94412  -0.04667
           Z           -0.02060   0.05646   0.99819
 This molecule is an asymmetric top.
 Rotational symmetry number  1.
 Warning -- assumption of classical behavior for rotation
           may cause significant error
 Rotational temperatures (Kelvin)      0.03276     0.01519     0.01071
 Rotational constants (GHZ):           0.68267     0.31660     0.22326
 Zero-point vibrational energy     468949.5 (Joules/Mol)
                                  112.08161 (Kcal/Mol)
 Warning -- explicit consideration of  21 degrees of freedom as
           vibrations may cause significant error
 Vibrational temperatures:     44.92    81.30   126.73   186.30   218.20
          (Kelvin)            245.68   256.65   323.73   371.10   440.46
                              471.09   524.34   544.10   567.16   594.76
                              643.23   659.66   708.95   718.82   855.97
                              884.35   936.96   942.42   988.51  1014.75
                             1040.19  1056.43  1082.47  1122.43  1132.95
                             1170.61  1178.88  1261.16  1269.59  1300.69
                             1349.68  1414.17  1416.85  1422.59  1423.98
                             1497.53  1556.40  1598.85  1642.51  1669.41
                             1701.85  1724.55  1734.38  1776.43  1803.10
                             1934.98  1942.30  1958.40  1992.63  2036.56
                             2078.03  2133.67  2137.54  2207.14  2216.80
                             2242.82  2267.67  2318.56  2334.76  2351.90
                             4516.40  4543.09  4545.88  4583.28  4584.07
                             4587.42  4591.56

 Zero-point correction=                           0.178613 (Hartree/Particle)
 Thermal correction to Energy=                    0.192564
 Thermal correction to Enthalpy=                  0.193508
 Thermal correction to Gibbs Free Energy=         0.136412
 Sum of electronic and zero-point Energies=           -893.402306
 Sum of electronic and thermal Energies=              -893.388356
 Sum of electronic and thermal Enthalpies=            -893.387411
 Sum of electronic and thermal Free Energies=         -893.444508

                     E (Thermal)             CV                S
                      KCal/Mol        Cal/Mol-Kelvin    Cal/Mol-Kelvin
 Total                  120.836             55.104            120.169
 Electronic               0.000              0.000              1.377
 Translational            0.889              2.981             42.485
 Rotational               0.889              2.981             33.165
 Vibrational            119.058             49.142             43.141
 Vibration     1          0.594              1.983              5.750
 Vibration     2          0.596              1.975              4.576
 Vibration     3          0.601              1.958              3.702
 Vibration     4          0.612              1.924              2.954
 Vibration     5          0.619              1.901              2.651
 Vibration     6          0.626              1.878              2.427
 Vibration     7          0.629              1.869              2.345
 Vibration     8          0.650              1.803              1.918
 Vibration     9          0.667              1.749              1.676
 Vibration    10          0.697              1.662              1.383
 Vibration    11          0.711              1.621              1.273
 Vibration    12          0.738              1.545              1.103
 Vibration    13          0.748              1.517              1.046
 Vibration    14          0.761              1.483              0.984
 Vibration    15          0.777              1.441              0.915
 Vibration    16          0.806              1.367              0.805
 Vibration    17          0.817              1.342              0.771
 Vibration    18          0.848              1.266              0.677
 Vibration    19          0.855              1.251              0.659
 Vibration    20          0.953              1.043              0.458
 Vibration    21          0.974              1.001              0.425

 Optimization completed.
    -- Stationary point found.
 Normal termination of Gaussian 16 at Wed Dec 27 20:53:47 2023.
