 Gaussian 16, Revision A.03,
 Gaussian 16:  ES64L-G16RevA.03 25-Dec-2016

 ----------------------------------------------------------------
 #P UB3LYP/6-311++G(d,p) SCRF=(PCM,Solvent=n,n-DiMethylFormamide)
 ----------------------------------------------------------------

 ------------------
 Radical PCM in DMF
 ------------------
 Symbolic Z-matrix:
 Charge = -1 Multiplicity = 2

                         Standard orientation:
 ---------------------------------------------------------------------
 Center     Atomic      Atomic             Coordinates (Angstroms)
 Number     Number       Type             X           Y           Z
 ---------------------------------------------------------------------
      1          8           0        2.819941   -1.822587    1.216777
      2          7           0        2.896217   -1.265600    0.132017
      3          8           0        3.606987   -1.636044   -0.797941
      4          6           0        2.195690    0.034588   -0.022370
      5          6           0        3.029535    1.129380   -0.072154
      6          6           0        2.467805    2.420983   -0.073901
      7          6           0        1.097162    2.569255   -0.025903
      8          6           0        0.236315    1.453518   -0.004812
      9          6           0       -1.209843    1.689393    0.032208
     10          8           0       -1.687696    2.847841    0.067959
     11          6           0       -2.061394    0.497838    0.021727
     12          6           0       -3.463441    0.650845    0.080768
     13          6           0       -4.301083   -0.446333    0.057506
     14          6           0       -3.756794   -1.745303   -0.031407
     15          6           0       -2.388331   -1.917405   -0.094872
     16          6           0       -1.513234   -0.810354   -0.065488
     17          6           0       -0.067515   -1.049673   -0.138176
     18          8           0        0.406532   -2.194862   -0.308025
     19          6           0        0.784194    0.130802   -0.029103
     20          1           0        4.103206    0.984961   -0.080502
     21          1           0        3.118239    3.288560   -0.099193
     22          1           0        0.633126    3.548344   -0.010166
     23          1           0       -3.852792    1.660352    0.143089
     24          1           0       -5.377415   -0.311652    0.105940
     25          1           0       -4.415127   -2.608535   -0.050260
     26          1           0       -1.943278   -2.902822   -0.167329
 ---------------------------------------------------------------------

 SCF Done:  E(UB3LYP) =  -893.655523319     A.U. after   23 cycles

 The electronic state is 2-A.
 Alpha  occ. eigenvalues --  -19.16949 -19.16916 -19.08559 -19.08519 -14.55851
 Alpha  occ. eigenvalues --  -10.23786 -10.23535 -10.23517 -10.19705 -10.19655
 Alpha  occ. eigenvalues --  -10.18791 -10.18673 -10.18445 -10.18108 -10.17999
 Alpha  occ. eigenvalues --  -10.17831 -10.17764 -10.17540 -10.17498  -1.24380
 Alpha  occ. eigenvalues --   -1.07070  -1.01617  -1.01244  -0.88763  -0.86255
 Alpha  occ. eigenvalues --   -0.81036  -0.79451  -0.75659  -0.75180  -0.70759
 Alpha  occ. eigenvalues --   -0.67574  -0.64377  -0.63255  -0.59159  -0.57520
 Alpha  occ. eigenvalues --   -0.56081  -0.54218  -0.53365  -0.52927  -0.51317
 Alpha  occ. eigenvalues --   -0.48130  -0.47499  -0.46568  -0.45969  -0.43412
 Alpha  occ. eigenvalues --   -0.42957  -0.42277  -0.42242  -0.41267  -0.39160
 Alpha  occ. eigenvalues --   -0.38932  -0.38311  -0.37821  -0.35735  -0.35226
 Alpha  occ. eigenvalues --   -0.34469  -0.32912  -0.32128  -0.32029  -0.27902
 Alpha  occ. eigenvalues --   -0.26974  -0.26188  -0.25867  -0.25551  -0.24708
 Alpha  occ. eigenvalues --   -0.15136
 Alpha virt. eigenvalues --   -0.09065  -0.06225  -0.03187  -0.01403  -0.00246
 Alpha virt. eigenvalues --    0.00506   0.01487   0.02186   0.02558   0.04123
 Alpha virt. eigenvalues --    0.04238   0.04389   0.04530   0.05043   0.05521

  Beta  occ. eigenvalues --  -19.16928 -19.16887 -19.08023 -19.07956 -14.55821
  Beta  occ. eigenvalues --  -10.23761 -10.23374 -10.23363 -10.19696 -10.19539
  Beta  occ. eigenvalues --  -10.18673 -10.18584 -10.18476 -10.18059 -10.17936
  Beta  occ. eigenvalues --  -10.17799 -10.17723 -10.17539 -10.17486  -1.24324
  Beta  occ. eigenvalues --   -1.07021  -1.00648  -1.00292  -0.88552  -0.86098
  Beta  occ. eigenvalues --   -0.80800  -0.79125  -0.75469  -0.75003  -0.70483
  Beta  occ. eigenvalues --   -0.67023  -0.64163  -0.62998  -0.59096  -0.57378
  Beta  occ. eigenvalues --   -0.55867  -0.54056  -0.53209  -0.52844  -0.51137
  Beta  occ. eigenvalues --   -0.47867  -0.47393  -0.46422  -0.45884  -0.42918
  Beta  occ. eigenvalues --   -0.42217  -0.42106  -0.41665  -0.40991  -0.38820
  Beta  occ. eigenvalues --   -0.38033  -0.37685  -0.36838  -0.35604  -0.34369
  Beta  occ. eigenvalues --   -0.34253  -0.32653  -0.31997  -0.31842  -0.26537
  Beta  occ. eigenvalues --   -0.25912  -0.25436  -0.25260  -0.25008  -0.24196
  Beta virt. eigenvalues --   -0.09469  -0.08499  -0.05387  -0.02133  -0.01169
  Beta virt. eigenvalues --   -0.00229   0.00509   0.01495   0.02206   0.02562
  Beta virt. eigenvalues --    0.04234   0.04435   0.04564   0.04925   0.05073

 Mulliken charges and spin densities:
               1          2
     1  O   -0.036742   0.006515
     2  N   -0.159573   0.006912
     3  O   -0.033941   0.011264
     4  C   -0.243349   0.043530
     5  C    0.191173   0.011686
     6  C   -0.480994   0.076497
     7  C   -0.220002  -0.008788
     8  C    1.039613   0.071773
     9  C   -0.323751   0.076941
    10  O   -0.426869   0.198821
    11  C    0.361413   0.014877
    12  C    0.023097   0.019724
    13  C   -0.492647   0.032543
    14  C   -0.448859   0.024765
    15  C    0.090023   0.039025
    16  C    0.050023   0.027473
    17  C   -0.992469   0.082285
    18  O   -0.393662   0.213893
    19  C    0.190108   0.063770
    20  H    0.223122  -0.000923
    21  H    0.204995  -0.005038
    22  H    0.168585   0.000519
    23  H    0.167891  -0.001399
    24  H    0.185643  -0.002669
    25  H    0.187648  -0.002005
    26  H    0.169523  -0.001990
 Sum of Mulliken charges =  -1.00000   1.00000

 Dipole moment (field-independent basis, Debye):
    X=             -1.5254    Y=              3.0560    Z=              0.1499  Tot=              3.4188
 Quadrupole moment (field-independent basis, Debye-Ang):
   XX=           -122.1918   YY=           -139.8340   ZZ=           -118.1711
   XY=             30.1519   XZ=              0.6993   YZ=             -0.7704

 Normal termination of Gaussian 16 at Sun Jan 14 01:18:32 2024.
