 Q-Chem 5.4, Q-Chem, Inc., Pleasanton, CA (2021)
 Q-Chem 5.4.0 for Intel X86 EM64T Linux

User input:
--------------------------------------------------------------
$molecule
-2 2
C                 -5.0387930000     -0.0931450000     -3.9542600000
C                 -4.4824440000     -0.0681670000     -5.2224950000
C                 -3.0803140000      0.0018760000     -5.3709760000
C                 -4.2364120000     -0.0501970000     -2.7970930000
C                 -2.8232980000      0.0203240000     -2.9486870000
C                 -2.2733180000      0.0449630000     -4.2476830000
C                 -4.8948320000     -0.0800570000     -1.4653540000
C                 -3.9842070000     -0.0318260000     -0.3319050000
C                 -2.6180270000      0.0361820000     -0.5000110000
C                 -1.9480950000      0.0668200000     -1.7718800000
O                 -6.1410680000     -0.1423170000     -1.3878230000
O                 -0.6856950000      0.1298700000     -1.8854360000
S                 -4.6257680000     -0.0596440000      1.3973980000
O                 -5.4808660000      1.1509990000      1.5383350000
O                 -5.3566950000     -1.3483750000      1.5444010000
O                 -3.3971290000      0.0034420000      2.2489370000
H                 -6.1120720000     -0.1466410000     -3.8055070000
H                 -5.1225920000     -0.1023410000     -6.1012280000
H                 -2.6376810000      0.0218140000     -6.3645800000
H                 -1.1923390000      0.0990260000     -4.3255180000
H                 -1.9962640000      0.0693630000      0.3873150000
$end
$rem
MAX_SCF_CYCLES=200
BASIS  =  6-311++G(d,p)
GUI  =  2
JOB_TYPE  =  SP
METHOD  =  B3LYP
SOLVENT_METHOD = PCM
$end
$pcm
theory = CPCM
$end
$solvent
dielectric 37.219
opticaldielectric 1.43
$end

--------------------------------------------------------------

             Standard Nuclear Orientation (Angstroms)
    I     Atom           X                Y                Z
 ----------------------------------------------------------------
    1      C      -5.0387930000    -0.0931450000    -3.9542600000
    2      C      -4.4824440000    -0.0681670000    -5.2224950000
    3      C      -3.0803140000     0.0018760000    -5.3709760000
    4      C      -4.2364120000    -0.0501970000    -2.7970930000
    5      C      -2.8232980000     0.0203240000    -2.9486870000
    6      C      -2.2733180000     0.0449630000    -4.2476830000
    7      C      -4.8948320000    -0.0800570000    -1.4653540000
    8      C      -3.9842070000    -0.0318260000    -0.3319050000
    9      C      -2.6180270000     0.0361820000    -0.5000110000
   10      C      -1.9480950000     0.0668200000    -1.7718800000
   11      O      -6.1410680000    -0.1423170000    -1.3878230000
   12      O      -0.6856950000     0.1298700000    -1.8854360000
   13      S      -4.6257680000    -0.0596440000     1.3973980000
   14      O      -5.4808660000     1.1509990000     1.5383350000
   15      O      -5.3566950000    -1.3483750000     1.5444010000
   16      O      -3.3971290000     0.0034420000     2.2489370000
   17      H      -6.1120720000    -0.1466410000    -3.8055070000
   18      H      -5.1225920000    -0.1023410000    -6.1012280000
   19      H      -2.6376810000     0.0218140000    -6.3645800000
   20      H      -1.1923390000     0.0990260000    -4.3255180000
   21      H      -1.9962640000     0.0693630000     0.3873150000
 ----------------------------------------------------------------

    9   -1158.8824940758      5.53e-06  Convergence criterion met
 Total energy in the final basis set =    -1158.8824940758

                    Orbital Energies (a.u.)
 --------------------------------------------------------------

 Alpha MOs
 -- Occupied --
-89.0399 -19.0860 -19.0860 -19.0835 -19.0812 -19.0803 -10.2344 -10.2250
-10.1867 -10.1764 -10.1748 -10.1740 -10.1735 -10.1704 -10.1703 -10.1669
 -8.0985  -6.0613  -6.0612  -6.0601  -1.1016  -1.0103  -0.9990  -0.9677
 -0.9637  -0.8583  -0.8096  -0.7503  -0.7455  -0.6835  -0.6352  -0.6161
 -0.5777  -0.5548  -0.5092  -0.5021  -0.4821  -0.4605  -0.4486  -0.4465
 -0.4320  -0.4241  -0.4203  -0.4188  -0.4092  -0.3899  -0.3823  -0.3557
 -0.3544  -0.3381  -0.3303  -0.3296  -0.3064  -0.2944  -0.2884  -0.2755
 -0.2570  -0.2523  -0.2498  -0.2491  -0.2381  -0.1587

 Beta MOs
 -- Occupied --
-89.0399 -19.0859 -19.0858 -19.0836 -19.0756 -19.0738 -10.2330 -10.2233
-10.1850 -10.1760 -10.1746 -10.1738 -10.1731 -10.1703 -10.1703 -10.1650
 -8.0985  -6.0613  -6.0612  -6.0601  -1.1015  -1.0005  -0.9874  -0.9674
 -0.9636  -0.8564  -0.8041  -0.7486  -0.7435  -0.6740  -0.6331  -0.6136
 -0.5761  -0.5524  -0.5070  -0.5002  -0.4793  -0.4592  -0.4478  -0.4462
 -0.4307  -0.4234  -0.4164  -0.4045  -0.4043  -0.3874  -0.3577  -0.3545
 -0.3454  -0.3371  -0.3300  -0.3293  -0.2996  -0.2923  -0.2882  -0.2526
 -0.2510  -0.2496  -0.2452  -0.2435  -0.2331

          Ground-State Mulliken Net Atomic Charges

     Atom                 Charge (a.u.)    Spin (a.u.)
  --------------------------------------------------------
      1 C                     0.128367       0.021953
      2 C                    -0.426755       0.028243
      3 C                    -0.412334       0.010787
      4 C                    -0.033671       0.005712
      5 C                     0.491794       0.033195
      6 C                     0.066013       0.025983
      7 C                    -0.488430       0.091680
      8 C                    -0.494366       0.118206
      9 C                     0.043105       0.131822
     10 C                    -0.410700       0.094364
     11 O                    -0.433678       0.210369
     12 O                    -0.507240       0.237727
     13 S                     0.724948      -0.001465
     14 O                    -0.391745       0.006906
     15 O                    -0.391582       0.006905
     16 O                    -0.451068      -0.001319
     17 H                     0.173151      -0.002012
     18 H                     0.201021      -0.002167
     19 H                     0.203465      -0.001097
     20 H                     0.168581      -0.003434
     21 H                     0.241125      -0.012356
  --------------------------------------------------------
  Sum of atomic charges =    -2.000000

                    Cartesian Multipole Moments
 -----------------------------------------------------------------
    Charge (ESU x 10^10)
                -9.6064
    Dipole Moment (Debye)
         X      39.9323      Y       0.3698      Z      -4.0995
       Tot      40.1439
    Quadrupole Moments (Debye-Ang)
        XX    -318.2662     XY      -3.3733     YY    -114.9166
        XZ      31.3143     YZ       0.8414     ZZ    -128.9603

 Total job time:  54.04s(wall), 275.98s(cpu)
        *  Thank you very much for using Q-Chem.  Have a nice day.  *
