 Gaussian 16, Revision A.03,
 Gaussian 16:  ES64L-G16RevA.03 25-Dec-2016

 ----------------------------------------------------------------------
 #P UB3LYP/6-311++G(d,p) nosym opt freq SCRF=(PCM,Solvent=n,n-DiMethylF
 ormamide)
 ----------------------------------------------------------------------

 -------
 Radical
 -------
 Symbolic Z-matrix:
 Charge = -1 Multiplicity = 2

 SCF Done:  E(UB3LYP) =  -1043.24057483     A.U. after   20 cycles
 SCF Done:  E(UB3LYP) =  -1043.24084328     A.U. after   16 cycles
 SCF Done:  E(UB3LYP) =  -1043.24086744     A.U. after   15 cycles
 SCF Done:  E(UB3LYP) =  -1043.24089009     A.U. after   13 cycles
 SCF Done:  E(UB3LYP) =  -1043.24089343     A.U. after   13 cycles
 SCF Done:  E(UB3LYP) =  -1043.24089438     A.U. after   13 cycles
 SCF Done:  E(UB3LYP) =  -1043.24089462     A.U. after   10 cycles
 SCF Done:  E(UB3LYP) =  -1043.24089479     A.U. after   10 cycles
 SCF Done:  E(UB3LYP) =  -1043.24089481     A.U. after    9 cycles
 Optimization completed.
    -- Stationary point found.
 Normal termination of Gaussian 16 at Sun Feb 11 04:43:28 2024.

 ----------------------------------------------------------------------
 #P Geom=AllCheck Guess=TCheck SCRF=Check GenChk UB3LYP/6-311++G(d,p) F
 req
 ----------------------------------------------------------------------

 Structure from the checkpoint file:  "288-rad.chk"
 -------
 Radical
 -------
 Charge = -1 Multiplicity = 2

                          Input orientation:
 ---------------------------------------------------------------------
 Center     Atomic      Atomic             Coordinates (Angstroms)
 Number     Number       Type             X           Y           Z
 ---------------------------------------------------------------------
      1          6           0       -2.015450    3.062294    0.462254
      2          6           0       -2.778549    2.416586    1.418438
      3          6           0       -2.362228    1.171565    1.927145
      4          6           0       -0.816741    2.489549   -0.015737
      5          6           0       -0.393141    1.230424    0.496960
      6          6           0       -1.188321    0.595024    1.469051
      7          6           0       -0.016787    3.164889   -1.016963
      8          6           0        1.192718    2.505700   -1.441583
      9          6           0        1.632185    1.284270   -0.969832
     10          6           0        0.854041    0.591237    0.029487
     11          8           0       -0.306927    4.293176   -1.543113
     12          8           0        1.214859   -0.529070    0.494638
     13          1           0       -2.324355    4.021080    0.062345
     14          1           0       -3.697208    2.868515    1.776935
     15          1           0       -2.960237    0.665184    2.677043
     16          1           0       -0.857585   -0.362343    1.853545
     17          6           0        2.920023    0.674201   -1.463050
     18          8           0        1.901104    3.194699   -2.383223
     19          1           0        3.086546    0.962799   -2.505461
     20          1           0        2.822762   -0.414561   -1.432852
     21          1           0        1.358372    3.997664   -2.528702
     22          6           0        4.152099    1.084118   -0.630766
     23          6           0        5.453749    0.446310   -1.128151
     24          6           0        6.686483    0.853766   -0.312984
     25          1           0        3.983769    0.804526    0.415579
     26          1           0        4.250691    2.175958   -0.649732
     27          1           0        5.610576    0.718602   -2.180262
     28          1           0        5.351508   -0.646654   -1.107543
     29          1           0        6.530430    0.580083    0.738659
     30          1           0        6.786375    1.946899   -0.332309
     31          6           0        7.990858    0.220118   -0.810409
     32          6           0        9.223125    0.630755    0.003843
     33          6           0       10.528120   -0.002412   -0.492306
     34          6           0       11.760265    0.411629    0.320453
     35          6           0       13.065539   -0.221189   -0.174756
     36          6           0       14.298221    0.194268    0.636440
     37          6           0       15.597272   -0.443308    0.134291
     38          1           0        8.146220    0.492597   -1.862523
     39          1           0        7.892119   -0.873105   -0.789542
     40          1           0        9.067432    0.358970    1.056070
     41          1           0        9.321627    1.723994   -0.017538
     42          1           0       10.682898    0.267637   -1.545122
     43          1           0       10.430764   -1.095689   -0.468755
     44          1           0       11.605429    0.142104    1.373401
     45          1           0       11.857594    1.504921    0.296419
     46          1           0       13.221036    0.047086   -1.228071
     47          1           0       12.970105   -1.314746   -0.149440
     48          1           0       14.143658   -0.073663    1.688854
     49          1           0       14.394559    1.286655    0.610742
     50          1           0       15.544175   -1.535879    0.180783
     51          1           0       16.455968   -0.126450    0.733216
     52          1           0       15.796553   -0.165797   -0.905886
 ---------------------------------------------------------------------

 SCF Done:  E(UB3LYP) =  -1043.24089481     A.U. after    1 cycles

 Alpha  occ. eigenvalues --  -19.14332 -19.08415 -19.07226 -10.22216 -10.22079
 Alpha  occ. eigenvalues --  -10.21991 -10.17451 -10.17262 -10.17234 -10.17118
 Alpha  occ. eigenvalues --  -10.17084 -10.16952 -10.16215 -10.16066 -10.15820
 Alpha  occ. eigenvalues --  -10.15800 -10.15781 -10.15756 -10.15755 -10.15732
 Alpha  occ. eigenvalues --  -10.15701 -10.15659 -10.15635 -10.15446  -1.06218
 Alpha  occ. eigenvalues --   -0.99491  -0.99300  -0.85803  -0.81452  -0.80850
 Alpha  occ. eigenvalues --   -0.79510  -0.77640  -0.75592  -0.75011  -0.73349
 Alpha  occ. eigenvalues --   -0.70617  -0.67905  -0.65995  -0.63198  -0.61683
 Alpha  occ. eigenvalues --   -0.60027  -0.58100  -0.57578  -0.57075  -0.56972
 Alpha  occ. eigenvalues --   -0.56726  -0.53582  -0.50455  -0.48511  -0.48192
 Alpha  occ. eigenvalues --   -0.47140  -0.46053  -0.45268  -0.44797  -0.43647
 Alpha  occ. eigenvalues --   -0.43213  -0.42645  -0.42589  -0.42103  -0.41606
 Alpha  occ. eigenvalues --   -0.41054  -0.40383  -0.39997  -0.39131  -0.38653
 Alpha  occ. eigenvalues --   -0.38230  -0.37883  -0.37515  -0.36641  -0.36279
 Alpha  occ. eigenvalues --   -0.35427  -0.34708  -0.34298  -0.34158  -0.33796
 Alpha  occ. eigenvalues --   -0.33504  -0.32775  -0.32698  -0.32412  -0.32019
 Alpha  occ. eigenvalues --   -0.31976  -0.31824  -0.31677  -0.29598  -0.26632
 Alpha  occ. eigenvalues --   -0.25759  -0.25708  -0.23814  -0.22722  -0.15078
 Alpha virt. eigenvalues --   -0.03275  -0.00833  -0.00468  -0.00237   0.00408
 Alpha virt. eigenvalues --    0.00711   0.00753   0.01182   0.01489   0.01796
 Alpha virt. eigenvalues --    0.02241   0.02364   0.03224   0.03351   0.03679

  Beta  occ. eigenvalues --  -19.14283 -19.07780 -19.06682 -10.22082 -10.21976
  Beta  occ. eigenvalues --  -10.21707 -10.17436 -10.17229 -10.17154 -10.17043
  Beta  occ. eigenvalues --  -10.17034 -10.16970 -10.16136 -10.16066 -10.15820
  Beta  occ. eigenvalues --  -10.15800 -10.15781 -10.15761 -10.15756 -10.15732
  Beta  occ. eigenvalues --  -10.15701 -10.15653 -10.15632 -10.15446  -1.06011
  Beta  occ. eigenvalues --   -0.98538  -0.98215  -0.85570  -0.81330  -0.80720
  Beta  occ. eigenvalues --   -0.79411  -0.77538  -0.75478  -0.74806  -0.73278
  Beta  occ. eigenvalues --   -0.70514  -0.67487  -0.65526  -0.63108  -0.61512
  Beta  occ. eigenvalues --   -0.59884  -0.58004  -0.57571  -0.56978  -0.56967
  Beta  occ. eigenvalues --   -0.56561  -0.53409  -0.50227  -0.48465  -0.47993
  Beta  occ. eigenvalues --   -0.47068  -0.45939  -0.45180  -0.44759  -0.43229
  Beta  occ. eigenvalues --   -0.42872  -0.42587  -0.42486  -0.41701  -0.41415
  Beta  occ. eigenvalues --   -0.40654  -0.40204  -0.39800  -0.38964  -0.38130
  Beta  occ. eigenvalues --   -0.37712  -0.37673  -0.37356  -0.36589  -0.35428
  Beta  occ. eigenvalues --   -0.35106  -0.34445  -0.34149  -0.33672  -0.33343
  Beta  occ. eigenvalues --   -0.32858  -0.32649  -0.32530  -0.32388  -0.32013
  Beta  occ. eigenvalues --   -0.31948  -0.31821  -0.31631  -0.29552  -0.25197
  Beta  occ. eigenvalues --   -0.25005  -0.24645  -0.23301  -0.21788
  Beta virt. eigenvalues --   -0.08521  -0.02526  -0.00489  -0.00232   0.00241
  Beta virt. eigenvalues --    0.00455   0.00717   0.00766   0.01188   0.01500
  Beta virt. eigenvalues --    0.01804   0.02251   0.02366   0.03240   0.03361

 Mulliken charges and spin densities:
               1          2
     1  C    0.007704   0.071250
     2  C   -0.374081  -0.000624
     3  C   -0.434810   0.069140
     4  C    0.539290  -0.002390
     5  C   -0.106566   0.057817
     6  C    0.049198   0.003198
     7  C   -0.914340   0.162746
     8  C   -0.628304   0.061152
     9  C    2.012538   0.058623
    10  C   -0.719022   0.074930
    11  O   -0.528798   0.232359
    12  O   -0.465465   0.201391
    13  H    0.166674  -0.004082
    14  H    0.182533  -0.000633
    15  H    0.177972  -0.004964
    16  H    0.167807  -0.000409
    17  C   -0.384460   0.013437
    18  O   -0.279159   0.016297
    19  H    0.214436  -0.000344
    20  H    0.203764   0.002087
    21  H    0.289863  -0.003627
    22  C   -0.882998  -0.002013
    23  C   -0.342017  -0.000064
    24  C   -0.020673  -0.004664
    25  H    0.176557  -0.001597
    26  H    0.168393   0.002512
    27  H    0.114048  -0.000485
    28  H    0.114410   0.000421
    29  H    0.124339  -0.000024
    30  H    0.125423  -0.000103
    31  C    0.031844  -0.001631
    32  C    0.061133  -0.000176
    33  C   -0.042471   0.000428
    34  C   -0.303761   0.000027
    35  C   -0.494505   0.000028
    36  C   -0.286631  -0.000007
    37  C   -0.689808   0.000003
    38  H    0.131653  -0.000004
    39  H    0.132774  -0.000002
    40  H    0.129238   0.000004
    41  H    0.129100  -0.000005
    42  H    0.128319  -0.000010
    43  H    0.128464   0.000006
    44  H    0.126968  -0.000001
    45  H    0.126468   0.000001
    46  H    0.123743   0.000003
    47  H    0.123673  -0.000003
    48  H    0.130968  -0.000000
    49  H    0.130848   0.000001
    50  H    0.139829   0.000000
    51  H    0.148062   0.000001
    52  H    0.139838  -0.000000
 Sum of Mulliken charges =  -1.00000   1.00000

 Dipole moment (field-independent basis, Debye):
    X=             -3.0540    Y=             -8.3893    Z=              2.7984  Tot=              9.3561
 Quadrupole moment (field-independent basis, Debye-Ang):
   XX=           -161.7116   YY=           -192.3871   ZZ=           -160.6524
   XY=              2.7413   XZ=             -1.3263   YZ=             13.2970

  Exact polarizability: 436.754 -49.135 399.994 -65.181 -57.197 347.071
 Approx polarizability: 428.672 -49.039 464.214 -66.625 -77.186 387.667

                      1                      2                      3
                      A                      A                      A
 Frequencies --     12.5874                18.4807                20.0572
 Red. masses --      5.0541                 4.5329                 1.8521
 Frc consts  --      0.0005                 0.0009                 0.0004
 IR Inten    --      0.0707                 0.2002                 0.2385

                      4                      5                      6
                      A                      A                      A
 Frequencies --     29.6794                43.6964                58.1433
 Red. masses --      3.2974                 4.7961                 2.4752
 Frc consts  --      0.0017                 0.0054                 0.0049
 IR Inten    --      0.8279                 2.4556                 0.3564

                      7                      8                      9
                      A                      A                      A
 Frequencies --     74.1281                84.2730               100.7453
 Red. masses --      1.8623                 5.6683                 2.3868
 Frc consts  --      0.0060                 0.0237                 0.0143
 IR Inten    --      0.2547                 9.9205                 0.0806

                     10                     11                     12
                      A                      A                      A
 Frequencies --    104.5818               113.9960               121.1127
 Red. masses --      4.3262                 4.9382                 1.9496
 Frc consts  --      0.0279                 0.0378                 0.0168
 IR Inten    --      1.6682                 1.1258                 0.1820

                     13                     14                     15
                      A                      A                      A
 Frequencies --    140.4359               145.3228               160.4627
 Red. masses --      1.9797                 5.2774                 2.0320
 Frc consts  --      0.0230                 0.0657                 0.0308
 IR Inten    --      0.0296                 0.2231                 0.1160

                     16                     17                     18
                      A                      A                      A
 Frequencies --    167.7574               171.1362               183.2582
 Red. masses --      2.0074                 4.6430                 5.7545
 Frc consts  --      0.0333                 0.0801                 0.1139
 IR Inten    --      0.0153                 1.2171                 1.4703

                     19                     20                     21
                      A                      A                      A
 Frequencies --    235.9154               243.7974               253.2920
 Red. masses --      4.3361                 1.1203                 4.3329
 Frc consts  --      0.1422                 0.0392                 0.1638
 IR Inten    --      0.0125                 0.0018                 5.8037

                     22                     23                     24
                      A                      A                      A
 Frequencies --    277.4391               299.3956               320.4485
 Red. masses --      3.6908                 2.8932                 4.5922
 Frc consts  --      0.1674                 0.1528                 0.2778
 IR Inten    --      2.0528                 4.3231                 4.6521

                     25                     26                     27
                      A                      A                      A
 Frequencies --    338.9119               377.8878               381.9800
 Red. masses --      5.5288                 9.0289                 3.8014
 Frc consts  --      0.3742                 0.7596                 0.3268
 IR Inten    --     28.0783                26.7952                 0.3147

                     28                     29                     30
                      A                      A                      A
 Frequencies --    400.7679               428.2489               431.7908
 Red. masses --      3.8171                 6.6280                 6.8889
 Frc consts  --      0.3612                 0.7162                 0.7567
 IR Inten    --      1.4809                 2.6221                 3.7716

                     31                     32                     33
                      A                      A                      A
 Frequencies --    449.2323               477.0503               490.2728
 Red. masses --      3.7073                 4.0749                 3.6642
 Frc consts  --      0.4408                 0.5464                 0.5189
 IR Inten    --      4.1763                 4.2859                 1.6929

                     34                     35                     36
                      A                      A                      A
 Frequencies --    504.2158               533.8378               574.6810
 Red. masses --      3.6796                 6.2507                 5.2876
 Frc consts  --      0.5512                 1.0495                 1.0289
 IR Inten    --      0.8747                 1.5733                 3.3149

                     37                     38                     39
                      A                      A                      A
 Frequencies --    643.3634               656.8933               675.0512
 Red. masses --      6.1102                 1.1137                 5.7591
 Frc consts  --      1.4901                 0.2832                 1.5462
 IR Inten    --     33.1056               135.2127                 9.6922

                     40                     41                     42
                      A                      A                      A
 Frequencies --    696.9327               706.8596               713.4450
 Red. masses --      3.0470                 3.5333                 4.9753
 Frc consts  --      0.8720                 1.0402                 1.4921
 IR Inten    --      3.3735                66.6290                28.0798

                     43                     44                     45
                      A                      A                      A
 Frequencies --    727.8258               728.5784               733.2600
 Red. masses --      1.0757                 1.0863                 1.1409
 Frc consts  --      0.3357                 0.3397                 0.3614
 IR Inten    --     18.2953                 0.9562                 3.3755

                     46                     47                     48
                      A                      A                      A
 Frequencies --    746.7459               764.1928               773.2892
 Red. masses --      1.1913                 3.3926                 1.2432
 Frc consts  --      0.3914                 1.1673                 0.4380
 IR Inten    --      0.0143                28.2252                 0.2776

                     49                     50                     51
                      A                      A                      A
 Frequencies --    787.2405               812.6021               855.1463
 Red. masses --      2.1292                 1.3499                 1.6947
 Frc consts  --      0.7775                 0.5252                 0.7302
 IR Inten    --     26.3952                 4.8520                15.8261

                     52                     53                     54
                      A                      A                      A
 Frequencies --    881.5525               892.0452               893.9124
 Red. masses --      1.3830                 1.7173                 1.9617
 Frc consts  --      0.6332                 0.8051                 0.9236
 IR Inten    --      0.0577                30.4899                 2.6597

                     55                     56                     57
                      A                      A                      A
 Frequencies --    937.0776               942.3851               979.9219
 Red. masses --      2.3662                 2.1205                 4.7823
 Frc consts  --      1.2242                 1.1096                 2.7056
 IR Inten    --     20.7921                25.7951                 3.6934

                     58                     59                     60
                      A                      A                      A
 Frequencies --    982.2303               989.0958               995.3710
 Red. masses --      1.3793                 3.3886                 1.4635
 Frc consts  --      0.7840                 1.9532                 0.8543
 IR Inten    --      2.5210                 8.0152                 4.1459

                     61                     62                     63
                      A                      A                      A
 Frequencies --    996.6509              1020.1158              1023.3475
 Red. masses --      1.2811                 3.5871                 3.5088
 Frc consts  --      0.7498                 2.1993                 2.1650
 IR Inten    --      0.0207                 9.5903                 9.8876

                     64                     65                     66
                      A                      A                      A
 Frequencies --   1039.1210              1040.9870              1047.0877
 Red. masses --      2.2080                 1.6084                 2.4841
 Frc consts  --      1.4047                 1.0269                 1.6047
 IR Inten    --     47.0464                 4.6154                 0.2592

                     67                     68                     69
                      A                      A                      A
 Frequencies --   1059.8309              1059.9608              1064.5214
 Red. masses --      1.7014                 2.4577                 2.1747
 Frc consts  --      1.1260                 1.6269                 1.4520
 IR Inten    --     75.7815                 0.6018                 0.4003

                     70                     71                     72
                      A                      A                      A
 Frequencies --   1065.1338              1086.1612              1109.6362
 Red. masses --      2.2751                 2.9861                 2.1356
 Frc consts  --      1.5207                 2.0756                 1.5493
 IR Inten    --      0.0944                 3.1310                 8.9444

                     73                     74                     75
                      A                      A                      A
 Frequencies --   1125.5523              1137.9052              1153.3662
 Red. masses --      1.6876                 2.8738                 1.3283
 Frc consts  --      1.2596                 2.1924                 1.0411
 IR Inten    --    140.0527                 4.2239                 2.6666

                     76                     77                     78
                      A                      A                      A
 Frequencies --   1192.9936              1201.2645              1204.1707
 Red. masses --      2.4754                 1.8823                 2.1714
 Frc consts  --      2.0757                 1.6004                 1.8551
 IR Inten    --     33.5007                 2.4257                38.6932

                     79                     80                     81
                      A                      A                      A
 Frequencies --   1224.1309              1231.1060              1250.9768
 Red. masses --      1.2441                 1.6116                 2.2708
 Frc consts  --      1.0984                 1.4391                 2.0937
 IR Inten    --      0.2810                11.2991                65.7686

                     82                     83                     84
                      A                      A                      A
 Frequencies --   1257.2721              1267.2600              1284.0429
 Red. masses --      1.2992                 1.5294                 1.7580
 Frc consts  --      1.2100                 1.4471                 1.7078
 IR Inten    --      0.0427                92.0259                25.0883

                     85                     86                     87
                      A                      A                      A
 Frequencies --   1291.7692              1298.5006              1315.9246
 Red. masses --      1.3992                 1.4763                 1.3101
 Frc consts  --      1.3756                 1.4666                 1.3366
 IR Inten    --     33.3787                20.0421               111.3736

                     88                     89                     90
                      A                      A                      A
 Frequencies --   1320.5650              1322.5886              1326.2512
 Red. masses --      1.3690                 1.0312                 1.4065
 Frc consts  --      1.4066                 1.0628                 1.4576
 IR Inten    --     26.7662                 2.8586               101.6386

                     91                     92                     93
                      A                      A                      A
 Frequencies --   1327.0706              1330.0801              1333.3192
 Red. masses --      1.0527                 1.2237                 1.0926
 Frc consts  --      1.0924                 1.2755                 1.1444
 IR Inten    --      1.9101                10.4986                 0.0812

                     94                     95                     96
                      A                      A                      A
 Frequencies --   1334.7280              1348.8139              1350.4298
 Red. masses --      1.1172                 1.8219                 3.7544
 Frc consts  --      1.1727                 1.9529                 4.0340
 IR Inten    --      0.6280                 4.4621                47.2397

                     97                     98                     99
                      A                      A                      A
 Frequencies --   1367.7922              1381.3797              1391.6867
 Red. masses --      1.4550                 1.5035                 1.5784
 Frc consts  --      1.6038                 1.6904                 1.8012
 IR Inten    --      4.0315                 0.7446                 0.6652

                    100                    101                    102
                      A                      A                      A
 Frequencies --   1395.7171              1396.0494              1403.5174
 Red. masses --      1.5958                 1.6457                 1.2634
 Frc consts  --      1.8315                 1.8898                 1.4664
 IR Inten    --      1.0114                 0.0248                 2.3070

                    103                    104                    105
                      A                      A                      A
 Frequencies --   1422.8615              1453.8278              1458.3779
 Red. masses --      2.7693                 1.6352                 2.5553
 Frc consts  --      3.3033                 2.0363                 3.2021
 IR Inten    --    727.3233               339.7510                71.6858

                    106                    107                    108
                      A                      A                      A
 Frequencies --   1470.2471              1470.4623              1472.2669
 Red. masses --      1.0708                 1.0715                 1.0891
 Frc consts  --      1.3638                 1.3651                 1.3908
 IR Inten    --      0.0791                 0.6681                 9.6052

                    109                    110                    111
                      A                      A                      A
 Frequencies --   1475.4428              1477.6274              1481.7802
 Red. masses --      1.3022                 1.5727                 1.1197
 Frc consts  --      1.6703                 2.0232                 1.4485
 IR Inten    --     61.9649                92.2072                 3.6400

                    112                    113                    114
                      A                      A                      A
 Frequencies --   1487.6183              1487.7858              1493.8830
 Red. masses --      1.0920                 1.0411                 1.0958
 Frc consts  --      1.4239                 1.3578                 1.4409
 IR Inten    --      2.4165                10.9036                 3.3803

                    115                    116                    117
                      A                      A                      A
 Frequencies --   1499.3148              1499.9189              1504.6446
 Red. masses --      3.0752                 1.2134                 1.0985
 Frc consts  --      4.0729                 1.6084                 1.4652
 IR Inten    --    850.4142               125.9426                 0.3512

                    118                    119                    120
                      A                      A                      A
 Frequencies --   1507.8168              1529.1161              1571.9593
 Red. masses --      1.0990                 5.2343                 5.3727
 Frc consts  --      1.4722                 7.2109                 7.8222
 IR Inten    --     29.5590                16.3215                16.7730

                    121                    122                    123
                      A                      A                      A
 Frequencies --   1622.9658              1631.4313              2987.1017
 Red. masses --      5.8902                 6.5798                 1.0570
 Frc consts  --      9.1411                10.3182                 5.5569
 IR Inten    --      7.9796                 6.3587                 3.3816

                    124                    125                    126
                      A                      A                      A
 Frequencies --   2987.7357              2988.7250              2990.6765
 Red. masses --      1.0574                 1.0573                 1.0581
 Frc consts  --      5.5611                 5.5644                 5.5758
 IR Inten    --      0.0052                 0.7317                 5.8652

                    127                    128                    129
                      A                      A                      A
 Frequencies --   2991.4981              2995.1818              2999.1293
 Red. masses --      1.0581                 1.0592                 1.0594
 Frc consts  --      5.5790                 5.5984                 5.6141
 IR Inten    --     14.1706                 1.3317               253.0469

                    130                    131                    132
                      A                      A                      A
 Frequencies --   3002.8159              3002.9536              3004.5181
 Red. masses --      1.0602                 1.0971                 1.0987
 Frc consts  --      5.6323                 5.8290                 5.8438
 IR Inten    --    229.7883                 6.1907                 0.0884

                    133                    134                    135
                      A                      A                      A
 Frequencies --   3008.0105              3008.6662              3012.9939
 Red. masses --      1.0895                 1.0689                 1.0355
 Frc consts  --      5.8080                 5.7008                 5.5384
 IR Inten    --     20.3309                58.6644                56.5591

                    136                    137                    138
                      A                      A                      A
 Frequencies --   3014.4001              3022.4971              3029.1975
 Red. masses --      1.1023                 1.1039                 1.0659
 Frc consts  --      5.9011                 5.9418                 5.7628
 IR Inten    --      0.7654                 1.9502                97.8865

                    139                    140                    141
                      A                      A                      A
 Frequencies --   3031.2435              3038.1910              3043.4586
 Red. masses --      1.0992                 1.1050                 1.1050
 Frc consts  --      5.9506                 6.0095                 6.0302
 IR Inten    --     20.9726                 2.1443               110.8504

                    142                    143                    144
                      A                      A                      A
 Frequencies --   3046.3572              3071.6479              3074.6882
 Red. masses --      1.1046                 1.1026                 1.1044
 Frc consts  --      6.0397                 6.1294                 6.1512
 IR Inten    --    420.9732               118.0452                68.5037

                    145                    146                    147
                      A                      A                      A
 Frequencies --   3076.5350              3158.4606              3172.0590
 Red. masses --      1.1011                 1.0858                 1.0898
 Frc consts  --      6.1405                 6.3819                 6.4606
 IR Inten    --     72.8278                 8.3975                19.4284

                    148                    149                    150
                      A                      A                      A
 Frequencies --   3185.6799              3190.9746              3532.4584
 Red. masses --      1.0927                 1.0942                 1.0640
 Frc consts  --      6.5334                 6.5643                 7.8223
 IR Inten    --     25.5328                33.3828               194.1035

 - Thermochemistry -
 -------------------
 Temperature   298.150 Kelvin.  Pressure   1.00000 Atm.
 Atom     1 has atomic number  6 and mass  12.00000

 Molecular mass:   328.20384 amu.
 Principal axes and moments of inertia in atomic units:
                           1         2         3
     Eigenvalues --  2652.15963********************
           X            0.98812  -0.10020   0.11653
           Y           -0.15345  -0.68508   0.71212
           Z           -0.00848   0.72154   0.69232
 This molecule is an asymmetric top.
 Rotational symmetry number  1.
 Warning -- assumption of classical behavior for rotation
           may cause significant error
 Rotational temperatures (Kelvin)      0.03266     0.00226     0.00219
 Rotational constants (GHZ):           0.68048     0.04710     0.04556
 Zero-point vibrational energy    1168452.6 (Joules/Mol)
                                  279.26687 (Kcal/Mol)
 Warning -- explicit consideration of  36 degrees of freedom as
           vibrations may cause significant error
 Vibrational temperatures:     18.11    26.59    28.86    42.70    62.87
          (Kelvin)             83.66   106.65   121.25   144.95   150.47
                              164.01   174.25   202.06   209.09   230.87
                              241.37   246.23   263.67   339.43   350.77
                              364.43   399.17   430.76   461.05   487.62
                              543.70   549.58   576.62   616.15   621.25
                              646.35   686.37   705.39   725.45   768.07
                              826.84   925.66   945.12   971.25  1002.73
                             1017.01  1026.49  1047.18  1048.26  1055.00
                             1074.40  1099.50  1112.59  1132.66  1169.15
                             1230.36  1268.36  1283.45  1286.14  1348.25
                             1355.88  1409.89  1413.21  1423.09  1432.12
                             1433.96  1467.72  1472.37  1495.06  1497.75
                             1506.53  1524.86  1525.05  1531.61  1532.49
                             1562.74  1596.52  1619.42  1637.19  1659.44
                             1716.45  1728.35  1732.53  1761.25  1771.29
                             1799.88  1808.93  1823.30  1847.45  1858.57
                             1868.25  1893.32  1900.00  1902.91  1908.18
                             1909.36  1913.69  1918.35  1920.38  1940.64
                             1942.97  1967.95  1987.50  2002.33  2008.13
                             2008.60  2019.35  2047.18  2091.73  2098.28
                             2115.36  2115.67  2118.26  2122.83  2125.98
                             2131.95  2140.35  2140.59  2149.36  2157.18
                             2158.05  2164.85  2169.41  2200.06  2261.70
                             2335.09  2347.27  4297.77  4298.69  4300.11
                             4302.92  4304.10  4309.40  4315.08  4320.38
                             4320.58  4322.83  4327.86  4328.80  4335.03
                             4337.05  4348.70  4358.34  4361.28  4371.28
                             4378.86  4383.03  4419.42  4423.79  4426.45
                             4544.32  4563.89  4583.48  4591.10  5082.42

 Zero-point correction=                           0.445040 (Hartree/Particle)
 Thermal correction to Energy=                    0.470043
 Thermal correction to Enthalpy=                  0.470987
 Thermal correction to Gibbs Free Energy=         0.385183
 Sum of electronic and zero-point Energies=          -1042.795855
 Sum of electronic and thermal Energies=             -1042.770852
 Sum of electronic and thermal Enthalpies=           -1042.769908
 Sum of electronic and thermal Free Energies=        -1042.855712

                     E (Thermal)             CV                S
                      KCal/Mol        Cal/Mol-Kelvin    Cal/Mol-Kelvin
 Total                  294.956             93.217            180.590
 Electronic               0.000              0.000              1.377
 Translational            0.889              2.981             43.261
 Rotational               0.889              2.981             36.641
 Vibrational            293.179             87.256             99.311
 Vibration     1          0.593              1.987              7.554
 Vibration     2          0.593              1.986              6.791
 Vibration     3          0.593              1.986              6.629
 Vibration     4          0.593              1.984              5.851
 Vibration     5          0.595              1.980              5.084
 Vibration     6          0.596              1.974              4.519
 Vibration     7          0.599              1.966              4.041
 Vibration     8          0.601              1.960              3.789
 Vibration     9          0.604              1.949              3.440
 Vibration    10          0.605              1.946              3.367
 Vibration    11          0.607              1.938              3.200
 Vibration    12          0.609              1.932              3.083
 Vibration    13          0.615              1.913              2.798
 Vibration    14          0.617              1.908              2.733
 Vibration    15          0.622              1.891              2.544
 Vibration    16          0.624              1.882              2.460
 Vibration    17          0.626              1.878              2.423
 Vibration    18          0.631              1.863              2.295
 Vibration    19          0.655              1.786              1.833
 Vibration    20          0.659              1.773              1.775
 Vibration    21          0.664              1.757              1.708
 Vibration    22          0.678              1.715              1.549
 Vibration    23          0.692              1.675              1.420
 Vibration    24          0.706              1.634              1.308
 Vibration    25          0.719              1.598              1.217
 Vibration    26          0.748              1.517              1.048
 Vibration    27          0.751              1.509              1.031
 Vibration    28          0.767              1.468              0.960
 Vibration    29          0.790              1.409              0.864
 Vibration    30          0.793              1.401              0.853
 Vibration    31          0.808              1.363              0.798
 Vibration    32          0.834              1.301              0.718
 Vibration    33          0.846              1.272              0.683
 Vibration    34          0.859              1.241              0.648
 Vibration    35          0.889              1.175              0.579
 Vibration    36          0.931              1.086              0.495

 Optimization completed.
    -- Stationary point found.
 Normal termination of Gaussian 16 at Sun Feb 11 09:14:33 2024.
