 Gaussian 16, Revision A.03,
 Gaussian 16:  ES64L-G16RevA.03 25-Dec-2016

 ----------------------------------------------
 #P UB3LYP/6-311++G(d,p) nosym opt freq SCF=YQC
 ----------------------------------------------

 -------
 Radical
 -------
 Symbolic Z-matrix:
 Charge = -1 Multiplicity = 2

 SCF Done:  E(UB3LYP) =  -770.038097995     a.u. after    7 cycles
 SCF Done:  E(UB3LYP) =  -770.038152834     A.U. after   15 cycles
 SCF Done:  E(UB3LYP) =  -770.065432915     a.u. after   20 cycles
 SCF Done:  E(UB3LYP) =  -770.065487359     A.U. after   14 cycles
 SCF Done:  E(UB3LYP) =  -770.069513668     a.u. after   14 cycles
 SCF Done:  E(UB3LYP) =  -770.069552745     A.U. after   14 cycles
 SCF Done:  E(UB3LYP) =  -770.070068947     a.u. after   11 cycles
 SCF Done:  E(UB3LYP) =  -770.070150527     A.U. after   14 cycles
 SCF Done:  E(UB3LYP) =  -770.070782935     a.u. after   20 cycles
 SCF Done:  E(UB3LYP) =  -770.070842973     A.U. after   13 cycles
 SCF Done:  E(UB3LYP) =  -770.072981057     a.u. after    1 cycles
 SCF Done:  E(UB3LYP) =  -770.072985102     A.U. after   11 cycles
 SCF Done:  E(UB3LYP) =  -770.072982260     a.u. after    1 cycles
 SCF Done:  E(UB3LYP) =  -770.072985333     A.U. after   10 cycles
 SCF Done:  E(UB3LYP) =  -770.072981307     a.u. after    1 cycles
 SCF Done:  E(UB3LYP) =  -770.072985481     A.U. after   10 cycles
 SCF Done:  E(UB3LYP) =  -770.072983176     a.u. after    1 cycles
 SCF Done:  E(UB3LYP) =  -770.072985587     A.U. after   10 cycles
 Optimization completed.
    -- Stationary point found.
 Normal termination of Gaussian 16 at Sun Jan  7 08:34:03 2024.

 ----------------------------------------------------------------------
 #P Geom=AllCheck Guess=TCheck SCRF=Check GenChk UB3LYP/6-311++G(d,p) F
 req
 ----------------------------------------------------------------------

 Structure from the checkpoint file:  "332-rad.chk"
 -------
 Radical
 -------
 Charge = -1 Multiplicity = 2

                          Input orientation:
 ---------------------------------------------------------------------
 Center     Atomic      Atomic             Coordinates (Angstroms)
 Number     Number       Type             X           Y           Z
 ---------------------------------------------------------------------
      1          6           0        3.462775    2.724000    0.354892
      2          6           0        2.773301    1.396009    0.201986
      3          6           0        1.404995    1.287410    0.146905
      4          6           0        0.721461    0.041730    0.024396
      5          6           0        1.551748   -1.115716   -0.045540
      6          6           0        2.923932   -1.064550   -0.005440
      7          6           0        3.771811   -2.302885   -0.104969
      8          6           0        3.615417    0.210437    0.124912
      9          8           0        4.871413    0.283636    0.168545
     10          6           0       -0.721378   -0.042274   -0.025572
     11          6           0       -1.416542   -1.273836    0.158627
     12          6           0       -2.785563   -1.381285    0.122094
     13          6           0       -3.489278   -2.691994    0.343599
     14          6           0       -3.615481   -0.210239   -0.124324
     15          8           0       -4.871492   -0.283103   -0.166972
     16          6           0       -2.911639    1.049766   -0.318718
     17          6           0       -1.540077    1.101330   -0.261823
     18          6           0       -3.745349    2.271248   -0.592803
     19          1           0        4.085352    2.741174    1.255858
     20          1           0        2.738718    3.541835    0.410063
     21          1           0        4.143604    2.910401   -0.482605
     22          1           0        0.821804    2.198089    0.233319
     23          1           0        1.085594   -2.087577   -0.168427
     24          1           0        3.153179   -3.199016   -0.206921
     25          1           0        4.453074   -2.243938   -0.960564
     26          1           0        4.410010   -2.412466    0.778419
     27          1           0       -0.844627   -2.171067    0.370283
     28          1           0       -4.176407   -2.629353    1.194238
     29          1           0       -4.107465   -2.955549   -0.521306
     30          1           0       -2.774277   -3.499323    0.525669
     31          1           0       -1.062583    2.059405   -0.437885
     32          1           0       -3.117614    3.156337   -0.729617
     33          1           0       -4.361623    2.132747   -1.487607
     34          1           0       -4.446792    2.458617    0.227288
 ---------------------------------------------------------------------

 SCF Done:  E(UB3LYP) =  -770.072985587     a.u. after    1 cycles
 SCF Done:  E(UB3LYP) =  -770.072985587     A.U. after    1 cycles

 Alpha  occ. eigenvalues --  -18.95602 -18.95602 -10.10330 -10.10329 -10.06961
 Alpha  occ. eigenvalues --  -10.06924 -10.05944 -10.05944 -10.05943 -10.05943
 Alpha  occ. eigenvalues --  -10.05752 -10.05752 -10.05752 -10.05751 -10.05721
 Alpha  occ. eigenvalues --  -10.05721 -10.05721 -10.05721  -0.88008  -0.88004
 Alpha  occ. eigenvalues --   -0.74871  -0.72197  -0.67381  -0.67077  -0.65820
 Alpha  occ. eigenvalues --   -0.61345  -0.57987  -0.57298  -0.56333  -0.54534
 Alpha  occ. eigenvalues --   -0.48661  -0.47180  -0.44934  -0.44085  -0.38782
 Alpha  occ. eigenvalues --   -0.38356  -0.34973  -0.33475  -0.33417  -0.32229
 Alpha  occ. eigenvalues --   -0.32002  -0.30700  -0.30389  -0.30333  -0.30327
 Alpha  occ. eigenvalues --   -0.29933  -0.29065  -0.28714  -0.28507  -0.27345
 Alpha  occ. eigenvalues --   -0.26295  -0.25953  -0.25159  -0.24925  -0.24286
 Alpha  occ. eigenvalues --   -0.23463  -0.23333  -0.22033  -0.19108  -0.13884
 Alpha  occ. eigenvalues --   -0.13302  -0.11958  -0.11644  -0.10374  -0.04830
 Alpha virt. eigenvalues --    0.07671   0.08124   0.08613   0.09074   0.09161
 Alpha virt. eigenvalues --    0.09341   0.10513   0.11290   0.11386   0.11460
 Alpha virt. eigenvalues --    0.11829   0.12156   0.12442   0.13472   0.13667

  Beta  occ. eigenvalues --  -18.95110 -18.95110 -10.10293 -10.10293 -10.06776
  Beta  occ. eigenvalues --  -10.06738 -10.05827 -10.05826 -10.05825 -10.05824
  Beta  occ. eigenvalues --  -10.05745 -10.05744 -10.05744 -10.05744 -10.05727
  Beta  occ. eigenvalues --  -10.05727 -10.05727 -10.05727  -0.87164  -0.87159
  Beta  occ. eigenvalues --   -0.74481  -0.71833  -0.67230  -0.66922  -0.65414
  Beta  occ. eigenvalues --   -0.61117  -0.57930  -0.57114  -0.56295  -0.54006
  Beta  occ. eigenvalues --   -0.48436  -0.46940  -0.44682  -0.43850  -0.38618
  Beta  occ. eigenvalues --   -0.38238  -0.34826  -0.33297  -0.33136  -0.31744
  Beta  occ. eigenvalues --   -0.31547  -0.30593  -0.30340  -0.30212  -0.30206
  Beta  occ. eigenvalues --   -0.29881  -0.28937  -0.28669  -0.28108  -0.27301
  Beta  occ. eigenvalues --   -0.26129  -0.25317  -0.24881  -0.24161  -0.23796
  Beta  occ. eigenvalues --   -0.23185  -0.22006  -0.21580  -0.17425  -0.13519
  Beta  occ. eigenvalues --   -0.12886  -0.11488  -0.11183  -0.07784
  Beta virt. eigenvalues --    0.00407   0.07677   0.08126   0.08622   0.09161
  Beta virt. eigenvalues --    0.10013   0.10038   0.10534   0.11296   0.11737
  Beta virt. eigenvalues --    0.11874   0.11905   0.12307   0.12458   0.13616

 Mulliken charges and spin densities:
               1          2
     1  C   -0.323576  -0.002240
     2  C    0.688848   0.089458
     3  C   -0.542074  -0.017967
     4  C    1.289999   0.172162
     5  C   -0.542780  -0.018004
     6  C    0.689657   0.089504
     7  C   -0.323038  -0.002231
     8  C   -1.954288  -0.011869
     9  O   -0.365002   0.186349
    10  C    1.290062   0.172177
    11  C   -0.542436  -0.017996
    12  C    0.689126   0.089520
    13  C   -0.323467  -0.002230
    14  C   -1.954155  -0.011881
    15  O   -0.364967   0.186315
    16  C    0.689199   0.089487
    17  C   -0.542746  -0.018011
    18  C   -0.323190  -0.002244
    19  H    0.156895   0.004009
    20  H    0.120970  -0.000222
    21  H    0.159493   0.004649
    22  H    0.003809  -0.001013
    23  H    0.003862  -0.001014
    24  H    0.120963  -0.000222
    25  H    0.156915   0.004009
    26  H    0.159491   0.004652
    27  H    0.003770  -0.001014
    28  H    0.156895   0.004014
    29  H    0.159506   0.004649
    30  H    0.120965  -0.000222
    31  H    0.003950  -0.001013
    32  H    0.120963  -0.000222
    33  H    0.156890   0.004011
    34  H    0.159492   0.004651
 Sum of Mulliken charges =  -1.00000   1.00000

 Dipole moment (field-independent basis, Debye):
    X=             -0.0004    Y=             -0.0008    Z=             -0.0025  Tot=              0.0026
 Quadrupole moment (field-independent basis, Debye-Ang):
   XX=           -214.6069   YY=           -112.1272   ZZ=           -114.4274
   XY=             -5.9774   XZ=             -3.4475   YZ=             -0.3213

  Exact polarizability: 572.633  20.643 221.768  15.806  -3.811 122.178
 Approx polarizability:1008.866  40.487 318.680  28.412  -4.206 194.812

                      1                      2                      3
                      A                      A                      A
 Frequencies --     27.0714                52.4117                88.4445
 Red. masses --      3.4518                 6.3886                 4.5680
 Frc consts  --      0.0015                 0.0103                 0.0211
 IR Inten    --      0.0000                 4.6064                 1.0587

                      4                      5                      6
                      A                      A                      A
 Frequencies --    109.5741               118.8473               128.9795
 Red. masses --      4.0110                 3.6712                 1.0358
 Frc consts  --      0.0284                 0.0306                 0.0102
 IR Inten    --      0.1168                10.7336                 0.0026

                      7                      8                      9
                      A                      A                      A
 Frequencies --    129.5359               131.9163               133.6752
 Red. masses --      1.0274                 1.0982                 1.0488
 Frc consts  --      0.0102                 0.0113                 0.0110
 IR Inten    --      0.0008                 0.0764                 0.5377

                     10                     11                     12
                      A                      A                      A
 Frequencies --    185.4583               227.3724               230.6816
 Red. masses --      3.6430                 3.4807                 2.9172
 Frc consts  --      0.0738                 0.1060                 0.0915
 IR Inten    --      0.0747                 0.0000                 0.0073

                     13                     14                     15
                      A                      A                      A
 Frequencies --    251.5678               258.4306               274.6654
 Red. masses --      2.8638                 3.4286                 2.6074
 Frc consts  --      0.1068                 0.1349                 0.1159
 IR Inten    --      0.0000                 0.0195                 6.0645

                     16                     17                     18
                      A                      A                      A
 Frequencies --    304.4101               305.2831               322.1180
 Red. masses --      4.3767                 4.8021                 4.3915
 Frc consts  --      0.2390                 0.2637                 0.2685
 IR Inten    --      0.0003                 0.3891                13.6768

                     19                     20                     21
                      A                      A                      A
 Frequencies --    345.4304               360.3668               465.3060
 Red. masses --      6.5054                 4.7546                 3.1334
 Frc consts  --      0.4573                 0.3638                 0.3997
 IR Inten    --      0.2982                 0.4244                 0.0000

                     22                     23                     24
                      A                      A                      A
 Frequencies --    472.7414               483.4843               500.9740
 Red. masses --      3.2912                 6.0601                 4.3921
 Frc consts  --      0.4334                 0.8346                 0.6495
 IR Inten    --      1.4682               119.5771                 4.6651

                     25                     26                     27
                      A                      A                      A
 Frequencies --    519.7944               528.1344               568.8338
 Red. masses --      4.7970                 5.4656                 3.6750
 Frc consts  --      0.7636                 0.8982                 0.7006
 IR Inten    --      0.0000                 0.0081                 0.2118

                     28                     29                     30
                      A                      A                      A
 Frequencies --    604.8072               624.5987               642.1901
 Red. masses --      4.7887                 3.4029                 3.0668
 Frc consts  --      1.0321                 0.7822                 0.7452
 IR Inten    --      2.2800                 0.0010                 0.2200

                     31                     32                     33
                      A                      A                      A
 Frequencies --    681.5162               774.0115               776.5954
 Red. masses --      5.7984                 5.6007                 5.6932
 Frc consts  --      1.5868                 1.9769                 2.0230
 IR Inten    --     21.6802                 7.3651                 0.3543

                     34                     35                     36
                      A                      A                      A
 Frequencies --    786.9437               853.0679               872.3971
 Red. masses --      4.2116                 4.9831                 1.3684
 Frc consts  --      1.5367                 2.1366                 0.6136
 IR Inten    --      0.0000                 1.8540                 0.0039

                     37                     38                     39
                      A                      A                      A
 Frequencies --    881.0129               893.0707               894.3033
 Red. masses --      1.3021                 1.3699                 1.5829
 Frc consts  --      0.5955                 0.6438                 0.7459
 IR Inten    --      0.6727                47.9661                 2.8331

                     40                     41                     42
                      A                      A                      A
 Frequencies --    950.7113               957.1050               959.2874
 Red. masses --      3.4750                 3.9535                 3.2660
 Frc consts  --      1.8505                 2.1338                 1.7708
 IR Inten    --     21.4371                 0.0000                 0.2434

                     43                     44                     45
                      A                      A                      A
 Frequencies --    985.3521              1031.3532              1041.9982
 Red. masses --      1.8229                 1.7985                 1.7560
 Frc consts  --      1.0428                 1.1271                 1.1233
 IR Inten    --     18.2570                 0.0000                 0.0049

                     46                     47                     48
                      A                      A                      A
 Frequencies --   1044.9963              1052.5433              1052.7545
 Red. masses --      1.7439                 1.4726                 1.4712
 Frc consts  --      1.1220                 0.9612                 0.9607
 IR Inten    --      0.7393                 0.0021                 0.0554

                     49                     50                     51
                      A                      A                      A
 Frequencies --   1053.3772              1054.0578              1087.8741
 Red. masses --      1.5208                 1.5153                 1.6705
 Frc consts  --      0.9942                 0.9920                 1.1648
 IR Inten    --      0.0062                 2.2565               110.5014

                     52                     53                     54
                      A                      A                      A
 Frequencies --   1194.1877              1236.9423              1238.2128
 Red. masses --      2.0579                 1.9915                 4.6352
 Frc consts  --      1.7291                 1.7953                 4.1870
 IR Inten    --      0.0001                 0.0008               205.0882

                     55                     56                     57
                      A                      A                      A
 Frequencies --   1250.8736              1300.9823              1324.5146
 Red. masses --      5.6323                 1.4736                 2.6458
 Frc consts  --      5.1924                 1.4695                 2.7348
 IR Inten    --      3.3111                 6.8739                 0.1377

                     58                     59                     60
                      A                      A                      A
 Frequencies --   1338.6278              1380.5304              1401.9185
 Red. masses --      2.7932                 2.0035                 1.3134
 Frc consts  --      2.9490                 2.2498                 1.5209
 IR Inten    --      0.0002                 8.3779                30.4554

                     61                     62                     63
                      A                      A                      A
 Frequencies --   1402.5055              1403.2047              1403.6712
 Red. masses --      1.3247                 1.2816                 1.2754
 Frc consts  --      1.5352                 1.4868                 1.4805
 IR Inten    --      0.0308                 2.4760                 0.0764

                     64                     65                     66
                      A                      A                      A
 Frequencies --   1435.2891              1451.3995              1464.4219
 Red. masses --      3.3373                 2.4019                 1.0460
 Frc consts  --      4.0507                 2.9811                 1.3217
 IR Inten    --      5.5629                 0.0003                 0.3339

                     67                     68                     69
                      A                      A                      A
 Frequencies --   1464.6109              1464.6679              1464.8499
 Red. masses --      1.0460                 1.0454                 1.0455
 Frc consts  --      1.3220                 1.3213                 1.3217
 IR Inten    --     17.4202                 0.1305                 0.3199

                     70                     71                     72
                      A                      A                      A
 Frequencies --   1472.0044              1486.7283              1492.6224
 Red. masses --      1.6000                 1.1501                 1.3663
 Frc consts  --      2.0426                 1.4978                 1.7934
 IR Inten    --      0.0976                69.2491                 0.0021

                     73                     74                     75
                      A                      A                      A
 Frequencies --   1493.0522              1500.5567              1536.4912
 Red. masses --      1.2342                 2.8403                 6.2538
 Frc consts  --      1.6210                 3.7681                 8.6987
 IR Inten    --      5.8269                 0.0379              1229.0872

                     76                     77                     78
                      A                      A                      A
 Frequencies --   1539.6256              1552.8144              1558.8366
 Red. masses --      3.6518                 4.2040                 5.9287
 Frc consts  --      5.1002                 5.9724                 8.4881
 IR Inten    --      0.0097                 0.0091                 0.0101

                     79                     80                     81
                      A                      A                      A
 Frequencies --   1631.4711              1647.4311              3008.5406
 Red. masses --      5.0884                 5.8916                 1.0344
 Frc consts  --      7.9798                 9.4210                 5.5164
 IR Inten    --      0.0001               167.2556                 6.8476

                     82                     83                     84
                      A                      A                      A
 Frequencies --   3008.6689              3008.6907              3009.9128
 Red. masses --      1.0344                 1.0344                 1.0345
 Frc consts  --      5.5169                 5.5170                 5.5218
 IR Inten    --    206.2801               205.8969                 0.0365

                     85                     86                     87
                      A                      A                      A
 Frequencies --   3051.6891              3051.6937              3051.7338
 Red. masses --      1.0988                 1.0988                 1.0988
 Frc consts  --      6.0289                 6.0289                 6.0290
 IR Inten    --      1.4982                 2.9048                 8.4009

                     88                     89                     90
                      A                      A                      A
 Frequencies --   3051.7812              3079.6400              3079.8579
 Red. masses --      1.0988                 1.1025                 1.1025
 Frc consts  --      6.0293                 6.1607                 6.1615
 IR Inten    --     99.0220                 0.8417                39.4128

                     91                     92                     93
                      A                      A                      A
 Frequencies --   3079.9570              3080.1869              3145.5545
 Red. masses --      1.1024                 1.1023                 1.0892
 Frc consts  --      6.1612                 6.1620                 6.3495
 IR Inten    --     36.3622                 0.1398                 1.9667

                     94                     95                     96
                      A                      A                      A
 Frequencies --   3147.0232              3164.1790              3166.6986
 Red. masses --      1.0887                 1.0859                 1.0867
 Frc consts  --      6.3526                 6.4054                 6.4206
 IR Inten    --      6.5799                64.1513                 0.2043

 - Thermochemistry -
 -------------------
 Temperature   298.150 Kelvin.  Pressure   1.00000 Atm.
 Atom     1 has atomic number  6 and mass  12.00000

 Molecular mass:   240.11503 amu.
 Principal axes and moments of inertia in atomic units:
                           1         2         3
     Eigenvalues --  2056.278918646.47275**********
           X            0.99772  -0.05637  -0.03707
           Y            0.05804   0.99728   0.04553
           Z            0.03440  -0.04757   0.99828
 This molecule is an asymmetric top.
 Rotational symmetry number  1.
 Warning -- assumption of classical behavior for rotation
           may cause significant error
 Rotational temperatures (Kelvin)      0.04212     0.01002     0.00818
 Rotational constants (GHZ):           0.87767     0.20873     0.17051
 Zero-point vibrational energy     716564.8 (Joules/Mol)
                                  171.26311 (Kcal/Mol)
 Warning -- explicit consideration of  28 degrees of freedom as
           vibrations may cause significant error
 Vibrational temperatures:     38.95    75.41   127.25   157.65   170.99
          (Kelvin)            185.57   186.37   189.80   192.33   266.83
                              327.14   331.90   361.95   371.82   395.18
                              437.98   439.23   463.46   497.00   518.49
                              669.47   680.17   695.63   720.79   747.87
                              759.87   818.43   870.18   898.66   923.97
                              980.55  1113.63  1117.35  1132.24  1227.37
                             1255.18  1267.58  1284.93  1286.70  1367.86
                             1377.06  1380.20  1417.70  1483.89  1499.20
                             1503.52  1514.38  1514.68  1515.57  1516.55
                             1565.21  1718.17  1779.68  1781.51  1799.73
                             1871.82  1905.68  1925.99  1986.28  2017.05
                             2017.89  2018.90  2019.57  2065.06  2088.24
                             2106.98  2107.25  2107.33  2107.59  2117.89
                             2139.07  2147.55  2148.17  2158.97  2210.67
                             2215.18  2234.15  2242.82  2347.32  2370.29
                             4328.62  4328.80  4328.83  4330.59  4390.70
                             4390.71  4390.76  4390.83  4430.92  4431.23
                             4431.37  4431.70  4525.75  4527.86  4552.55
                             4556.17

 Zero-point correction=                           0.272925 (Hartree/Particle)
 Thermal correction to Energy=                    0.290598
 Thermal correction to Enthalpy=                  0.291542
 Thermal correction to Gibbs Free Energy=         0.226752
 Sum of electronic and zero-point Energies=           -769.800060
 Sum of electronic and thermal Energies=              -769.782388
 Sum of electronic and thermal Enthalpies=            -769.781444
 Sum of electronic and thermal Free Energies=         -769.846234

                     E (Thermal)             CV                S
                      KCal/Mol        Cal/Mol-Kelvin    Cal/Mol-Kelvin
 Total                  182.353             66.625            136.362
 Electronic               0.000              0.000              1.377
 Translational            0.889              2.981             42.329
 Rotational               0.889              2.981             33.597
 Vibrational            180.575             60.664             59.058
 Vibration     1          0.593              1.984              6.033
 Vibration     2          0.596              1.977              4.724
 Vibration     3          0.601              1.957              3.694
 Vibration     4          0.606              1.942              3.276
 Vibration     5          0.609              1.934              3.119
 Vibration     6          0.611              1.924              2.961
 Vibration     7          0.612              1.924              2.953
 Vibration     8          0.612              1.921              2.918
 Vibration     9          0.613              1.920              2.892
 Vibration    10          0.632              1.860              2.273
 Vibration    11          0.651              1.799              1.900
 Vibration    12          0.652              1.794              1.874
 Vibration    13          0.664              1.760              1.720
 Vibration    14          0.667              1.749              1.672
 Vibration    15          0.677              1.720              1.567
 Vibration    16          0.695              1.665              1.393
 Vibration    17          0.696              1.664              1.388
 Vibration    18          0.707              1.631              1.299
 Vibration    19          0.724              1.585              1.187
 Vibration    20          0.735              1.554              1.121
 Vibration    21          0.823              1.327              0.751
 Vibration    22          0.830              1.311              0.730
 Vibration    23          0.840              1.287              0.701
 Vibration    24          0.856              1.248              0.656
 Vibration    25          0.875              1.206              0.610
 Vibration    26          0.883              1.188              0.591
 Vibration    27          0.925              1.099              0.506
 Vibration    28          0.963              1.022              0.441

 Optimization completed.
    -- Stationary point found.
 Normal termination of Gaussian 16 at Sun Jan  7 09:27:46 2024.
