 Q-Chem 5.4, Q-Chem, Inc., Pleasanton, CA (2021)
 Q-Chem 5.4.0 for Intel X86 EM64T Linux

User input:
--------------------------------------------------------------
$molecule
-2 1
C                  2.0816210000      3.8669450000      5.6660830000
C                  2.8607810000      3.2965410000      4.5805810000
C                  2.3769870000      2.3770130000      3.6805780000
C                  1.0218560000      1.8651400000      3.7087240000
C                  0.2427160000      2.4074630000      4.7556200000
C                  0.7096040000      3.3611750000      5.7201700000
O                  2.6062420000      4.7220380000      6.4478300000
O                  0.6066880000      0.9946510000      2.8391380000
H                  3.8886900000      3.6531100000      4.5121120000
H                  3.0240820000      1.9914320000      2.8901420000
H                 -0.7800580000      2.0583330000      4.8331620000
C                 -0.1818590000      3.8237830000      6.7646120000
O                  0.0316630000      4.5423900000      7.7325660000
O                 -1.5125140000      3.3445500000      6.5931960000
C                 -2.4070530000      3.6821640000      7.6316420000
H                 -3.3850010000      3.2867970000      7.3389820000
H                 -2.4795170000      4.7654600000      7.7774420000
H                 -2.1139070000      3.2388670000      8.5942620000
$end

$rem
BASIS  =  6-311++G(d,p)
GUI  =  2
JOB_TYPE  =  SP
METHOD  =  B3LYP
SCF_CONVERGENCE  = 8
SOLVENT_METHOD = sm12
$end

$smx
solvent dimethylformamide
charges CM5
$end

--------------------------------------------------------------

             Standard Nuclear Orientation (Angstroms)
    I     Atom           X                Y                Z
 ----------------------------------------------------------------
    1      C       2.0816210000     3.8669450000     5.6660830000
    2      C       2.8607810000     3.2965410000     4.5805810000
    3      C       2.3769870000     2.3770130000     3.6805780000
    4      C       1.0218560000     1.8651400000     3.7087240000
    5      C       0.2427160000     2.4074630000     4.7556200000
    6      C       0.7096040000     3.3611750000     5.7201700000
    7      O       2.6062420000     4.7220380000     6.4478300000
    8      O       0.6066880000     0.9946510000     2.8391380000
    9      H       3.8886900000     3.6531100000     4.5121120000
   10      H       3.0240820000     1.9914320000     2.8901420000
   11      H      -0.7800580000     2.0583330000     4.8331620000
   12      C      -0.1818590000     3.8237830000     6.7646120000
   13      O       0.0316630000     4.5423900000     7.7325660000
   14      O      -1.5125140000     3.3445500000     6.5931960000
   15      C      -2.4070530000     3.6821640000     7.6316420000
   16      H      -3.3850010000     3.2867970000     7.3389820000
   17      H      -2.4795170000     4.7654600000     7.7774420000
   18      H      -2.1139070000     3.2388670000     8.5942620000
 ----------------------------------------------------------------

   18    -609.4863388723      6.32e-09  Convergence criterion met
 Total energy in the final basis set =     -609.7819199866

                    Orbital Energies (a.u.)
 --------------------------------------------------------------

 Alpha MOs
 -- Occupied --
-19.1372 -19.0855 -19.0328 -19.0201 -10.2731 -10.2146 -10.1998 -10.1837
-10.1585 -10.1530 -10.1510 -10.1358  -1.0708  -0.9884  -0.9529  -0.9306
 -0.7992  -0.7468  -0.6943  -0.6643  -0.6079  -0.5668  -0.5295  -0.4817
 -0.4617  -0.4568  -0.4455  -0.4328  -0.4226  -0.3941  -0.3886  -0.3653
 -0.3586  -0.3486  -0.3474  -0.3282  -0.3221  -0.2852  -0.2619  -0.2443
 -0.2336  -0.1991  -0.1966  -0.1327

          Ground-State Mulliken Net Atomic Charges

     Atom                 Charge (a.u.)
  ----------------------------------------
      1 C                    -0.914977
      2 C                    -0.521958
      3 C                    -0.140523
      4 C                    -1.332845
      5 C                    -1.031803
      6 C                    -1.149488
      7 O                    -0.305632
      8 O                    -0.444640
      9 H                     0.122666
     10 H                     0.095893
     11 H                    -0.055996
     12 C                     2.788597
     13 O                    -0.251085
     14 O                    -0.110255
     15 C                     0.520994
     16 H                     0.316600
     17 H                     0.209154
     18 H                     0.205297
  ----------------------------------------
  Sum of atomic charges =    -2.000000

                    Cartesian Multipole Moments
 -----------------------------------------------------------------
    Charge (ESU x 10^10)
                -9.6064
    Dipole Moment (Debye)
         X     -12.7031      Y     -28.4751      Z     -47.3649
       Tot      56.7065
    Quadrupole Moments (Debye-Ang)
        XX    -107.0860     XY     -48.6546     YY    -192.1427
        XZ     -70.7927     YZ    -171.8579     ZZ    -347.8902

 Total job time:  212.72s(wall), 1495.75s(cpu)
        *  Thank you very much for using Q-Chem.  Have a nice day.  *
