 Gaussian 16, Revision A.03,
 Gaussian 16:  ES64L-G16RevA.03 25-Dec-2016

 ----------------------------------------------------------------------
 #P UB3LYP/6-311++G(d,p) nosym opt freq SCRF=(PCM,Solvent=n,n-DiMethylF
 ormamide)
 ----------------------------------------------------------------------

 --------
 Oxidized
 --------
 Symbolic Z-matrix:
 Charge =  0 Multiplicity = 1

 SCF Done:  E(UB3LYP) =  -718.713146682     A.U. after   15 cycles
 SCF Done:  E(UB3LYP) =  -718.713277153     A.U. after   11 cycles
 SCF Done:  E(UB3LYP) =  -718.713302637     A.U. after   11 cycles
 SCF Done:  E(UB3LYP) =  -718.713298309     A.U. after   10 cycles
 SCF Done:  E(UB3LYP) =  -718.713303111     A.U. after   10 cycles
 SCF Done:  E(UB3LYP) =  -718.713305319     A.U. after    9 cycles
 Optimization completed.
    -- Stationary point found.
 Normal termination of Gaussian 16 at Sat Feb 10 10:35:17 2024.

 ----------------------------------------------------------------------
 #P Geom=AllCheck Guess=TCheck SCRF=Check GenChk UB3LYP/6-311++G(d,p) F
 req
 ----------------------------------------------------------------------

 Structure from the checkpoint file:  "075.chk"
 --------
 Oxidized
 --------
 Charge =  0 Multiplicity = 1

                          Input orientation:
 ---------------------------------------------------------------------
 Center     Atomic      Atomic             Coordinates (Angstroms)
 Number     Number       Type             X           Y           Z
 ---------------------------------------------------------------------
      1          6           0        1.574321    1.082463   -1.550146
      2          6           0        0.113164    0.889826   -1.338552
      3          6           0       -0.353866    0.193646   -0.294772
      4          6           0        0.580450   -0.418401    0.702218
      5          6           0        2.030130   -0.218512    0.476777
      6          6           0        2.497168    0.477985   -0.567419
      7          8           0        1.978378    1.721124   -2.509275
      8          8           0        0.169875   -1.053293    1.658861
      9          6           0       -1.837029   -0.000059   -0.081500
     10          9           0       -2.566646    0.596920   -1.046826
     11          9           0       -2.175239   -1.307545   -0.084210
     12          9           0       -2.243694    0.518985    1.097118
     13          1           0       -0.540521    1.342794   -2.073629
     14          1           0        2.685053   -0.671394    1.211886
     15          1           0        3.556597    0.628783   -0.737929
 ---------------------------------------------------------------------

 SCF Done:  E(UB3LYP) =  -718.713305319     A.U. after    1 cycles

 Alpha  occ. eigenvalues --  -24.73526 -24.73236 -24.73235 -19.15970 -19.15948
 Alpha  occ. eigenvalues --  -10.45675 -10.30945 -10.30454 -10.25036 -10.24004
 Alpha  occ. eigenvalues --  -10.22620 -10.22487  -1.34116  -1.25300  -1.25092
 Alpha  occ. eigenvalues --   -1.09130  -1.08744  -0.89239  -0.83045  -0.75549
 Alpha  occ. eigenvalues --   -0.71829  -0.66751  -0.64609  -0.61956  -0.61589
 Alpha  occ. eigenvalues --   -0.58045  -0.54091  -0.52333  -0.50001  -0.49773
 Alpha  occ. eigenvalues --   -0.49320  -0.47201  -0.47021  -0.45692  -0.45334
 Alpha  occ. eigenvalues --   -0.44924  -0.43723  -0.43611  -0.43321  -0.41998
 Alpha  occ. eigenvalues --   -0.33585  -0.32143  -0.30900  -0.29817
 Alpha virt. eigenvalues --   -0.15470  -0.05647  -0.02259  -0.00212   0.01104
 Alpha virt. eigenvalues --    0.01781   0.03669   0.04129   0.04365   0.05361
 Alpha virt. eigenvalues --    0.06231   0.07231   0.07447   0.07589   0.08911

  Beta  occ. eigenvalues --  -24.73526 -24.73236 -24.73235 -19.15970 -19.15948
  Beta  occ. eigenvalues --  -10.45675 -10.30945 -10.30454 -10.25036 -10.24004
  Beta  occ. eigenvalues --  -10.22620 -10.22487  -1.34116  -1.25300  -1.25092
  Beta  occ. eigenvalues --   -1.09130  -1.08744  -0.89239  -0.83045  -0.75549
  Beta  occ. eigenvalues --   -0.71829  -0.66751  -0.64609  -0.61956  -0.61589
  Beta  occ. eigenvalues --   -0.58045  -0.54091  -0.52333  -0.50001  -0.49773
  Beta  occ. eigenvalues --   -0.49320  -0.47201  -0.47021  -0.45692  -0.45334
  Beta  occ. eigenvalues --   -0.44924  -0.43723  -0.43611  -0.43321  -0.41998
  Beta  occ. eigenvalues --   -0.33585  -0.32143  -0.30900  -0.29817
  Beta virt. eigenvalues --   -0.15470  -0.05647  -0.02259  -0.00212   0.01104
  Beta virt. eigenvalues --    0.01781   0.03669   0.04129   0.04365   0.05361
  Beta virt. eigenvalues --    0.06231   0.07231   0.07447   0.07589   0.08911

 Mulliken charges and spin densities:
               1          2
     1  C   -0.513360  -0.000000
     2  C   -0.439993   0.000000
     3  C    0.466469  -0.000000
     4  C   -0.413909  -0.000000
     5  C    0.054205  -0.000000
     6  C    0.292674   0.000000
     7  O   -0.260866   0.000000
     8  O   -0.255533   0.000000
     9  C    0.636359  -0.000000
    10  F   -0.157374  -0.000000
    11  F   -0.080466  -0.000000
    12  F   -0.080302  -0.000000
    13  H    0.243622  -0.000000
    14  H    0.253105   0.000000
    15  H    0.255370   0.000000
 Sum of Mulliken charges =  -0.00000  -0.00000

 Dipole moment (field-independent basis, Debye):
    X=              3.1847    Y=              0.5010    Z=             -0.5954  Tot=              3.2784
 Quadrupole moment (field-independent basis, Debye-Ang):
   XX=            -64.4243   YY=            -70.9720   ZZ=            -76.5878
   XY=             -4.9039   XZ=              7.7308   YZ=              6.9844

  Exact polarizability: 113.458  17.212  97.435 -23.663 -49.942 139.880
 Approx polarizability: 123.310  28.701 126.605 -41.463 -75.901 190.657

                      1                      2                      3
                      A                      A                      A
 Frequencies --     51.6823                79.6864               123.0295
 Red. masses --     11.7068                 8.0477                 8.4276
 Frc consts  --      0.0184                 0.0301                 0.0752
 IR Inten    --      4.2487                 6.7357                12.0630

                      4                      5                      6
                      A                      A                      A
 Frequencies --    165.3384               218.0286               281.7402
 Red. masses --     13.2191                 6.8481                13.9765
 Frc consts  --      0.2129                 0.1918                 0.6536
 IR Inten    --      0.8957                 0.3011                 0.8471

                      7                      8                      9
                      A                      A                      A
 Frequencies --    297.1488               336.6685               428.4126
 Red. masses --      4.5224                17.0431                 9.3477
 Frc consts  --      0.2353                 1.1382                 1.0108
 IR Inten    --      0.8649                 2.5765                38.8687

                     10                     11                     12
                      A                      A                      A
 Frequencies --    439.7088               467.6806               508.8518
 Red. masses --      5.1021                10.7806                 9.2344
 Frc consts  --      0.5812                 1.3893                 1.4088
 IR Inten    --      0.0094                 5.7623                 7.6674

                     13                     14                     15
                      A                      A                      A
 Frequencies --    537.5996               563.3158               643.6923
 Red. masses --      5.0217                 8.4476                 6.7669
 Frc consts  --      0.8551                 1.5794                 1.6519
 IR Inten    --      4.0213                16.7171                11.0027

                     16                     17                     18
                      A                      A                      A
 Frequencies --    649.1281               724.7907               787.1477
 Red. masses --      3.5120                12.9556                 3.5848
 Frc consts  --      0.8719                 4.0099                 1.3087
 IR Inten    --      2.4170                10.8533                 0.1979

                     19                     20                     21
                      A                      A                      A
 Frequencies --    801.2764               848.6777               850.0994
 Red. masses --      5.4991                 2.2887                 5.7622
 Frc consts  --      2.0802                 0.9712                 2.4535
 IR Inten    --     14.3370                22.0046                11.3187

                     22                     23                     24
                      A                      A                      A
 Frequencies --    948.9956               995.5736              1013.3334
 Red. masses --      1.5648                 4.9814                 1.2572
 Frc consts  --      0.8303                 2.9090                 0.7606
 IR Inten    --    107.7060               138.9451                 0.2369

                     25                     26                     27
                      A                      A                      A
 Frequencies --   1091.4706              1103.6694              1126.2747
 Red. masses --     10.7845                 2.9883                 2.2983
 Frc consts  --      7.5696                 2.1446                 1.7177
 IR Inten    --    427.8432               281.1341               122.0737

                     28                     29                     30
                      A                      A                      A
 Frequencies --   1210.6492              1261.0341              1297.5664
 Red. masses --      2.4914                 2.4951                 2.8956
 Frc consts  --      2.1514                 2.3377                 2.8724
 IR Inten    --     68.4390               376.8888                14.5287

                     31                     32                     33
                      A                      A                      A
 Frequencies --   1367.2777              1396.2645              1655.0885
 Red. masses --      2.3107                 2.2666                 7.9075
 Frc consts  --      2.5451                 2.6035                12.7624
 IR Inten    --    125.3976                22.5651                16.2897

                     34                     35                     36
                      A                      A                      A
 Frequencies --   1688.1082              1708.4603              1725.6651
 Red. masses --     10.8495                11.2914                 8.9309
 Frc consts  --     18.2163                19.4182                15.6696
 IR Inten    --      5.9050              1096.3998                26.1550

                     37                     38                     39
                      A                      A                      A
 Frequencies --   3189.3678              3204.2556              3207.4496
 Red. masses --      1.0881                 1.0991                 1.0940
 Frc consts  --      6.5214                 6.6490                 6.6310
 IR Inten    --      1.1483                 0.0849                 1.3914

 - Thermochemistry -
 -------------------
 Temperature   298.150 Kelvin.  Pressure   1.00000 Atm.
 Atom     1 has atomic number  6 and mass  12.00000

 Molecular mass:   176.00851 amu.
 Principal axes and moments of inertia in atomic units:
                           1         2         3
     Eigenvalues --  1149.971112467.226793295.85650
           X            0.91608   0.39975  -0.03149
           Y            0.24206  -0.48868   0.83821
           Z           -0.31968   0.77549   0.54444
 This molecule is an asymmetric top.
 Rotational symmetry number  1.
 Warning -- assumption of classical behavior for rotation
           may cause significant error
 Rotational temperatures (Kelvin)      0.07532     0.03511     0.02628
 Rotational constants (GHZ):           1.56938     0.73149     0.54758
 Zero-point vibrational energy     233237.2 (Joules/Mol)
                                   55.74502 (Kcal/Mol)
 Warning -- explicit consideration of  14 degrees of freedom as
           vibrations may cause significant error
 Vibrational temperatures:     74.36   114.65   177.01   237.89   313.69
          (Kelvin)            405.36   427.53   484.39   616.39   632.64
                              672.89   732.12   773.49   810.49   926.13
                              933.95  1042.81  1132.53  1152.86  1221.06
                             1223.10  1365.39  1432.41  1457.96  1570.38
                             1587.93  1620.46  1741.85  1814.35  1866.91
                             1967.21  2008.91  2381.30  2428.81  2458.09
                             2482.85  4588.79  4610.21  4614.80

 Zero-point correction=                           0.088835 (Hartree/Particle)
 Thermal correction to Energy=                    0.098681
 Thermal correction to Enthalpy=                  0.099626
 Thermal correction to Gibbs Free Energy=         0.052605
 Sum of electronic and zero-point Energies=           -718.624470
 Sum of electronic and thermal Energies=              -718.614624
 Sum of electronic and thermal Enthalpies=            -718.613680
 Sum of electronic and thermal Free Energies=         -718.660700

                     E (Thermal)             CV                S
                      KCal/Mol        Cal/Mol-Kelvin    Cal/Mol-Kelvin
 Total                   61.924             36.155             98.963
 Electronic               0.000              0.000              0.000
 Translational            0.889              2.981             41.403
 Rotational               0.889              2.981             30.615
 Vibrational             60.146             30.193             26.945
 Vibration     1          0.596              1.977              4.752
 Vibration     2          0.600              1.963              3.899
 Vibration     3          0.610              1.930              3.052
 Vibration     4          0.624              1.885              2.488
 Vibration     5          0.646              1.814              1.975
 Vibration     6          0.681              1.707              1.523
 Vibration     7          0.691              1.679              1.433
 Vibration     8          0.717              1.602              1.228
 Vibration     9          0.790              1.408              0.864
 Vibration    10          0.800              1.384              0.828
 Vibration    11          0.825              1.322              0.744
 Vibration    12          0.864              1.230              0.636
 Vibration    13          0.893              1.167              0.570
 Vibration    14          0.919              1.111              0.517

 Optimization completed.
    -- Stationary point found.
 Normal termination of Gaussian 16 at Sat Feb 10 10:47:41 2024.
