 Q-Chem 5.4, Q-Chem, Inc., Pleasanton, CA (2021)
 Q-Chem 5.4.0 for Intel X86 EM64T Linux

User input:
--------------------------------------------------------------
$molecule
-1 2
C                 -5.8514020000     -2.7907270000      3.6948970000
C                 -6.5888840000     -3.2066440000      2.6005730000
C                 -7.5211160000     -2.3321990000      2.0078300000
C                 -6.0158890000     -1.4986360000      4.2326850000
C                 -6.9539940000     -0.6193130000      3.6357900000
C                 -7.6965020000     -1.0598760000      2.5223150000
C                 -5.2181240000     -1.0854490000      5.3977010000
C                 -5.4427130000      0.2566710000      5.8991380000
C                 -6.3539580000      1.1202340000      5.3019560000
C                 -7.1589810000      0.7371800000      4.1625410000
O                 -4.3837260000     -1.8742860000      5.9227520000
O                 -7.9987700000      1.5232080000      3.6394810000
H                 -6.4503960000     -4.2060490000      2.1980600000
H                 -8.1005190000     -2.6576800000      1.1485590000
C                 -4.6291020000      0.6716910000      7.1017910000
H                 -5.1272490000     -3.4415180000      4.1714860000
H                 -8.4066640000     -0.3650990000      2.0885110000
H                 -3.9095900000      1.4631900000      6.8532160000
H                 -4.0679850000     -0.1891730000      7.4659060000
H                 -5.2636100000      1.0536760000      7.9082750000
C                 -6.5771110000      2.5317910000      5.8194320000
C                 -7.6967260000      2.6011810000      6.8274750000
C                 -7.7141890000      3.1755570000      8.0391940000
C                 -8.9700340000      3.1237840000      8.8865340000
C                 -9.6735490000      4.4940910000      9.0643130000
C                -10.8731340000      4.4102860000      9.9653340000
C                -12.1676220000      4.5973290000      9.6695890000
C                 -6.5421820000      3.8986290000      8.6603180000
C                -13.2247580000      4.4285800000     10.7427780000
C                -14.1430640000      3.1965320000     10.5411680000
C                -15.1972540000      3.0918100000     11.6074660000
C                -15.3791920000      2.1281030000     12.5217780000
C                -12.6833850000      4.9805390000      8.3035620000
C                -14.5288330000      0.8860600000     12.6344750000
C                -16.5093060000      2.2374580000     13.5261200000
C                -16.0416060000      2.4832140000     14.9830120000
C                -17.1915920000      2.5333160000     15.9499320000
C                -17.6143160000      3.5575430000     16.7048210000
C                -16.9582160000      4.9164400000     16.7452810000
C                -18.8206050000      3.3898130000     17.6072060000
C                -20.0668700000      4.1940680000     17.1583650000
C                -21.2164730000      4.0431000000     18.1154770000
C                -22.4203390000      3.4911870000     17.9065760000
C                -22.8779610000      2.9125310000     16.5897620000
C                -23.4331090000      3.4294220000     19.0325950000
C                -23.7113780000      1.9987600000     19.5591060000
C                -24.7546760000      1.9835840000     20.6416710000
C                -24.6278150000      1.6285510000     21.9282860000
C                -23.3496890000      1.1247940000     22.5536140000
C                -25.8211810000      1.7062140000     22.8595690000
C                -25.7163290000      2.8164850000     23.9355320000
C                -26.8903360000      2.8110340000     24.8748930000
C                -27.8252170000      3.7538620000     25.0608300000
C                -27.8571430000      5.0793270000     24.3393740000
C                -28.9413420000      3.5296150000     26.0613950000
H                 -6.8729580000      3.1416710000      4.9580270000
H                 -5.6516070000      2.9464960000      6.2231860000
H                 -8.6067810000      2.1083870000      6.4905620000
H                 -8.7257190000      2.7293170000      9.8839000000
H                 -9.6824380000      2.4244430000      8.4397320000
H                 -9.9339110000      4.8812170000      8.0767640000
H                 -8.9603810000      5.2056730000      9.4989810000
H                -10.6403820000      4.1354530000     10.9951620000
H                 -5.6282760000      3.7853240000      8.0778610000
H                 -6.3450250000      3.5197320000      9.6713860000
H                 -6.7358210000      4.9739200000      8.7608590000
H                -13.8556010000      5.3281300000     10.7802790000
H                -12.7423080000      4.3442090000     11.7211700000
H                -13.5207710000      2.3003510000     10.4973280000
H                -14.6386200000      3.2770840000      9.5660720000
H                -15.8930370000      3.9315650000     11.6329170000
H                -11.8848430000      5.1467780000      7.5817960000
H                -13.2824870000      5.8977480000      8.3633200000
H                -13.3384240000      4.2046990000      7.8924050000
H                -13.7573230000      0.8279120000     11.8679230000
H                -15.1525750000     -0.0121510000     12.5516270000
H                -14.0301490000      0.8311530000     13.6082520000
H                -17.1065930000      1.3153960000     13.5045250000
H                -17.1805120000      3.0511540000     13.2358690000
H                -15.4499870000      3.4008340000     15.0101990000
H                -15.3682530000      1.6712410000     15.2831820000
H                -17.7543270000      1.6020690000     16.0241330000
H                -16.0706700000      4.9789800000     16.1168100000
H                -16.6622040000      5.1666530000     17.7711560000
H                -17.6487580000      5.7017910000     16.4194050000
H                -18.5571770000      3.6995070000     18.6279960000
H                -19.0927170000      2.3317760000     17.6628110000
H                -20.3386550000      3.8829820000     16.1473330000
H                -19.8025000000      5.2566630000     17.0952760000
H                -21.0196170000      4.4313790000     19.1153700000
H                -22.1367530000      3.0167460000     15.7982650000
H                -23.7983560000      3.4062210000     16.2557020000
H                -23.1121200000      1.8467310000     16.6837770000
H                -24.3826910000      3.8647470000     18.6921250000
H                -23.0894890000      4.0454540000     19.8686460000
H                -22.7700420000      1.5617780000     19.8993350000
H                -24.0609880000      1.3737770000     18.7283880000
H                -25.7398950000      2.3215010000     20.3185830000
H                -22.5280330000      1.0489430000     21.8423590000
H                -23.5061250000      0.1326280000     22.9934960000
H                -23.0212080000      1.7788000000     23.3684380000
H                -25.9481200000      0.7408310000     23.3683340000
H                -26.7315350000      1.8735230000     22.2766620000
H                -25.6040320000      3.7802870000     23.4341680000
H                -24.8011530000      2.6624250000     24.5200640000
H                -26.9824030000      1.9018390000     25.4698760000
H                -27.0107700000      5.2195340000     23.6679010000
H                -27.8549220000      5.9056220000     25.0601530000
H                -28.7709690000      5.1863710000     23.7451760000
H                -28.9838300000      4.3805710000     26.7549900000
H                -28.7192920000      2.6454930000     26.6659200000
C                -30.3415920000      3.3483840000     25.4227780000
C                -31.4195350000      3.1765720000     26.4569340000
C                -32.2042530000      2.1140270000     26.6865260000
C                -32.1668800000      0.8352410000     25.8855070000
C                -33.2238240000      2.1503040000     27.8074730000
C                -32.8876350000      1.2206720000     29.0009580000
C                -33.9544980000      1.2445440000     30.0603040000
C                -33.8737530000      1.6771650000     31.3267120000
C                -32.6202180000      2.2260280000     31.9636640000
C                -35.0908940000      1.6211840000     32.2282000000
C                -35.6840860000      3.0079990000     32.5827600000
C                -36.8498340000      2.9044180000     33.5268040000
C                -38.1296030000      3.2411480000     33.3175960000
C                -38.6691610000      3.8275200000     32.0371030000
C                -39.1657570000      3.0528830000     34.3993970000
H                -30.3050820000      2.5022540000     24.7330970000
H                -30.5757290000      4.2323910000     24.8172320000
H                -31.5579770000      4.0411690000     27.1068770000
H                -31.4464670000      0.8644170000     25.0688030000
H                -33.1538220000      0.6260670000     25.4559920000
H                -31.9141210000     -0.0223840000     26.5180180000
H                -34.2087550000      1.8661900000     27.4125190000
H                -33.3212740000      3.1733700000     28.1820290000
H                -31.9129020000      1.5058710000     29.4028070000
H                -32.7828880000      0.1922230000     28.6345930000
H                -34.9213750000      0.8631920000     29.7305030000
H                -31.7625610000      2.2204320000     31.2918550000
H                -32.3559000000      1.6393310000     32.8514960000
H                -32.7664410000      3.2568280000     32.3035290000
H                -34.8270820000      1.1073760000     33.1626670000
H                -35.8724450000      1.0213700000     31.7530280000
H                -35.9592040000      3.5194270000     31.6576040000
H                -34.9059450000      3.6203560000     33.0545450000
H                -36.6020390000      2.4853820000     34.5023140000
H                -37.9137100000      3.9360090000     31.2595840000
H                -39.1075330000      4.8155900000     32.2216250000
H                -39.4752440000      3.2000880000     31.6388530000
H                -38.7326880000      2.6272770000     35.3068900000
H                -39.9708360000      2.3894740000     34.0611480000
H                -39.6376610000      4.0075250000     34.6616710000
$end
$rem
MAX_SCF_CYCLES=200
BASIS  =  6-311++G(d,p)
GUI  =  2
JOB_TYPE  =  SP
THRESH = 14
SCF_CONVERGENCE = 8
SCF_ALGORITHM = RCA_DIIS
scf_guess = core
METHOD  =  B3LYP
SOLVENT_METHOD = PCM
$end
$pcm
theory = CPCM
$end
$solvent
dielectric 37.219
opticaldielectric 1.43
$end

--------------------------------------------------------------

             Standard Nuclear Orientation (Angstroms)
    I     Atom           X                Y                Z
 ----------------------------------------------------------------
    1      C      -5.8514020000    -2.7907270000     3.6948970000
    2      C      -6.5888840000    -3.2066440000     2.6005730000
    3      C      -7.5211160000    -2.3321990000     2.0078300000
    4      C      -6.0158890000    -1.4986360000     4.2326850000
    5      C      -6.9539940000    -0.6193130000     3.6357900000
    6      C      -7.6965020000    -1.0598760000     2.5223150000
    7      C      -5.2181240000    -1.0854490000     5.3977010000
    8      C      -5.4427130000     0.2566710000     5.8991380000
    9      C      -6.3539580000     1.1202340000     5.3019560000
   10      C      -7.1589810000     0.7371800000     4.1625410000
   11      O      -4.3837260000    -1.8742860000     5.9227520000
   12      O      -7.9987700000     1.5232080000     3.6394810000
   13      H      -6.4503960000    -4.2060490000     2.1980600000
   14      H      -8.1005190000    -2.6576800000     1.1485590000
   15      C      -4.6291020000     0.6716910000     7.1017910000
   16      H      -5.1272490000    -3.4415180000     4.1714860000
   17      H      -8.4066640000    -0.3650990000     2.0885110000
   18      H      -3.9095900000     1.4631900000     6.8532160000
   19      H      -4.0679850000    -0.1891730000     7.4659060000
   20      H      -5.2636100000     1.0536760000     7.9082750000
   21      C      -6.5771110000     2.5317910000     5.8194320000
   22      C      -7.6967260000     2.6011810000     6.8274750000
   23      C      -7.7141890000     3.1755570000     8.0391940000
   24      C      -8.9700340000     3.1237840000     8.8865340000
   25      C      -9.6735490000     4.4940910000     9.0643130000
   26      C     -10.8731340000     4.4102860000     9.9653340000
   27      C     -12.1676220000     4.5973290000     9.6695890000
   28      C      -6.5421820000     3.8986290000     8.6603180000
   29      C     -13.2247580000     4.4285800000    10.7427780000
   30      C     -14.1430640000     3.1965320000    10.5411680000
   31      C     -15.1972540000     3.0918100000    11.6074660000
   32      C     -15.3791920000     2.1281030000    12.5217780000
   33      C     -12.6833850000     4.9805390000     8.3035620000
   34      C     -14.5288330000     0.8860600000    12.6344750000
   35      C     -16.5093060000     2.2374580000    13.5261200000
   36      C     -16.0416060000     2.4832140000    14.9830120000
   37      C     -17.1915920000     2.5333160000    15.9499320000
   38      C     -17.6143160000     3.5575430000    16.7048210000
   39      C     -16.9582160000     4.9164400000    16.7452810000
   40      C     -18.8206050000     3.3898130000    17.6072060000
   41      C     -20.0668700000     4.1940680000    17.1583650000
   42      C     -21.2164730000     4.0431000000    18.1154770000
   43      C     -22.4203390000     3.4911870000    17.9065760000
   44      C     -22.8779610000     2.9125310000    16.5897620000
   45      C     -23.4331090000     3.4294220000    19.0325950000
   46      C     -23.7113780000     1.9987600000    19.5591060000
   47      C     -24.7546760000     1.9835840000    20.6416710000
   48      C     -24.6278150000     1.6285510000    21.9282860000
   49      C     -23.3496890000     1.1247940000    22.5536140000
   50      C     -25.8211810000     1.7062140000    22.8595690000
   51      C     -25.7163290000     2.8164850000    23.9355320000
   52      C     -26.8903360000     2.8110340000    24.8748930000
   53      C     -27.8252170000     3.7538620000    25.0608300000
   54      C     -27.8571430000     5.0793270000    24.3393740000
   55      C     -28.9413420000     3.5296150000    26.0613950000
   56      H      -6.8729580000     3.1416710000     4.9580270000
   57      H      -5.6516070000     2.9464960000     6.2231860000
   58      H      -8.6067810000     2.1083870000     6.4905620000
   59      H      -8.7257190000     2.7293170000     9.8839000000
   60      H      -9.6824380000     2.4244430000     8.4397320000
   61      H      -9.9339110000     4.8812170000     8.0767640000
   62      H      -8.9603810000     5.2056730000     9.4989810000
   63      H     -10.6403820000     4.1354530000    10.9951620000
   64      H      -5.6282760000     3.7853240000     8.0778610000
   65      H      -6.3450250000     3.5197320000     9.6713860000
   66      H      -6.7358210000     4.9739200000     8.7608590000
   67      H     -13.8556010000     5.3281300000    10.7802790000
   68      H     -12.7423080000     4.3442090000    11.7211700000
   69      H     -13.5207710000     2.3003510000    10.4973280000
   70      H     -14.6386200000     3.2770840000     9.5660720000
   71      H     -15.8930370000     3.9315650000    11.6329170000
   72      H     -11.8848430000     5.1467780000     7.5817960000
   73      H     -13.2824870000     5.8977480000     8.3633200000
   74      H     -13.3384240000     4.2046990000     7.8924050000
   75      H     -13.7573230000     0.8279120000    11.8679230000
   76      H     -15.1525750000    -0.0121510000    12.5516270000
   77      H     -14.0301490000     0.8311530000    13.6082520000
   78      H     -17.1065930000     1.3153960000    13.5045250000
   79      H     -17.1805120000     3.0511540000    13.2358690000
   80      H     -15.4499870000     3.4008340000    15.0101990000
   81      H     -15.3682530000     1.6712410000    15.2831820000
   82      H     -17.7543270000     1.6020690000    16.0241330000
   83      H     -16.0706700000     4.9789800000    16.1168100000
   84      H     -16.6622040000     5.1666530000    17.7711560000
   85      H     -17.6487580000     5.7017910000    16.4194050000
   86      H     -18.5571770000     3.6995070000    18.6279960000
   87      H     -19.0927170000     2.3317760000    17.6628110000
   88      H     -20.3386550000     3.8829820000    16.1473330000
   89      H     -19.8025000000     5.2566630000    17.0952760000
   90      H     -21.0196170000     4.4313790000    19.1153700000
   91      H     -22.1367530000     3.0167460000    15.7982650000
   92      H     -23.7983560000     3.4062210000    16.2557020000
   93      H     -23.1121200000     1.8467310000    16.6837770000
   94      H     -24.3826910000     3.8647470000    18.6921250000
   95      H     -23.0894890000     4.0454540000    19.8686460000
   96      H     -22.7700420000     1.5617780000    19.8993350000
   97      H     -24.0609880000     1.3737770000    18.7283880000
   98      H     -25.7398950000     2.3215010000    20.3185830000
   99      H     -22.5280330000     1.0489430000    21.8423590000
  100      H     -23.5061250000     0.1326280000    22.9934960000
  101      H     -23.0212080000     1.7788000000    23.3684380000
  102      H     -25.9481200000     0.7408310000    23.3683340000
  103      H     -26.7315350000     1.8735230000    22.2766620000
  104      H     -25.6040320000     3.7802870000    23.4341680000
  105      H     -24.8011530000     2.6624250000    24.5200640000
  106      H     -26.9824030000     1.9018390000    25.4698760000
  107      H     -27.0107700000     5.2195340000    23.6679010000
  108      H     -27.8549220000     5.9056220000    25.0601530000
  109      H     -28.7709690000     5.1863710000    23.7451760000
  110      H     -28.9838300000     4.3805710000    26.7549900000
  111      H     -28.7192920000     2.6454930000    26.6659200000
  112      C     -30.3415920000     3.3483840000    25.4227780000
  113      C     -31.4195350000     3.1765720000    26.4569340000
  114      C     -32.2042530000     2.1140270000    26.6865260000
  115      C     -32.1668800000     0.8352410000    25.8855070000
  116      C     -33.2238240000     2.1503040000    27.8074730000
  117      C     -32.8876350000     1.2206720000    29.0009580000
  118      C     -33.9544980000     1.2445440000    30.0603040000
  119      C     -33.8737530000     1.6771650000    31.3267120000
  120      C     -32.6202180000     2.2260280000    31.9636640000
  121      C     -35.0908940000     1.6211840000    32.2282000000
  122      C     -35.6840860000     3.0079990000    32.5827600000
  123      C     -36.8498340000     2.9044180000    33.5268040000
  124      C     -38.1296030000     3.2411480000    33.3175960000
  125      C     -38.6691610000     3.8275200000    32.0371030000
  126      C     -39.1657570000     3.0528830000    34.3993970000
  127      H     -30.3050820000     2.5022540000    24.7330970000
  128      H     -30.5757290000     4.2323910000    24.8172320000
  129      H     -31.5579770000     4.0411690000    27.1068770000
  130      H     -31.4464670000     0.8644170000    25.0688030000
  131      H     -33.1538220000     0.6260670000    25.4559920000
  132      H     -31.9141210000    -0.0223840000    26.5180180000
  133      H     -34.2087550000     1.8661900000    27.4125190000
  134      H     -33.3212740000     3.1733700000    28.1820290000
  135      H     -31.9129020000     1.5058710000    29.4028070000
  136      H     -32.7828880000     0.1922230000    28.6345930000
  137      H     -34.9213750000     0.8631920000    29.7305030000
  138      H     -31.7625610000     2.2204320000    31.2918550000
  139      H     -32.3559000000     1.6393310000    32.8514960000
  140      H     -32.7664410000     3.2568280000    32.3035290000
  141      H     -34.8270820000     1.1073760000    33.1626670000
  142      H     -35.8724450000     1.0213700000    31.7530280000
  143      H     -35.9592040000     3.5194270000    31.6576040000
  144      H     -34.9059450000     3.6203560000    33.0545450000
  145      H     -36.6020390000     2.4853820000    34.5023140000
  146      H     -37.9137100000     3.9360090000    31.2595840000
  147      H     -39.1075330000     4.8155900000    32.2216250000
  148      H     -39.4752440000     3.2000880000    31.6388530000
  149      H     -38.7326880000     2.6272770000    35.3068900000
  150      H     -39.9708360000     2.3894740000    34.0611480000
  151      H     -39.6376610000     4.0075250000    34.6616710000
 ----------------------------------------------------------------

  116   -2528.6720574616      3.75E-09 Convergence criterion met
 Total energy in the final basis set = -2528.67205746

                    Orbital Energies (a.u.)
 --------------------------------------------------------------

 Alpha MOs
 -- Occupied --
-19.0738 -19.0736 -10.2177 -10.2172 -10.1738 -10.1720 -10.1719 -10.1719
-10.1718 -10.1717 -10.1716 -10.1712 -10.1708 -10.1704 -10.1699 -10.1697
-10.1692 -10.1684 -10.1674 -10.1673 -10.1673 -10.1649 -10.1638 -10.1638
-10.1637 -10.1637 -10.1636 -10.1635 -10.1635 -10.1635 -10.1634 -10.1633
-10.1633 -10.1632 -10.1632 -10.1630 -10.1629 -10.1626 -10.1621 -10.1616
-10.1590 -10.1575 -10.1575 -10.1574 -10.1574 -10.1574 -10.1572 -10.1571
-10.1570 -10.1570 -10.1570 -10.1569 -10.1569 -10.1568 -10.1568 -10.1567
-10.1566 -10.1563 -10.1561 -10.1560 -10.1558 -10.1551 -10.1493  -0.9991
 -0.9965  -0.8555  -0.8291  -0.8279  -0.8263  -0.8243  -0.8217  -0.8186
 -0.8147  -0.8104  -0.8060  -0.8022  -0.8001  -0.7746  -0.7694  -0.7632
 -0.7572  -0.7513  -0.7475  -0.7446  -0.7375  -0.7307  -0.7248  -0.7201
 -0.7171  -0.6884  -0.6864  -0.6852  -0.6847  -0.6840  -0.6829  -0.6814
 -0.6790  -0.6755  -0.6706  -0.6654  -0.6572  -0.6477  -0.6408  -0.6314
 -0.6215  -0.6120  -0.6032  -0.5967  -0.5928  -0.5876  -0.5832  -0.5802
 -0.5778  -0.5501  -0.5199  -0.5193  -0.5185  -0.5177  -0.5168  -0.5151
 -0.5131  -0.5110  -0.5093  -0.5083  -0.5049  -0.4884  -0.4760  -0.4758
 -0.4748  -0.4744  -0.4737  -0.4729  -0.4706  -0.4667  -0.4635  -0.4624
 -0.4604  -0.4442  -0.4439  -0.4429  -0.4413  -0.4390  -0.4364  -0.4337
 -0.4329  -0.4297  -0.4283  -0.4273  -0.4258  -0.4227  -0.4206  -0.4183
 -0.4148  -0.4147  -0.4137  -0.4121  -0.4115  -0.4099  -0.4087  -0.4076
 -0.4056  -0.4055  -0.4005  -0.4000  -0.3991  -0.3988  -0.3983  -0.3950
 -0.3945  -0.3912  -0.3889  -0.3877  -0.3876  -0.3809  -0.3779  -0.3722
 -0.3718  -0.3703  -0.3698  -0.3694  -0.3692  -0.3685  -0.3676  -0.3669
 -0.3666  -0.3663  -0.3654  -0.3637  -0.3627  -0.3622  -0.3606  -0.3598
 -0.3584  -0.3581  -0.3570  -0.3551  -0.3532  -0.3515  -0.3513  -0.3475
 -0.3463  -0.3420  -0.3364  -0.3342  -0.3337  -0.3333  -0.3323  -0.3316
 -0.3308  -0.3298  -0.3254  -0.3247  -0.3245  -0.3239  -0.3234  -0.3201
 -0.3152  -0.3107  -0.3073  -0.3052  -0.2671  -0.2549  -0.2505  -0.2490
 -0.2471  -0.2457  -0.2443  -0.2411  -0.2378  -0.2364  -0.2329  -0.2290
 -0.2253  -0.2224  -0.2205  -0.1495

 Beta MOs
 -- Occupied --
-19.0677 -19.0677 -10.2159 -10.2154 -10.1738 -10.1720 -10.1719 -10.1719
-10.1718 -10.1717 -10.1716 -10.1712 -10.1708 -10.1700 -10.1696 -10.1692
-10.1687 -10.1684 -10.1673 -10.1672 -10.1659 -10.1638 -10.1638 -10.1637
-10.1637 -10.1636 -10.1636 -10.1635 -10.1635 -10.1635 -10.1634 -10.1633
-10.1633 -10.1632 -10.1632 -10.1630 -10.1629 -10.1626 -10.1621 -10.1616
-10.1591 -10.1575 -10.1575 -10.1574 -10.1574 -10.1574 -10.1572 -10.1571
-10.1570 -10.1570 -10.1570 -10.1569 -10.1569 -10.1568 -10.1568 -10.1567
-10.1566 -10.1563 -10.1561 -10.1559 -10.1558 -10.1551 -10.1494  -0.9886
 -0.9858  -0.8534  -0.8291  -0.8279  -0.8261  -0.8239  -0.8212  -0.8180
 -0.8142  -0.8100  -0.8056  -0.8018  -0.7994  -0.7745  -0.7691  -0.7627
 -0.7565  -0.7508  -0.7457  -0.7442  -0.7371  -0.7302  -0.7243  -0.7197
 -0.7169  -0.6884  -0.6852  -0.6847  -0.6844  -0.6839  -0.6829  -0.6814
 -0.6789  -0.6754  -0.6706  -0.6653  -0.6539  -0.6447  -0.6401  -0.6312
 -0.6214  -0.6118  -0.6030  -0.5963  -0.5922  -0.5872  -0.5828  -0.5799
 -0.5759  -0.5473  -0.5199  -0.5193  -0.5185  -0.5174  -0.5163  -0.5149
 -0.5129  -0.5109  -0.5092  -0.5082  -0.5038  -0.4862  -0.4760  -0.4758
 -0.4748  -0.4744  -0.4737  -0.4729  -0.4705  -0.4665  -0.4625  -0.4606
 -0.4602  -0.4442  -0.4432  -0.4424  -0.4412  -0.4388  -0.4360  -0.4336
 -0.4324  -0.4292  -0.4280  -0.4271  -0.4252  -0.4219  -0.4178  -0.4159
 -0.4146  -0.4137  -0.4135  -0.4115  -0.4098  -0.4086  -0.4072  -0.4060
 -0.4054  -0.4045  -0.4000  -0.3996  -0.3989  -0.3987  -0.3981  -0.3944
 -0.3912  -0.3891  -0.3888  -0.3877  -0.3855  -0.3809  -0.3764  -0.3712
 -0.3703  -0.3698  -0.3694  -0.3692  -0.3685  -0.3676  -0.3669  -0.3666
 -0.3663  -0.3657  -0.3637  -0.3631  -0.3622  -0.3612  -0.3599  -0.3587
 -0.3578  -0.3570  -0.3554  -0.3533  -0.3516  -0.3512  -0.3474  -0.3451
 -0.3419  -0.3372  -0.3349  -0.3342  -0.3329  -0.3322  -0.3320  -0.3311
 -0.3307  -0.3288  -0.3254  -0.3247  -0.3245  -0.3239  -0.3233  -0.3199
 -0.3150  -0.3106  -0.3072  -0.3052  -0.2505  -0.2491  -0.2484  -0.2472
 -0.2452  -0.2435  -0.2405  -0.2399  -0.2362  -0.2320  -0.2281  -0.2280
 -0.2245  -0.2218  -0.2200

          Ground-State Mulliken Net Atomic Charges

     Atom                 Charge (a.u.)    Spin (a.u.)
  --------------------------------------------------------
      1 C                     0.143132       0.031164
      2 C                    -0.517000       0.025488
      3 C                    -0.448564       0.026793
      4 C                    -0.158230       0.000679
      5 C                     0.165095       0.013345
      6 C                     0.024646       0.030720
      7 C                    -0.689343       0.113402
      8 C                     0.709562       0.101751
      9 C                     0.791326       0.088906
     10 C                    -0.805674       0.108685
     11 O                    -0.500824       0.223321
     12 O                    -0.481081       0.218580
     13 H                     0.191323      -0.002158
     14 H                     0.195857      -0.002167
     15 C                    -0.507332      -0.001204
     16 H                     0.174198      -0.002373
     17 H                     0.172254      -0.002370
     18 H                     0.185889       0.006400
     19 H                     0.173601      -0.001844
     20 H                     0.172218       0.004610
     21 C                    -0.066894       0.012560
     22 C                    -0.771807       0.003756
     23 C                     0.986737       0.002289
     24 C                    -0.771557      -0.000806
     25 C                    -0.297448       0.000056
     26 C                    -0.418375       0.000279
     27 C                     0.666809      -0.000116
     28 C                    -0.822626      -0.002572
     29 C                    -0.542916       0.000120
     30 C                    -0.257407      -0.000020
     31 C                    -0.370153       0.000006
     32 C                     0.509152       0.000007
     33 C                    -0.723870      -0.000024
     34 C                    -0.747220       0.000001
     35 C                    -0.403213       0.000001
     36 C                    -0.295239      -0.000001
     37 C                    -0.344692       0.000001
     38 C                     0.506207      -0.000001
     39 C                    -0.743637       0.000000
     40 C                    -0.419286       0.000000
     41 C                    -0.300383      -0.000001
     42 C                    -0.343271       0.000007
     43 C                     0.511627      -0.000007
     44 C                    -0.743066       0.000001
     45 C                    -0.416301       0.000001
     46 C                    -0.300511      -0.000000
     47 C                    -0.331532       0.000003
     48 C                     0.494994      -0.000002
     49 C                    -0.744223       0.000000
     50 C                    -0.419227       0.000000
     51 C                    -0.301510      -0.000000
     52 C                    -0.330987       0.000002
     53 C                     0.521412      -0.000002
     54 C                    -0.745683       0.000000
     55 C                    -0.443046       0.000000
     56 H                     0.208031       0.002873
     57 H                     0.196538      -0.000063
     58 H                     0.231010      -0.000334
     59 H                     0.159845       0.000293
     60 H                     0.138904      -0.000445
     61 H                     0.161992       0.000077
     62 H                     0.143546       0.000243
     63 H                     0.194074      -0.000029
     64 H                     0.116275       0.000245
     65 H                     0.177345       0.000113
     66 H                     0.178827      -0.000208
     67 H                     0.143453       0.000000
     68 H                     0.183783      -0.000000
     69 H                     0.154792       0.000012
     70 H                     0.135822       0.000001
     71 H                     0.204013      -0.000000
     72 H                     0.133802      -0.000038
     73 H                     0.166887       0.000001
     74 H                     0.176685      -0.000002
     75 H                     0.140492      -0.000002
     76 H                     0.168151       0.000000
     77 H                     0.175735       0.000000
     78 H                     0.145228      -0.000000
     79 H                     0.179535       0.000000
     80 H                     0.144283      -0.000000
     81 H                     0.137175      -0.000000
     82 H                     0.203565      -0.000000
     83 H                     0.139911       0.000000
     84 H                     0.167842      -0.000000
     85 H                     0.175796      -0.000000
     86 H                     0.145851      -0.000000
     87 H                     0.178301       0.000000
     88 H                     0.146543       0.000000
     89 H                     0.136657       0.000000
     90 H                     0.202225      -0.000001
     91 H                     0.139265      -0.000000
     92 H                     0.168397      -0.000000
     93 H                     0.176060      -0.000000
     94 H                     0.145502      -0.000000
     95 H                     0.180305      -0.000000
     96 H                     0.146869       0.000000
     97 H                     0.136904       0.000000
     98 H                     0.203544      -0.000000
     99 H                     0.139568      -0.000000
    100 H                     0.167959      -0.000000
    101 H                     0.175491      -0.000000
    102 H                     0.145845      -0.000000
    103 H                     0.179626      -0.000000
    104 H                     0.146939       0.000000
    105 H                     0.137152       0.000000
    106 H                     0.203002      -0.000000
    107 H                     0.139435      -0.000000
    108 H                     0.167897      -0.000000
    109 H                     0.176547      -0.000000
    110 H                     0.147236      -0.000000
    111 H                     0.174527      -0.000000
    112 C                    -0.280838       0.000000
    113 C                    -0.421122      -0.000003
    114 C                     0.547892       0.000003
    115 C                    -0.737253      -0.000001
    116 C                    -0.402002      -0.000000
    117 C                    -0.223263      -0.000001
    118 C                    -0.216066       0.000014
    119 C                     0.469603      -0.000013
    120 C                    -0.781185       0.000001
    121 C                    -0.592750       0.000006
    122 C                    -0.276410      -0.000019
    123 C                     0.012217       0.000138
    124 C                     0.296800      -0.000126
    125 C                    -0.709298       0.000016
    126 C                    -0.644251       0.000018
    127 H                     0.142061      -0.000000
    128 H                     0.138203      -0.000000
    129 H                     0.198226       0.000000
    130 H                     0.140853       0.000000
    131 H                     0.168221       0.000000
    132 H                     0.174898       0.000000
    133 H                     0.141070       0.000000
    134 H                     0.184863      -0.000000
    135 H                     0.152424       0.000000
    136 H                     0.133701       0.000000
    137 H                     0.216983      -0.000001
    138 H                     0.136675      -0.000000
    139 H                     0.169441      -0.000000
    140 H                     0.177142      -0.000001
    141 H                     0.143701      -0.000002
    142 H                     0.170970      -0.000000
    143 H                     0.145643       0.000001
    144 H                     0.133782       0.000005
    145 H                     0.204431      -0.000012
    146 H                     0.148597      -0.000001
    147 H                     0.151895      -0.000005
    148 H                     0.154066      -0.000005
    149 H                     0.157504      -0.000001
    150 H                     0.156816      -0.000005
    151 H                     0.152869      -0.000005
  --------------------------------------------------------
  Sum of atomic charges =    -1.000000

                    Cartesian Multipole Moments
 -----------------------------------------------------------------
    Charge (ESU x 10^10)
                -4.8032
    Dipole Moment (Debye)
         X      30.1809      Y       1.6228      Z     -22.7137
       Tot      37.8078
    Quadrupole Moments (Debye-Ang)
        XX    -594.8333     XY       1.9742     YY    -410.7091
        XZ     135.6225     YZ      23.9536     ZZ    -514.9462

 Total job time:  44794.93s(wall), 264978.11s(cpu)
        *  Thank you very much for using Q-Chem.  Have a nice day.  *
