 Gaussian 16, Revision A.03,
 Gaussian 16:  ES64L-G16RevA.03 25-Dec-2016

 --------------------------------------
 #P UB3LYP/6-311++G(d,p) nosym opt freq
 --------------------------------------

 -------
 Reduced
 -------
 Symbolic Z-matrix:
 Charge = -2 Multiplicity = 1

 SCF Done:  E(UB3LYP) =  -5682.31716766     A.U. after   28 cycles
 SCF Done:  E(UB3LYP) =  -5682.34273968     A.U. after   18 cycles
 SCF Done:  E(UB3LYP) =  -5682.34630355     A.U. after   16 cycles
 SCF Done:  E(UB3LYP) =  -5682.34648644     A.U. after   15 cycles
 SCF Done:  E(UB3LYP) =  -5682.34652464     A.U. after   14 cycles
 SCF Done:  E(UB3LYP) =  -5682.34651569     A.U. after   13 cycles
 SCF Done:  E(UB3LYP) =  -5682.34652001     A.U. after   13 cycles
 SCF Done:  E(UB3LYP) =  -5682.34652830     A.U. after   13 cycles
 SCF Done:  E(UB3LYP) =  -5682.34652973     A.U. after   11 cycles
 Optimization completed.
    -- Stationary point found.
 Normal termination of Gaussian 16 at Tue Dec 26 20:38:23 2023.

 ----------------------------------------------------------------------
 #P Geom=AllCheck Guess=TCheck SCRF=Check GenChk UB3LYP/6-311++G(d,p) F
 req
 ----------------------------------------------------------------------

 Structure from the checkpoint file:  "233-an.chk"
 -------
 Reduced
 -------
 Charge = -2 Multiplicity = 1

                          Input orientation:
 ---------------------------------------------------------------------
 Center     Atomic      Atomic             Coordinates (Angstroms)
 Number     Number       Type             X           Y           Z
 ---------------------------------------------------------------------
      1          6           0        5.917977   -5.214814    1.109422
      2          6           0        6.820527   -5.082728    0.069943
      3          6           0        6.607213   -4.090443   -0.918654
      4          6           0        4.776752   -4.386818    1.223756
      5          6           0        4.560439   -3.380500    0.221226
      6          6           0        5.499345   -3.267349   -0.830772
      7          6           0        3.873551   -4.597694    2.358585
      8          6           0        2.778470   -3.696777    2.339594
      9          6           0        2.563805   -2.698310    1.344846
     10          6           0        3.415258   -2.465918    0.234775
     11          8           0        4.090562   -5.503229    3.238943
     12          8           0        3.246500   -1.576921   -0.672593
     13          1           0        6.046794   -5.962680    1.885677
     14          1           0        5.301521   -2.495742   -1.568305
     15         35           0        1.530169   -3.919295    3.824598
     16         35           0        1.012925   -1.514787    1.428571
     17          1           0        7.689395   -5.736666    0.011241
     18          1           0        7.311135   -3.977019   -1.741844
 ---------------------------------------------------------------------

 SCF Done:  E(UB3LYP) =  -5682.34652973     A.U. after    2 cycles

 Alpha  occ. eigenvalues -- -482.56522-482.56522 -62.21793 -62.21792 -56.03797
 Alpha  occ. eigenvalues --  -56.03797 -56.03474 -56.03473 -56.03435 -56.03435
 Alpha  occ. eigenvalues --  -18.77201 -18.77200  -9.94466  -9.94425  -9.94208
 Alpha  occ. eigenvalues --   -9.94207  -9.93225  -9.93179  -9.92145  -9.92144
 Alpha  occ. eigenvalues --   -9.91107  -9.91067  -8.42745  -8.42744  -6.25782
 Alpha  occ. eigenvalues --   -6.25781  -6.24696  -6.24696  -6.24578  -6.24578
 Alpha  occ. eigenvalues --   -2.36895  -2.36894  -2.36605  -2.36604  -2.36515
 Alpha  occ. eigenvalues --   -2.36515  -2.35649  -2.35649  -2.35648  -2.35648
 Alpha  occ. eigenvalues --   -0.69552  -0.69098  -0.60036  -0.56921  -0.52128
 Alpha  occ. eigenvalues --   -0.51414  -0.49683  -0.45243  -0.40709  -0.35177
 Alpha  occ. eigenvalues --   -0.34345  -0.29661  -0.25257  -0.23606  -0.20341
 Alpha  occ. eigenvalues --   -0.18954  -0.17314  -0.14416  -0.14386  -0.14281
 Alpha  occ. eigenvalues --   -0.11635  -0.11419  -0.10143  -0.08927  -0.08392
 Alpha  occ. eigenvalues --   -0.07577  -0.05058  -0.04178  -0.03791  -0.01300
 Alpha  occ. eigenvalues --    0.00078   0.01324   0.02798   0.04586   0.04986
 Alpha  occ. eigenvalues --    0.12515
 Alpha virt. eigenvalues --    0.16061   0.17906   0.19067   0.20714   0.20718
 Alpha virt. eigenvalues --    0.21926   0.22111   0.23029   0.24106   0.24301
 Alpha virt. eigenvalues --    0.24628   0.25589   0.25600   0.25902   0.25950

  Beta  occ. eigenvalues -- -482.56522-482.56522 -62.21793 -62.21792 -56.03797
  Beta  occ. eigenvalues --  -56.03797 -56.03474 -56.03473 -56.03435 -56.03435
  Beta  occ. eigenvalues --  -18.77201 -18.77200  -9.94466  -9.94425  -9.94208
  Beta  occ. eigenvalues --   -9.94207  -9.93225  -9.93179  -9.92145  -9.92144
  Beta  occ. eigenvalues --   -9.91107  -9.91067  -8.42745  -8.42744  -6.25782
  Beta  occ. eigenvalues --   -6.25781  -6.24696  -6.24696  -6.24578  -6.24578
  Beta  occ. eigenvalues --   -2.36895  -2.36894  -2.36605  -2.36604  -2.36515
  Beta  occ. eigenvalues --   -2.36515  -2.35649  -2.35649  -2.35648  -2.35648
  Beta  occ. eigenvalues --   -0.69552  -0.69098  -0.60036  -0.56921  -0.52128
  Beta  occ. eigenvalues --   -0.51414  -0.49683  -0.45243  -0.40709  -0.35177
  Beta  occ. eigenvalues --   -0.34345  -0.29661  -0.25257  -0.23606  -0.20341
  Beta  occ. eigenvalues --   -0.18954  -0.17314  -0.14416  -0.14386  -0.14281
  Beta  occ. eigenvalues --   -0.11635  -0.11419  -0.10143  -0.08927  -0.08392
  Beta  occ. eigenvalues --   -0.07577  -0.05058  -0.04178  -0.03791  -0.01300
  Beta  occ. eigenvalues --    0.00078   0.01324   0.02798   0.04586   0.04986
  Beta  occ. eigenvalues --    0.12515
  Beta virt. eigenvalues --    0.16061   0.17906   0.19067   0.20714   0.20718
  Beta virt. eigenvalues --    0.21926   0.22111   0.23029   0.24106   0.24301
  Beta virt. eigenvalues --    0.24628   0.25589   0.25600   0.25902   0.25950

 Mulliken charges and spin densities:
               1          2
     1  C    0.101226   0.000000
     2  C   -0.331871   0.000000
     3  C   -0.331955   0.000000
     4  C    0.715707  -0.000000
     5  C    0.715606   0.000000
     6  C    0.101151   0.000000
     7  C   -1.408354   0.000000
     8  C    0.505658  -0.000000
     9  C    0.506304  -0.000000
    10  C   -1.408209   0.000000
    11  O   -0.460292  -0.000000
    12  O   -0.460315   0.000000
    13  H    0.132732  -0.000000
    14  H    0.132724   0.000000
    15  Br  -0.334795   0.000000
    16  Br  -0.334848  -0.000000
    17  H    0.079764  -0.000000
    18  H    0.079767   0.000000
 Sum of Mulliken charges =  -2.00000  -0.00000

 Dipole moment (field-independent basis, Debye):
    X=            -32.8553    Y=             33.1891    Z=            -13.6632  Tot=             48.6587
 Quadrupole moment (field-independent basis, Debye-Ang):
   XX=           -258.0777   YY=           -261.9786   ZZ=           -171.8081
   XY=            128.4006   XZ=            -37.3810   YZ=             68.4056

  Exact polarizability: 270.283 -62.178 189.542 -71.867 -23.658 218.235
 Approx polarizability: 415.391-102.329 309.051-108.303 -58.619 353.992

                      1                      2                      3
                      A                      A                      A
 Frequencies --     34.3867                62.4468               129.8036
 Red. masses --     13.5436                 9.0114                59.3159
 Frc consts  --      0.0094                 0.0207                 0.5888
 IR Inten    --      0.0000                 9.1023                 2.5869

                      4                      5                      6
                      A                      A                      A
 Frequencies --    138.8891               164.9409               165.1088
 Red. masses --      4.6043                10.4676                13.5333
 Frc consts  --      0.0523                 0.1678                 0.2174
 IR Inten    --      0.0000                 3.1808                 3.3323

                      7                      8                      9
                      A                      A                      A
 Frequencies --    234.1132               249.6151               266.6872
 Red. masses --     12.4366                17.3433                11.4242
 Frc consts  --      0.4016                 0.6367                 0.4787
 IR Inten    --      4.7861                 0.3125                 0.0001

                     10                     11                     12
                      A                      A                      A
 Frequencies --    267.7839               290.9441               362.8728
 Red. masses --      6.7752                 9.0383                10.2399
 Frc consts  --      0.2862                 0.4508                 0.7944
 IR Inten    --      0.2099                 0.2055                 0.0128

                     13                     14                     15
                      A                      A                      A
 Frequencies --    454.2481               477.8568               489.6307
 Red. masses --      3.4322                13.9461                 5.7217
 Frc consts  --      0.4173                 1.8763                 0.8082
 IR Inten    --      1.7516                10.1680                 0.0000

                     16                     17                     18
                      A                      A                      A
 Frequencies --    516.0564               615.8960               648.1536
 Red. masses --      7.5536                 7.9072                 7.0533
 Frc consts  --      1.1852                 1.7672                 1.7458
 IR Inten    --      0.0010                 6.0975                 0.0000

                     19                     20                     21
                      A                      A                      A
 Frequencies --    681.8756               683.8038               746.7704
 Red. masses --      2.1124                 8.3654                 2.1756
 Frc consts  --      0.5787                 2.3046                 0.7148
 IR Inten    --     59.5441                 0.4729                23.4412

                     22                     23                     24
                      A                      A                      A
 Frequencies --    752.6448               756.9099               774.8096
 Red. masses --      7.3796                 2.7464                10.8186
 Frc consts  --      2.4630                 0.9270                 3.8266
 IR Inten    --     12.9121                 0.0002               209.1207

                     25                     26                     27
                      A                      A                      A
 Frequencies --    812.3201               865.8997               950.7017
 Red. masses --      1.8757                 7.4617                 1.2074
 Frc consts  --      0.7292                 3.2963                 0.6430
 IR Inten    --      0.0000                 3.4976                 0.0000

                     28                     29                     30
                      A                      A                      A
 Frequencies --    957.9628              1019.0918              1083.8171
 Red. masses --      1.3586                 2.3394                 4.2241
 Frc consts  --      0.7346                 1.4315                 2.9234
 IR Inten    --      4.1737                44.9277                14.8165

                     31                     32                     33
                      A                      A                      A
 Frequencies --   1090.5001              1111.0673              1163.9598
 Red. masses --      2.2892                 1.9455                 2.7962
 Frc consts  --      1.6039                 1.4150                 2.2320
 IR Inten    --     22.0436               228.1121                 1.7304

                     34                     35                     36
                      A                      A                      A
 Frequencies --   1186.4793              1232.1455              1315.5818
 Red. masses --      1.9252                 1.8616                10.3409
 Frc consts  --      1.5968                 1.6652                10.5450
 IR Inten    --    176.2701                52.1820                10.9088

                     37                     38                     39
                      A                      A                      A
 Frequencies --   1347.9579              1350.9570              1419.5245
 Red. masses --      4.1237                 7.6967                 3.5261
 Frc consts  --      4.4146                 8.2763                 4.1863
 IR Inten    --      8.6068               169.6229               552.2623

                     40                     41                     42
                      A                      A                      A
 Frequencies --   1452.1958              1492.1623              1495.5428
 Red. masses --      3.4600                 5.4894                 4.4096
 Frc consts  --      4.2990                 7.2012                 5.8109
 IR Inten    --      3.3726               575.3902                 9.7868

                     43                     44                     45
                      A                      A                      A
 Frequencies --   1586.2659              1591.5711              3088.4579
 Red. masses --      8.5968                 5.4439                 1.0826
 Frc consts  --     12.7449                 8.1248                 6.0842
 IR Inten    --     40.3064                 5.4591                37.4007

                     46                     47                     48
                      A                      A                      A
 Frequencies --   3112.9330              3159.0564              3161.4541
 Red. masses --      1.0910                 1.0901                 1.0911
 Frc consts  --      6.2289                 6.4094                 6.4255
 IR Inten    --    130.2917                21.0575                50.5923

 - Thermochemistry -
 -------------------
 Temperature   298.150 Kelvin.  Pressure   1.00000 Atm.
 Atom     1 has atomic number  6 and mass  12.00000

 Molecular mass:   313.85780 amu.
 Principal axes and moments of inertia in atomic units:
                           1         2         3
     Eigenvalues --  3109.388585746.797378856.18587
           X            0.83560  -0.15060   0.52830
           Y           -0.28701   0.70031   0.65360
           Z           -0.46840  -0.69777   0.54195
 This molecule is an asymmetric top.
 Rotational symmetry number  1.
 Warning -- assumption of classical behavior for rotation
           may cause significant error
 Rotational temperatures (Kelvin)      0.02786     0.01507     0.00978
 Rotational constants (GHZ):           0.58042     0.31404     0.20378
 Zero-point vibrational energy     281205.3 (Joules/Mol)
                                   67.20968 (Kcal/Mol)
 Warning -- explicit consideration of  17 degrees of freedom as
           vibrations may cause significant error
 Vibrational temperatures:     49.47    89.85   186.76   199.83   237.31
          (Kelvin)            237.55   336.84   359.14   383.70   385.28
                              418.60   522.09   653.56   687.53   704.47
                              742.49   886.14   932.55   981.07   983.84
                             1074.44  1082.89  1089.02  1114.78  1168.75
                             1245.84  1367.85  1378.29  1466.25  1559.37
                             1568.99  1598.58  1674.68  1707.08  1772.78
                             1892.83  1939.41  1943.73  2042.38  2089.39
                             2146.89  2151.75  2282.28  2289.92  4443.60
                             4478.82  4545.18  4548.63

 Zero-point correction=                           0.107105 (Hartree/Particle)
 Thermal correction to Energy=                    0.119176
 Thermal correction to Enthalpy=                  0.120120
 Thermal correction to Gibbs Free Energy=         0.066435
 Sum of electronic and zero-point Energies=          -5682.239424
 Sum of electronic and thermal Energies=             -5682.227354
 Sum of electronic and thermal Enthalpies=           -5682.226410
 Sum of electronic and thermal Free Energies=        -5682.280094

                     E (Thermal)             CV                S
                      KCal/Mol        Cal/Mol-Kelvin    Cal/Mol-Kelvin
 Total                   74.784             44.187            112.989
 Electronic               0.000              0.000              0.000
 Translational            0.889              2.981             43.127
 Rotational               0.889              2.981             33.425
 Vibrational             73.007             38.225             36.436
 Vibration     1          0.594              1.983              5.559
 Vibration     2          0.597              1.972              4.378
 Vibration     3          0.612              1.923              2.949
 Vibration     4          0.615              1.914              2.819
 Vibration     5          0.623              1.886              2.492
 Vibration     6          0.624              1.885              2.490
 Vibration     7          0.654              1.789              1.847
 Vibration     8          0.662              1.763              1.733
 Vibration     9          0.672              1.734              1.618
 Vibration    10          0.673              1.732              1.610
 Vibration    11          0.687              1.691              1.468
 Vibration    12          0.737              1.549              1.110
 Vibration    13          0.813              1.351              0.783
 Vibration    14          0.834              1.299              0.716
 Vibration    15          0.845              1.273              0.685
 Vibration    16          0.871              1.214              0.619
 Vibration    17          0.975              0.998              0.423

 Optimization completed.
    -- Stationary point found.
 Normal termination of Gaussian 16 at Tue Dec 26 21:05:06 2023.
