 Q-Chem 5.4, Q-Chem, Inc., Pleasanton, CA (2021)
 Q-Chem 5.4.0 for Intel X86 EM64T Linux

User input:
--------------------------------------------------------------
$molecule
0 1
C                 -2.0333110000      3.0491370000     -0.2439630000
C                 -2.9892750000      2.5002750000      0.6051810000
C                 -2.7043260000      1.3316720000      1.3138440000
C                 -0.7907470000      2.4260230000     -0.3823440000
C                 -0.5011370000      1.2501910000      0.3291180000
C                 -1.4655500000      0.7079160000      1.1766800000
C                  0.2325530000      2.9944550000     -1.2783880000
C                  1.5441920000      2.2931610000     -1.3856000000
C                  1.8439880000      1.1527270000     -0.7163060000
C                  0.8314550000      0.5693250000      0.1887000000
O                  0.0732750000      4.0115870000     -1.9440760000
O                  1.0648820000     -0.4548440000      0.8154700000
H                 -2.2310880000      3.9545390000     -0.8045970000
H                 -3.9544790000      2.9807350000      0.7157940000
H                 -3.4504120000      0.9056570000      1.9750490000
H                 -1.2283260000     -0.1990640000      1.7187150000
O                  2.4137580000      2.8893500000     -2.2175300000
H                  1.9519360000      3.6708660000     -2.5764830000
C                  3.1801760000      0.4746330000     -0.8344390000
C                  4.1698290000      0.9351370000      0.2589060000
C                  5.5204700000      0.1952910000      0.2438220000
C                  6.3472930000      0.5769200000      1.4799640000
C                  6.3207070000      0.4532770000     -1.0409440000
H                  3.5923670000      0.6797610000     -1.8238990000
H                  3.0296540000     -0.6040860000     -0.7415320000
H                  3.6987100000      0.7845150000      1.2355350000
H                  4.3473100000      2.0127340000      0.1544870000
H                  5.3081840000     -0.8809330000      0.3022210000
H                  7.2942080000      0.0296060000      1.5065160000
H                  5.8065050000      0.3566920000      2.4049880000
H                  6.5830220000      1.6469700000      1.4771800000
H                  7.2790940000     -0.0736140000     -1.0143980000
H                  6.5321860000      1.5219570000     -1.1588300000
H                  5.7887760000      0.1183700000     -1.9348310000
$end
$rem
MAX_SCF_CYCLES=200
BASIS  =  6-311++G(d,p)
GUI  =  2
JOB_TYPE  =  SP
METHOD  =  B3LYP
SOLVENT_METHOD = PCM
$end
$pcm
theory = CPCM
$end
$solvent
dielectric 37.219
opticaldielectric 1.43
$end

--------------------------------------------------------------

             Standard Nuclear Orientation (Angstroms)
    I     Atom           X                Y                Z
 ----------------------------------------------------------------
    1      C      -2.0333110000     3.0491370000    -0.2439630000
    2      C      -2.9892750000     2.5002750000     0.6051810000
    3      C      -2.7043260000     1.3316720000     1.3138440000
    4      C      -0.7907470000     2.4260230000    -0.3823440000
    5      C      -0.5011370000     1.2501910000     0.3291180000
    6      C      -1.4655500000     0.7079160000     1.1766800000
    7      C       0.2325530000     2.9944550000    -1.2783880000
    8      C       1.5441920000     2.2931610000    -1.3856000000
    9      C       1.8439880000     1.1527270000    -0.7163060000
   10      C       0.8314550000     0.5693250000     0.1887000000
   11      O       0.0732750000     4.0115870000    -1.9440760000
   12      O       1.0648820000    -0.4548440000     0.8154700000
   13      H      -2.2310880000     3.9545390000    -0.8045970000
   14      H      -3.9544790000     2.9807350000     0.7157940000
   15      H      -3.4504120000     0.9056570000     1.9750490000
   16      H      -1.2283260000    -0.1990640000     1.7187150000
   17      O       2.4137580000     2.8893500000    -2.2175300000
   18      H       1.9519360000     3.6708660000    -2.5764830000
   19      C       3.1801760000     0.4746330000    -0.8344390000
   20      C       4.1698290000     0.9351370000     0.2589060000
   21      C       5.5204700000     0.1952910000     0.2438220000
   22      C       6.3472930000     0.5769200000     1.4799640000
   23      C       6.3207070000     0.4532770000    -1.0409440000
   24      H       3.5923670000     0.6797610000    -1.8238990000
   25      H       3.0296540000    -0.6040860000    -0.7415320000
   26      H       3.6987100000     0.7845150000     1.2355350000
   27      H       4.3473100000     2.0127340000     0.1544870000
   28      H       5.3081840000    -0.8809330000     0.3022210000
   29      H       7.2942080000     0.0296060000     1.5065160000
   30      H       5.8065050000     0.3566920000     2.4049880000
   31      H       6.5830220000     1.6469700000     1.4771800000
   32      H       7.2790940000    -0.0736140000    -1.0143980000
   33      H       6.5321860000     1.5219570000    -1.1588300000
   34      H       5.7887760000     0.1183700000    -1.9348310000
 ----------------------------------------------------------------

    8    -807.1592323462      9.39e-06  Convergence criterion met
 Total energy in the final basis set =     -807.1592323462

                    Orbital Energies (a.u.)
 --------------------------------------------------------------

 Alpha MOs
 -- Occupied --
-19.1777 -19.1495 -19.1296 -10.2933 -10.2811 -10.2667 -10.2102 -10.2091
-10.2033 -10.2003 -10.1984 -10.1967 -10.1966 -10.1743 -10.1700 -10.1645
-10.1517 -10.1514  -1.1080  -1.0670  -1.0635  -0.8922  -0.8438  -0.8098
 -0.7832  -0.7792  -0.7359  -0.6938  -0.6798  -0.6600  -0.6462  -0.6112
 -0.6030  -0.5735  -0.5573  -0.5422  -0.5185  -0.4970  -0.4793  -0.4720
 -0.4679  -0.4643  -0.4521  -0.4499  -0.4415  -0.4292  -0.4242  -0.4170
 -0.4075  -0.4049  -0.3933  -0.3810  -0.3782  -0.3765  -0.3694  -0.3626
 -0.3498  -0.3288  -0.3227  -0.3192  -0.3030  -0.2896  -0.2799  -0.2795
 -0.2559

          Ground-State Mulliken Net Atomic Charges

     Atom                 Charge (a.u.)
  ----------------------------------------
      1 C                     0.235214
      2 C                    -0.416018
      3 C                    -0.414513
      4 C                     0.224859
      5 C                     0.017427
      6 C                     0.202383
      7 C                    -0.717549
      8 C                    -0.554022
      9 C                     1.950445
     10 C                    -0.876516
     11 O                    -0.320661
     12 O                    -0.288138
     13 H                     0.203576
     14 H                     0.226487
     15 H                     0.223898
     16 H                     0.199005
     17 O                    -0.225142
     18 H                     0.320117
     19 C                    -0.233491
     20 C                    -0.695973
     21 C                     0.427921
     22 C                    -0.652738
     23 C                    -0.672017
     24 H                     0.223539
     25 H                     0.217614
     26 H                     0.172197
     27 H                     0.174814
     28 H                     0.146708
     29 H                     0.157225
     30 H                     0.142020
     31 H                     0.147308
     32 H                     0.155411
     33 H                     0.150593
     34 H                     0.148016
  ----------------------------------------
  Sum of atomic charges =     0.000000

                    Cartesian Multipole Moments
 -----------------------------------------------------------------
    Charge (ESU x 10^10)
                -0.0000
    Dipole Moment (Debye)
         X      -2.7548      Y       1.2338      Z       0.5443
       Tot       3.0672
    Quadrupole Moments (Debye-Ang)
        XX     -96.0387     XY      -4.1620     YY    -110.9085
        XZ      -5.7510     YZ       4.4762     ZZ    -109.4160

 Total job time:  65.63s(wall), 410.15s(cpu)
        *  Thank you very much for using Q-Chem.  Have a nice day.  *
