 Gaussian 16, Revision A.03,
 Gaussian 16:  ES64L-G16RevA.03 25-Dec-2016

 --------------------------------------
 #P UB3LYP/6-311++G(d,p) nosym opt freq
 --------------------------------------

 -------
 Reduced
 -------
 Symbolic Z-matrix:
 Charge = -2 Multiplicity = 1

 SCF Done:  E(UB3LYP) =  -917.971589077     A.U. after   52 cycles
 SCF Done:  E(UB3LYP) =  -917.996595935     A.U. after   29 cycles
 SCF Done:  E(UB3LYP) =  -918.000467628     A.U. after   30 cycles
 SCF Done:  E(UB3LYP) =  -918.002616965     A.U. after   27 cycles
 SCF Done:  E(UB3LYP) =  -918.002843503     A.U. after   25 cycles
 SCF Done:  E(UB3LYP) =  -918.002949753     A.U. after   25 cycles
 SCF Done:  E(UB3LYP) =  -918.003004954     A.U. after   24 cycles
 SCF Done:  E(UB3LYP) =  -918.003116815     A.U. after   32 cycles
 SCF Done:  E(UB3LYP) =  -918.003169123     A.U. after   29 cycles
 SCF Done:  E(UB3LYP) =  -918.003205472     A.U. after   27 cycles
 SCF Done:  E(UB3LYP) =  -918.003237217     A.U. after   28 cycles
 SCF Done:  E(UB3LYP) =  -918.003247544     A.U. after   25 cycles
 SCF Done:  E(UB3LYP) =  -918.003261804     A.U. after   37 cycles
 SCF Done:  E(UB3LYP) =  -918.003271417     A.U. after   24 cycles
 SCF Done:  E(UB3LYP) =  -918.003273925     A.U. after   22 cycles
 SCF Done:  E(UB3LYP) =  -918.003273809     A.U. after   23 cycles
 SCF Done:  E(UB3LYP) =  -918.003274362     A.U. after   22 cycles
 Optimization completed.
    -- Stationary point found.
 Normal termination of Gaussian 16 at Thu Dec 21 11:03:34 2023.

 ----------------------------------------------------------------------
 #P Geom=AllCheck Guess=TCheck SCRF=Check GenChk UB3LYP/6-311++G(d,p) F
 req
 ----------------------------------------------------------------------

 Structure from the checkpoint file:  "139-an.chk"
 -------
 Reduced
 -------
 Charge = -2 Multiplicity = 1

                          Input orientation:
 ---------------------------------------------------------------------
 Center     Atomic      Atomic             Coordinates (Angstroms)
 Number     Number       Type             X           Y           Z
 ---------------------------------------------------------------------
      1          6           0       -3.235678    2.997568    0.019606
      2          8           0       -1.918226    2.516331    0.013837
      3          6           0       -1.712194    1.154916   -0.038047
      4          6           0       -2.776082    0.279257   -0.037864
      5          6           0       -2.554389   -1.120397   -0.076236
      6          6           0       -1.273567   -1.625992   -0.027003
      7          8           0       -1.048066   -2.984291   -0.079647
      8          6           0       -2.151988   -3.847915   -0.132873
      9          6           0       -0.123589   -0.761090    0.053974
     10          6           0        1.212220   -1.313404    0.246000
     11          8           0        1.472083   -2.535531    0.472587
     12          6           0        2.308565   -0.348812    0.159588
     13          6           0        3.637639   -0.815937    0.290766
     14          6           0        4.722141    0.036081    0.207874
     15          6           0        4.508390    1.420501   -0.011884
     16          6           0        3.218718    1.897913   -0.145237
     17          6           0        2.093694    1.043558   -0.066352
     18          6           0        0.758279    1.624525   -0.204455
     19          8           0        0.638608    2.868851   -0.427507
     20          6           0       -0.349512    0.686563   -0.065340
     21          1           0       -3.159073    4.086861    0.074925
     22          1           0       -3.816586    2.640338    0.885214
     23          1           0       -3.786546    2.726239   -0.894091
     24          1           0       -3.797861    0.636076   -0.028211
     25          1           0       -3.415458   -1.774294   -0.125855
     26          1           0       -2.794852   -3.763800    0.756802
     27          1           0       -1.741478   -4.860332   -0.177086
     28          1           0       -2.780440   -3.682954   -1.022930
     29          1           0        3.760951   -1.880870    0.458071
     30          1           0        5.734080   -0.351818    0.309389
     31          1           0        5.355122    2.101672   -0.073840
     32          1           0        3.015094    2.950184   -0.314174
 ---------------------------------------------------------------------

 SCF Done:  E(UB3LYP) =  -918.003274362     A.U. after    2 cycles

 Alpha  occ. eigenvalues --  -18.92186 -18.92185 -18.79875 -18.79875 -10.01664
 Alpha  occ. eigenvalues --  -10.01663  -9.99755  -9.99754  -9.96498  -9.96496
 Alpha  occ. eigenvalues --   -9.94825  -9.94779  -9.93760  -9.93758  -9.93544
 Alpha  occ. eigenvalues --   -9.93499  -9.93071  -9.93038  -9.92476  -9.92432
 Alpha  occ. eigenvalues --   -0.84033  -0.83969  -0.72409  -0.72070  -0.61758
 Alpha  occ. eigenvalues --   -0.60889  -0.54113  -0.53573  -0.51280  -0.51242
 Alpha  occ. eigenvalues --   -0.48847  -0.46058  -0.42343  -0.39575  -0.38302
 Alpha  occ. eigenvalues --   -0.35101  -0.32812  -0.31315  -0.29940  -0.28595
 Alpha  occ. eigenvalues --   -0.26848  -0.25620  -0.25434  -0.24298  -0.23255
 Alpha  occ. eigenvalues --   -0.22040  -0.21799  -0.19399  -0.18962  -0.18659
 Alpha  occ. eigenvalues --   -0.17300  -0.16668  -0.16403  -0.14256  -0.13606
 Alpha  occ. eigenvalues --   -0.13564  -0.12817  -0.11803  -0.11034  -0.10106
 Alpha  occ. eigenvalues --   -0.09707  -0.09564  -0.09082  -0.06447  -0.01687
 Alpha  occ. eigenvalues --   -0.00631  -0.00195   0.02171   0.02951   0.03496
 Alpha  occ. eigenvalues --    0.12278
 Alpha virt. eigenvalues --    0.13917   0.14172   0.15280   0.16430   0.17123
 Alpha virt. eigenvalues --    0.17521   0.17996   0.18576   0.19340   0.19747
 Alpha virt. eigenvalues --    0.20348   0.21096   0.21224   0.22264   0.22662

  Beta  occ. eigenvalues --  -18.92186 -18.92185 -18.79875 -18.79875 -10.01664
  Beta  occ. eigenvalues --  -10.01663  -9.99755  -9.99754  -9.96498  -9.96496
  Beta  occ. eigenvalues --   -9.94825  -9.94779  -9.93760  -9.93758  -9.93544
  Beta  occ. eigenvalues --   -9.93499  -9.93071  -9.93038  -9.92476  -9.92432
  Beta  occ. eigenvalues --   -0.84033  -0.83969  -0.72409  -0.72070  -0.61758
  Beta  occ. eigenvalues --   -0.60889  -0.54113  -0.53573  -0.51280  -0.51242
  Beta  occ. eigenvalues --   -0.48847  -0.46058  -0.42343  -0.39575  -0.38302
  Beta  occ. eigenvalues --   -0.35101  -0.32812  -0.31315  -0.29940  -0.28595
  Beta  occ. eigenvalues --   -0.26848  -0.25620  -0.25434  -0.24298  -0.23255
  Beta  occ. eigenvalues --   -0.22040  -0.21799  -0.19399  -0.18962  -0.18659
  Beta  occ. eigenvalues --   -0.17300  -0.16668  -0.16403  -0.14256  -0.13606
  Beta  occ. eigenvalues --   -0.13564  -0.12817  -0.11803  -0.11034  -0.10106
  Beta  occ. eigenvalues --   -0.09707  -0.09564  -0.09082  -0.06447  -0.01687
  Beta  occ. eigenvalues --   -0.00631  -0.00195   0.02171   0.02951   0.03496
  Beta  occ. eigenvalues --    0.12278
  Beta virt. eigenvalues --    0.13917   0.14172   0.15280   0.16430   0.17123
  Beta virt. eigenvalues --    0.17521   0.17996   0.18576   0.19340   0.19747
  Beta virt. eigenvalues --    0.20348   0.21096   0.21224   0.22264   0.22662

 Mulliken charges and spin densities:
               1          2
     1  C    0.379782  -0.000000
     2  O   -0.096429   0.000000
     3  C   -0.166002   0.000000
     4  C   -0.256302   0.000000
     5  C   -0.257338  -0.000000
     6  C   -0.167937  -0.000000
     7  O   -0.096562  -0.000000
     8  C    0.377739   0.000000
     9  C    0.345237  -0.000000
    10  C   -0.313311  -0.000000
    11  O   -0.446533  -0.000000
    12  C    0.289166  -0.000000
    13  C    0.147997  -0.000000
    14  C   -0.528396  -0.000000
    15  C   -0.528815   0.000000
    16  C    0.148121   0.000000
    17  C    0.289102   0.000000
    18  C   -0.309311   0.000000
    19  O   -0.446707   0.000000
    20  C    0.345988   0.000000
    21  H   -0.180467   0.000000
    22  H   -0.255976   0.000000
    23  H    0.024706   0.000000
    24  H   -0.159718   0.000000
    25  H   -0.160912  -0.000000
    26  H    0.025834  -0.000000
    27  H   -0.179444  -0.000000
    28  H   -0.256347  -0.000000
    29  H    0.135560   0.000000
    30  H    0.080830  -0.000000
    31  H    0.080891   0.000000
    32  H    0.135554  -0.000000
 Sum of Mulliken charges =  -2.00000  -0.00000

 Dipole moment (field-independent basis, Debye):
    X=             -0.9574    Y=             -0.1564    Z=             -0.0168  Tot=              0.9702
 Quadrupole moment (field-independent basis, Debye-Ang):
   XX=           -203.3117   YY=           -208.1502   ZZ=           -138.9918
   XY=              0.7811   XZ=             -1.4151   YZ=              0.2503

  Exact polarizability:1695.736-432.8924334.270 -41.708 420.819 486.008
 Approx polarizability:4630.977 130.4193763.942  20.709 430.323 491.025

                      1                      2                      3
                      A                      A                      A
 Frequencies --     29.5196                29.8392                64.9536
 Red. masses --      6.1547                 6.3042                 3.3635
 Frc consts  --      0.0032                 0.0033                 0.0084
 IR Inten    --      0.4710                 4.6131                12.7186

                      4                      5                      6
                      A                      A                      A
 Frequencies --     74.7221                90.6715               124.5572
 Red. masses --      3.4489                 4.3658                 4.4599
 Frc consts  --      0.0113                 0.0211                 0.0408
 IR Inten    --      1.9791                 0.2177                 0.7362

                      7                      8                      9
                      A                      A                      A
 Frequencies --    165.9474               175.0054               196.0602
 Red. masses --      5.0888                 6.5960                 3.4356
 Frc consts  --      0.0826                 0.1190                 0.0778
 IR Inten    --     57.0205                 3.5310                 0.7156

                     10                     11                     12
                      A                      A                      A
 Frequencies --    252.6820               261.1496               285.4137
 Red. masses --      5.9112                 1.0956                 1.1223
 Frc consts  --      0.2224                 0.0440                 0.0539
 IR Inten    --     38.2836                 1.3062               142.7076

                     13                     14                     15
                      A                      A                      A
 Frequencies --    295.7759               325.6063               339.4862
 Red. masses --      5.5237                 4.8066                 4.6144
 Frc consts  --      0.2847                 0.3002                 0.3133
 IR Inten    --      9.8801                38.2014                10.0794

                     16                     17                     18
                      A                      A                      A
 Frequencies --    361.8909               374.0900               381.6356
 Red. masses --      6.1204                 8.4148                 7.8401
 Frc consts  --      0.4723                 0.6938                 0.6728
 IR Inten    --      2.8865                85.9597                 4.3117

                     19                     20                     21
                      A                      A                      A
 Frequencies --    399.1869               403.0842               443.4650
 Red. masses --      5.0532                 8.9779                 3.3490
 Frc consts  --      0.4744                 0.8594                 0.3881
 IR Inten    --     40.8177                 3.4949                 5.2129

                     22                     23                     24
                      A                      A                      A
 Frequencies --    470.0954               492.3763               509.8104
 Red. masses --     10.7544                 4.3188                 6.5139
 Frc consts  --      1.4003                 0.6169                 0.9975
 IR Inten    --    515.6322                 0.8631                14.7727

                     25                     26                     27
                      A                      A                      A
 Frequencies --    569.5995               606.5024               622.2622
 Red. masses --      5.3271                 2.7787                 5.5122
 Frc consts  --      1.0183                 0.6022                 1.2575
 IR Inten    --     20.2206                51.5595                 0.9132

                     28                     29                     30
                      A                      A                      A
 Frequencies --    636.0375               663.1534               705.7523
 Red. masses --      4.4235                 6.2628                 1.5996
 Frc consts  --      1.0544                 1.6227                 0.4694
 IR Inten    --     15.0111                 2.9062                44.8402

                     31                     32                     33
                      A                      A                      A
 Frequencies --    719.5572               725.3063               738.3819
 Red. masses --      5.5287                 4.1902                 5.5544
 Frc consts  --      1.6866                 1.2988                 1.7842
 IR Inten    --    117.9892                14.8355                28.2969

                     34                     35                     36
                      A                      A                      A
 Frequencies --    750.6644               778.5399               786.4423
 Red. masses --      1.7728                 3.4298                 1.7174
 Frc consts  --      0.5886                 1.2249                 0.6258
 IR Inten    --     25.0228                15.0945                10.8398

                     37                     38                     39
                      A                      A                      A
 Frequencies --    803.5646               833.5546               846.9470
 Red. masses --      1.9767                 2.5524                 6.8458
 Frc consts  --      0.7520                 1.0449                 2.8932
 IR Inten    --      0.9330                 0.3046                61.4665

                     40                     41                     42
                      A                      A                      A
 Frequencies --    873.0352               933.4891               965.6409
 Red. masses --      8.3334                 5.9154                 1.2336
 Frc consts  --      3.7423                 3.0371                 0.6777
 IR Inten    --     12.0249                10.7626                 0.0011

                     43                     44                     45
                      A                      A                      A
 Frequencies --    970.1480              1003.9391              1022.0669
 Red. masses --      1.3624                 5.7665                 2.1651
 Frc consts  --      0.7555                 3.4243                 1.3326
 IR Inten    --      3.6395               118.9604               440.9949

                     46                     47                     48
                      A                      A                      A
 Frequencies --   1088.4462              1088.8620              1098.8429
 Red. masses --      8.2278                 4.4926                 1.9526
 Frc consts  --      5.7431                 3.1383                 1.3891
 IR Inten    --   1620.8080               812.9919                13.8045

                     49                     50                     51
                      A                      A                      A
 Frequencies --   1122.9005              1157.0514              1157.9317
 Red. masses --      1.5605                 1.2922                 1.2873
 Frc consts  --      1.1593                 1.0193                 1.0169
 IR Inten    --    337.5764                 5.6046                 9.7564

                     52                     53                     54
                      A                      A                      A
 Frequencies --   1165.3105              1188.5580              1192.3582
 Red. masses --      1.5869                 1.9664                 1.7744
 Frc consts  --      1.2697                 1.6366                 1.4863
 IR Inten    --     31.8247                78.9470               138.6276

                     55                     56                     57
                      A                      A                      A
 Frequencies --   1195.4260              1209.7980              1232.5380
 Red. masses --      1.6553                 2.0659                 2.1844
 Frc consts  --      1.3937                 1.7815                 1.9551
 IR Inten    --    322.4572                22.1072               144.9851

                     58                     59                     60
                      A                      A                      A
 Frequencies --   1240.9000              1245.0560              1287.4879
 Red. masses --      3.3648                 4.1088                 8.1329
 Frc consts  --      3.0527                 3.7527                 7.9429
 IR Inten    --   1305.1259                48.5744               108.2333

                     61                     62                     63
                      A                      A                      A
 Frequencies --   1342.5878              1360.0917              1383.8762
 Red. masses --      2.6614                11.1162                 2.9493
 Frc consts  --      2.8265                12.1156                 3.3278
 IR Inten    --    204.7937               237.8873                68.5717

                     64                     65                     66
                      A                      A                      A
 Frequencies --   1392.4841              1452.7652              1459.0309
 Red. masses --      4.3858                 1.4157                 1.2297
 Frc consts  --      5.0105                 1.7604                 1.5423
 IR Inten    --    288.7322              1946.6066               261.3333

                     67                     68                     69
                      A                      A                      A
 Frequencies --   1461.1072              1466.0908              1472.4724
 Red. masses --      2.4747                 3.1036                 4.3319
 Frc consts  --      3.1127                 3.9304                 5.5337
 IR Inten    --   1961.0669               199.5952              2677.3446

                     70                     71                     72
                      A                      A                      A
 Frequencies --   1474.7066              1476.4214              1494.4210
 Red. masses --      1.0598                 1.0544                 1.2648
 Frc consts  --      1.3579                 1.3542                 1.6643
 IR Inten    --     29.8728               300.5079               494.8297

                     73                     74                     75
                      A                      A                      A
 Frequencies --   1496.0607              1506.7943              1545.7823
 Red. masses --      1.1027                 2.9250                 4.8747
 Frc consts  --      1.4541                 3.9128                 6.8627
 IR Inten    --     48.3239               118.9790               191.4094

                     76                     77                     78
                      A                      A                      A
 Frequencies --   1568.1240              1582.4421              1595.8625
 Red. masses --      6.8698                 4.5990                 5.5652
 Frc consts  --      9.9531                 6.7852                 8.3507
 IR Inten    --   3016.4858               607.7244                95.1614

                     79                     80                     81
                      A                      A                      A
 Frequencies --   2931.0062              2932.3073              2973.8921
 Red. masses --      1.0402                 1.0401                 1.0990
 Frc consts  --      5.2651                 5.2693                 5.7267
 IR Inten    --     21.4647                24.3391                46.3903

                     82                     83                     84
                      A                      A                      A
 Frequencies --   2974.1773              3065.5688              3065.8542
 Red. masses --      1.0992                 1.0940                 1.0941
 Frc consts  --      5.7290                 6.0576                 6.0591
 IR Inten    --      3.0921                 2.2496                 9.2614

                     85                     86                     87
                      A                      A                      A
 Frequencies --   3096.9343              3120.3157              3165.6972
 Red. masses --      1.0830                 1.0912                 1.0901
 Frc consts  --      6.1197                 6.2599                 6.4367
 IR Inten    --     19.6554               302.3542                11.2523

                     88                     89                     90
                      A                      A                      A
 Frequencies --   3167.3281              3167.8351              3187.4743
 Red. masses --      1.0851                 1.0911                 1.0912
 Frc consts  --      6.4139                 6.4514                 6.5322
 IR Inten    --    451.3014               189.6788                83.7412

 - Thermochemistry -
 -------------------
 Temperature   298.150 Kelvin.  Pressure   1.00000 Atm.
 Atom     1 has atomic number  6 and mass  12.00000

 Molecular mass:   268.07356 amu.
 Principal axes and moments of inertia in atomic units:
                           1         2         3
     Eigenvalues --  3874.915145834.754519630.50556
           X            0.98756  -0.15474  -0.02797
           Y            0.15584   0.98687   0.04246
           Z            0.02103  -0.04629   0.99871
 This molecule is an asymmetric top.
 Rotational symmetry number  1.
 Warning -- assumption of classical behavior for rotation
           may cause significant error
 Rotational temperatures (Kelvin)      0.02235     0.01484     0.00899
 Rotational constants (GHZ):           0.46575     0.30931     0.18740
 Zero-point vibrational energy     622970.8 (Joules/Mol)
                                  148.89360 (Kcal/Mol)
 Warning -- explicit consideration of  26 degrees of freedom as
           vibrations may cause significant error
 Vibrational temperatures:     42.47    42.93    93.45   107.51   130.46
          (Kelvin)            179.21   238.76   251.79   282.09   363.55
                              375.74   410.65   425.56   468.47   488.44
                              520.68   538.23   549.09   574.34   579.95
                              638.05   676.36   708.42   733.50   819.53
                              872.62   895.30   915.12   954.13  1015.42
                             1035.28  1043.55  1062.37  1080.04  1120.15
                             1131.52  1156.15  1199.30  1218.57  1256.10
                             1343.08  1389.34  1395.83  1444.44  1470.53
                             1566.03  1566.63  1580.99  1615.60  1664.74
                             1666.01  1676.62  1710.07  1715.54  1719.95
                             1740.63  1773.35  1785.38  1791.36  1852.41
                             1931.68  1956.87  1991.09  2003.47  2090.21
                             2099.22  2102.21  2109.38  2118.56  2121.77
                             2124.24  2150.14  2152.50  2167.94  2224.04
                             2256.18  2276.78  2296.09  4217.06  4218.94
                             4278.77  4279.18  4410.67  4411.08  4455.80
                             4489.44  4554.73  4557.08  4557.81  4586.06

 Zero-point correction=                           0.237277 (Hartree/Particle)
 Thermal correction to Energy=                    0.254138
 Thermal correction to Enthalpy=                  0.255082
 Thermal correction to Gibbs Free Energy=         0.191879
 Sum of electronic and zero-point Energies=           -917.765997
 Sum of electronic and thermal Energies=              -917.749137
 Sum of electronic and thermal Enthalpies=            -917.748193
 Sum of electronic and thermal Free Energies=         -917.811395

                     E (Thermal)             CV                S
                      KCal/Mol        Cal/Mol-Kelvin    Cal/Mol-Kelvin
 Total                  159.474             65.598            133.021
 Electronic               0.000              0.000              0.000
 Translational            0.889              2.981             42.657
 Rotational               0.889              2.981             33.742
 Vibrational            157.696             59.637             56.621
 Vibration     1          0.593              1.984              5.861
 Vibration     2          0.594              1.984              5.840
 Vibration     3          0.597              1.971              4.301
 Vibration     4          0.599              1.966              4.025
 Vibration     5          0.602              1.956              3.646
 Vibration     6          0.610              1.928              3.028
 Vibration     7          0.624              1.884              2.481
 Vibration     8          0.627              1.873              2.381
 Vibration     9          0.636              1.845              2.170
 Vibration    10          0.664              1.758              1.712
 Vibration    11          0.669              1.744              1.654
 Vibration    12          0.683              1.701              1.501
 Vibration    13          0.690              1.682              1.441
 Vibration    14          0.710              1.624              1.282
 Vibration    15          0.719              1.597              1.215
 Vibration    16          0.736              1.551              1.114
 Vibration    17          0.745              1.525              1.063
 Vibration    18          0.751              1.509              1.033
 Vibration    19          0.765              1.472              0.966
 Vibration    20          0.768              1.463              0.951
 Vibration    21          0.803              1.375              0.816
 Vibration    22          0.827              1.316              0.737
 Vibration    23          0.848              1.267              0.677
 Vibration    24          0.865              1.228              0.634
 Vibration    25          0.926              1.097              0.505
 Vibration    26          0.965              1.018              0.439

                           ! Non-Optimized Parameters !
 Normal termination of Gaussian 16 at Thu Dec 21 12:42:08 2023.
