 Q-Chem 5.4, Q-Chem, Inc., Pleasanton, CA (2021)
 Q-Chem 5.4.0 for Intel X86 EM64T Linux

User input:
--------------------------------------------------------------
$molecule
-1 2
C                  5.0191580000     -2.3964690000      0.5722360000
C                  5.8235520000     -1.7070930000     -0.3146570000
C                  5.2376280000     -0.8973770000     -1.3090160000
C                  3.6140730000     -2.3050610000      0.5016410000
C                  3.0224160000     -1.4890560000     -0.5000420000
C                  3.8630290000     -0.7938440000     -1.3955030000
C                  2.8013770000     -3.0576650000      1.4696260000
C                  1.3482370000     -2.9127960000      1.3347920000
C                  0.7575780000     -2.0899590000      0.3242570000
C                  1.5658480000     -1.3473280000     -0.6333020000
C                  0.5161560000     -3.6082370000      2.2271770000
C                 -0.6539100000     -1.9965850000      0.2573410000
C                 -1.4651000000     -2.6776050000      1.1332780000
O                  3.3194660000     -3.7762680000      2.3490470000
O                  1.0519000000     -0.6255510000     -1.5231270000
H                  5.4400110000     -3.0264370000      1.3472190000
H                  6.9040860000     -1.7876690000     -0.2471330000
H                  5.8686990000     -0.3549000000     -2.0065690000
H                 -2.5433500000     -2.5950690000      1.0887320000
H                  3.3867690000     -0.1787320000     -2.1499340000
H                  0.9776670000     -4.2249230000      2.9882570000
H                 -1.0740960000     -1.3611460000     -0.5130410000
C                 -0.8576830000     -3.4883420000      2.1256240000
S                 -1.8865330000     -4.3984290000      3.2295080000
O                 -1.1711360000     -4.7944730000      4.4411070000
O                 -3.2001300000     -3.7648400000      3.3632570000
O                 -2.1076840000     -5.7772810000      2.3169790000
C                 -2.9231170000     -6.7898650000      2.9291520000
H                 -2.4723500000     -7.1365130000      3.8625950000
H                 -2.9572990000     -7.6063670000      2.2086890000
H                 -3.9330130000     -6.4141600000      3.1141680000
$end
$rem
MAX_SCF_CYCLES=200
BASIS  =  6-311++G(d,p)
GUI  =  2
JOB_TYPE  =  SP
METHOD  =  B3LYP
SOLVENT_METHOD = COSMO
$end
$solvent
dielectric 37.219
opticaldielectric 1.43
$end

--------------------------------------------------------------

             Standard Nuclear Orientation (Angstroms)
    I     Atom           X                Y                Z
 ----------------------------------------------------------------
    1      C       3.9128455461    -1.8078747670    -0.0246211244
    2      C       5.2350823408    -1.4235594971    -0.1380221914
    3      C       5.5622625123    -0.0551914593    -0.2286798101
    4      C       2.8774009486    -0.8514643097     0.0025166103
    5      C       3.2060143272     0.5280315037    -0.0885632793
    6      C       4.5630635310     0.8980693181    -0.2038447503
    7      C       1.4855377318    -1.3112696155     0.1257172432
    8      C       0.4636918563    -0.2595462793     0.1479011374
    9      C       0.7999479654     1.1280958081     0.0557000776
   10      C       2.1794277545     1.5792756270    -0.0675586586
   11      C      -0.8853717604    -0.6332017539     0.2608476194
   12      C      -0.2413322967     2.0873980721     0.0868354463
   13      C      -1.5604736717     1.7180654271     0.1988288144
   14      O       1.1950304097    -2.5227359132     0.2040925199
   15      O       2.4791783771     2.7958747913    -0.1508001914
   16      H       3.6301409482    -2.8516723243     0.0470751002
   17      H       6.0210754168    -2.1721915700    -0.1572734618
   18      H       6.6010803731     0.2482088295    -0.3176618717
   19      H      -2.3540512224     2.4531342456     0.2352719611
   20      H       4.7866678152     1.9562411515    -0.2718593735
   21      H      -1.1242146980    -1.6869444778     0.3323816330
   22      H       0.0421893118     3.1310811565     0.0222712145
   23      C      -1.8702782334     0.3370482637     0.2872211599
   24      S      -3.5600266574    -0.1522248335     0.3907231180
   25      O      -3.7051115641    -1.5029009209     0.9303899886
   26      O      -4.3826101915     0.9218185825     0.9516580200
   27      O      -3.9175733495    -0.2326684387    -1.2367101273
   28      C      -5.2644571162    -0.6260451772    -1.5468261978
   29      H      -5.4729986782    -1.6270420519    -1.1605785671
   30      H      -5.3199101752    -0.6298477958    -2.6348617477
   31      H      -5.9810306416     0.0925384009    -1.1400890319
 ----------------------------------------------------------------

    9   -1352.2357474854      7.45e-06  Convergence criterion met
 Total energy in the final basis set =    -1352.2357474854
    4   -1352.3179144855      8.65e-06  Convergence criterion met
 Total energy in the final basis set =    -1352.3179144855

                    Orbital Energies (a.u.)
 --------------------------------------------------------------

 Alpha MOs
 -- Occupied --
-89.0924 -19.1765 -19.1427 -19.1414 -19.0923 -19.0876 -10.2419 -10.2346
-10.2254 -10.2229 -10.2014 -10.1957 -10.1895 -10.1889 -10.1851 -10.1828
-10.1822 -10.1787 -10.1778 -10.1761 -10.1751  -8.1535  -6.1171  -6.1156
 -6.1139  -1.1583  -1.0480  -1.0337  -1.0219  -1.0143  -0.8841  -0.8635
 -0.8110  -0.7791  -0.7621  -0.7571  -0.7335  -0.6856  -0.6661  -0.6400
 -0.6144  -0.6004  -0.5720  -0.5616  -0.5441  -0.5318  -0.5084  -0.4999
 -0.4828  -0.4747  -0.4677  -0.4592  -0.4567  -0.4455  -0.4352  -0.4313
 -0.4281  -0.4265  -0.4193  -0.4105  -0.4022  -0.3943  -0.3836  -0.3703
 -0.3593  -0.3573  -0.3548  -0.3538  -0.3438  -0.3418  -0.3357  -0.3066
 -0.2852  -0.2779  -0.2630  -0.2611  -0.2605  -0.2504  -0.1555

 Beta MOs
 -- Occupied --
-89.0924 -19.1764 -19.1426 -19.1414 -19.0875 -19.0816 -10.2406 -10.2329
-10.2253 -10.2221 -10.2018 -10.1947 -10.1885 -10.1873 -10.1852 -10.1824
-10.1816 -10.1784 -10.1773 -10.1761 -10.1749  -8.1534  -6.1170  -6.1156
 -6.1139  -1.1581  -1.0478  -1.0336  -1.0135  -1.0038  -0.8817  -0.8620
 -0.8072  -0.7768  -0.7604  -0.7554  -0.7321  -0.6800  -0.6637  -0.6378
 -0.6129  -0.5997  -0.5706  -0.5596  -0.5423  -0.5311  -0.5067  -0.4995
 -0.4804  -0.4736  -0.4665  -0.4590  -0.4561  -0.4452  -0.4298  -0.4269
 -0.4227  -0.4220  -0.4172  -0.4099  -0.4002  -0.3796  -0.3716  -0.3693
 -0.3585  -0.3568  -0.3535  -0.3457  -0.3424  -0.3416  -0.3332  -0.3064
 -0.2726  -0.2642  -0.2565  -0.2557  -0.2542  -0.2453

          Ground-State Mulliken Net Atomic Charges

     Atom                 Charge (a.u.)    Spin (a.u.)
  --------------------------------------------------------
      1 C                     0.063427       0.013462
      2 C                    -0.469516       0.036783
      3 C                    -0.499775       0.013511
      4 C                     0.311755       0.021730
      5 C                     0.367951       0.001266
      6 C                     0.071973       0.039424
      7 C                    -0.711227       0.072369
      8 C                     0.385529       0.076681
      9 C                     0.740925       0.103350
     10 C                    -0.345674       0.100661
     11 C                     0.141874      -0.024451
     12 C                    -0.091161       0.021233
     13 C                    -0.444763       0.088903
     14 O                    -0.439746       0.177936
     15 O                    -0.465486       0.218483
     16 H                     0.181455      -0.000901
     17 H                     0.209616      -0.002813
     18 H                     0.208999      -0.001446
     19 H                     0.261904      -0.005598
     20 H                     0.182583      -0.002545
     21 H                     0.231371       0.001449
     22 H                     0.186162      -0.000618
     23 C                    -1.209060       0.039744
     24 S                     0.337809       0.007603
     25 O                    -0.251725       0.003135
     26 O                    -0.258214      -0.001509
     27 O                    -0.096975       0.000210
     28 C                    -0.160051       0.001509
     29 H                     0.180971       0.000046
     30 H                     0.197899       0.000392
     31 H                     0.181160      -0.000000
  --------------------------------------------------------
  Sum of atomic charges =    -1.000010

                    Cartesian Multipole Moments
 -----------------------------------------------------------------
    Charge (ESU x 10^10)
                -4.8033
    Dipole Moment (Debye)
         X      -2.0707      Y      -0.3706      Z      -3.2955
       Tot       3.9097
    Quadrupole Moments (Debye-Ang)
        XX    -146.2412     XY     -10.2617     YY    -162.4688
        XZ      17.1688     YZ       4.1770     ZZ    -135.4291

 Total job time:  113.30s(wall), 836.96s(cpu)
        *  Thank you very much for using Q-Chem.  Have a nice day.  *
