 Q-Chem 5.4, Q-Chem, Inc., Pleasanton, CA (2021)
 Q-Chem 5.4.0 for Intel X86 EM64T Linux

User input:
--------------------------------------------------------------
$molecule
-1 2
O                  0.1205500000      0.4167540000      2.6812970000
C                  0.0803760000      0.2188350000      1.4063370000
C                 -1.1875010000      0.1125640000      0.7089210000
C                 -2.4303350000      0.2207290000      1.3924380000
C                 -3.6257800000      0.1124510000      0.6853270000
C                 -3.6261310000     -0.1027880000     -0.6984950000
C                 -2.4173240000     -0.2111970000     -1.3846150000
C                 -1.2258710000     -0.1027880000     -0.6768710000
O                 -0.0679670000     -0.2212740000     -1.4287950000
C                  1.1677880000     -0.1258810000     -0.8021320000
C                  2.2821550000     -0.2527930000     -1.6085600000
C                  3.5717420000     -0.1670710000     -1.0423320000
C                  3.6977460000      0.0459060000      0.3324170000
C                  2.5723690000      0.1730480000      1.1398090000
C                  1.2618420000      0.0910990000      0.5969820000
O                 -2.4361110000      0.4292980000      2.7329950000
H                 -4.5594830000      0.1984820000      1.2298670000
H                 -4.5540270000     -0.1875580000     -1.2518420000
O                 -2.4065710000     -0.4239330000     -2.7524400000
H                  2.1436440000     -0.4175150000     -2.6716680000
H                  4.4477040000     -0.2664230000     -1.6736610000
H                  4.6861120000      0.1134080000      0.7783720000
H                  2.6553560000      0.3384100000      2.2069080000
H                 -1.4585220000      0.4674960000      2.9881820000
H                 -1.4788860000     -0.4664160000     -3.0166140000
$end
$rem
MAX_SCF_CYCLES=200
BASIS  =  6-311++G(d,p)
GUI  =  2
JOB_TYPE  =  SP
METHOD  =  B3LYP
SOLVENT_METHOD = PCM
$end
$pcm
theory = CPCM
$end
$solvent
dielectric 37.219
opticaldielectric 1.43
$end

--------------------------------------------------------------

             Standard Nuclear Orientation (Angstroms)
    I     Atom           X                Y                Z
 ----------------------------------------------------------------
    1      O       0.1205500000     0.4167540000     2.6812970000
    2      C       0.0803760000     0.2188350000     1.4063370000
    3      C      -1.1875010000     0.1125640000     0.7089210000
    4      C      -2.4303350000     0.2207290000     1.3924380000
    5      C      -3.6257800000     0.1124510000     0.6853270000
    6      C      -3.6261310000    -0.1027880000    -0.6984950000
    7      C      -2.4173240000    -0.2111970000    -1.3846150000
    8      C      -1.2258710000    -0.1027880000    -0.6768710000
    9      O      -0.0679670000    -0.2212740000    -1.4287950000
   10      C       1.1677880000    -0.1258810000    -0.8021320000
   11      C       2.2821550000    -0.2527930000    -1.6085600000
   12      C       3.5717420000    -0.1670710000    -1.0423320000
   13      C       3.6977460000     0.0459060000     0.3324170000
   14      C       2.5723690000     0.1730480000     1.1398090000
   15      C       1.2618420000     0.0910990000     0.5969820000
   16      O      -2.4361110000     0.4292980000     2.7329950000
   17      H      -4.5594830000     0.1984820000     1.2298670000
   18      H      -4.5540270000    -0.1875580000    -1.2518420000
   19      O      -2.4065710000    -0.4239330000    -2.7524400000
   20      H       2.1436440000    -0.4175150000    -2.6716680000
   21      H       4.4477040000    -0.2664230000    -1.6736610000
   22      H       4.6861120000     0.1134080000     0.7783720000
   23      H       2.6553560000     0.3384100000     2.2069080000
   24      H      -1.4585220000     0.4674960000     2.9881820000
   25      H      -1.4788860000    -0.4664160000    -3.0166140000
 ----------------------------------------------------------------

    9    -801.4519236132      5.15e-06  Convergence criterion met
 Total energy in the final basis set =     -801.4519236132

                    Orbital Energies (a.u.)
 --------------------------------------------------------------

 Alpha MOs
 -- Occupied --
-19.1775 -19.1494 -19.1238 -19.0720 -10.2368 -10.2340 -10.2241 -10.2234
-10.2126 -10.1745 -10.1728 -10.1684 -10.1660 -10.1655 -10.1648 -10.1628
-10.1625  -1.0957  -1.0525  -1.0440  -0.9858  -0.8553  -0.8457  -0.7751
 -0.7621  -0.7405  -0.7208  -0.6560  -0.6471  -0.6002  -0.5928  -0.5565
 -0.5516  -0.5393  -0.5205  -0.4779  -0.4735  -0.4656  -0.4634  -0.4317
 -0.4252  -0.4169  -0.4094  -0.4074  -0.4021  -0.3990  -0.3911  -0.3694
 -0.3692  -0.3594  -0.3499  -0.3477  -0.3336  -0.3055  -0.2621  -0.2559
 -0.2466  -0.2414  -0.2011  -0.1124

 Beta MOs
 -- Occupied --
-19.1762 -19.1496 -19.1231 -19.0672 -10.2356 -10.2324 -10.2247 -10.2218
-10.2075 -10.1756 -10.1736 -10.1665 -10.1660 -10.1658 -10.1636 -10.1628
-10.1600  -1.0935  -1.0526  -1.0419  -0.9765  -0.8531  -0.8433  -0.7710
 -0.7594  -0.7380  -0.7194  -0.6524  -0.6429  -0.5984  -0.5899  -0.5540
 -0.5498  -0.5369  -0.5196  -0.4770  -0.4717  -0.4640  -0.4567  -0.4298
 -0.4235  -0.4145  -0.4076  -0.4020  -0.4007  -0.3920  -0.3899  -0.3682
 -0.3582  -0.3563  -0.3489  -0.3344  -0.3322  -0.3003  -0.2539  -0.2428
 -0.2426  -0.2313  -0.1966

          Ground-State Mulliken Net Atomic Charges

     Atom                 Charge (a.u.)    Spin (a.u.)
  --------------------------------------------------------
      1 O                    -0.594841       0.176210
      2 C                    -0.041675       0.315688
      3 C                     1.241346      -0.089017
      4 C                    -0.076876       0.135840
      5 C                    -0.088806      -0.065524
      6 C                    -0.074363       0.153310
      7 C                    -0.992027      -0.051677
      8 C                    -0.334315       0.096087
      9 O                    -0.171315       0.030410
     10 C                    -1.219843       0.072916
     11 C                    -0.380052      -0.026508
     12 C                    -0.478698       0.206976
     13 C                    -0.267958      -0.076409
     14 C                     0.131658       0.229789
     15 C                     1.248105      -0.087919
     16 O                    -0.419758       0.020751
     17 H                     0.203831       0.003295
     18 H                     0.214123      -0.011579
     19 O                    -0.325611      -0.003007
     20 H                     0.197866      -0.000529
     21 H                     0.190884      -0.014784
     22 H                     0.184515       0.004516
     23 H                     0.185564      -0.014342
     24 H                     0.353177      -0.004386
     25 H                     0.315069      -0.000109
  --------------------------------------------------------
  Sum of atomic charges =    -1.000000

                    Cartesian Multipole Moments
 -----------------------------------------------------------------
    Charge (ESU x 10^10)
                -4.8032
    Dipole Moment (Debye)
         X       3.5125      Y      -1.1344      Z      -7.2685
       Tot       8.1521
    Quadrupole Moments (Debye-Ang)
        XX    -117.4236     XY       0.0203     YY    -106.7503
        XZ      -0.0162     YZ      -3.2221     ZZ    -127.0215

 Total job time:  72.19s(wall), 371.15s(cpu)
        *  Thank you very much for using Q-Chem.  Have a nice day.  *
