 Gaussian 16, Revision A.03,
 Gaussian 16:  ES64L-G16RevA.03 25-Dec-2016

 --------------------------------------
 #P UB3LYP/6-311++G(d,p) nosym opt freq
 --------------------------------------

 -------
 Reduced
 -------
 Symbolic Z-matrix:
 Charge = -2 Multiplicity = 1

 SCF Done:  E(UB3LYP) =  -921.250891865     A.U. after   50 cycles
 SCF Done:  E(UB3LYP) =  -921.269986792     A.U. after   33 cycles
 SCF Done:  E(UB3LYP) =  -921.272437744     A.U. after   31 cycles
 SCF Done:  E(UB3LYP) =  -921.272894228     A.U. after   28 cycles
 SCF Done:  E(UB3LYP) =  -921.273035154     A.U. after   27 cycles
 SCF Done:  E(UB3LYP) =  -921.272991596     A.U. after   27 cycles
 SCF Done:  E(UB3LYP) =  -921.273064846     A.U. after   27 cycles
 SCF Done:  E(UB3LYP) =  -921.273069149     A.U. after   27 cycles
 SCF Done:  E(UB3LYP) =  -921.273072302     A.U. after   26 cycles
 SCF Done:  E(UB3LYP) =  -921.273082290     A.U. after   27 cycles
 SCF Done:  E(UB3LYP) =  -921.273436180     A.U. after   29 cycles
 SCF Done:  E(UB3LYP) =  -921.271397065     A.U. after   32 cycles
 SCF Done:  E(UB3LYP) =  -921.273482491     A.U. after   32 cycles
 SCF Done:  E(UB3LYP) =  -921.273339653     A.U. after   28 cycles
 SCF Done:  E(UB3LYP) =  -921.273499727     A.U. after   31 cycles
 SCF Done:  E(UB3LYP) =  -921.273501757     A.U. after   27 cycles
 SCF Done:  E(UB3LYP) =  -921.273502015     A.U. after   25 cycles
 SCF Done:  E(UB3LYP) =  -921.273502023     A.U. after   21 cycles
 SCF Done:  E(UB3LYP) =  -921.273502030     A.U. after   24 cycles
 Optimization completed.
    -- Stationary point found.
 Normal termination of Gaussian 16 at Thu Dec 21 11:48:42 2023.

 ----------------------------------------------------------------------
 #P Geom=AllCheck Guess=TCheck SCRF=Check GenChk UB3LYP/6-311++G(d,p) F
 req
 ----------------------------------------------------------------------

 Structure from the checkpoint file:  "134-an.chk"
 -------
 Reduced
 -------
 Charge = -2 Multiplicity = 1

                          Input orientation:
 ---------------------------------------------------------------------
 Center     Atomic      Atomic             Coordinates (Angstroms)
 Number     Number       Type             X           Y           Z
 ---------------------------------------------------------------------
      1          6           0        7.098031   -1.845765   -0.588542
      2          6           0        7.624818   -0.817901   -1.456886
      3          6           0        6.758317    0.250763   -1.898355
      4          6           0        5.454761    0.260490   -1.474655
      5          6           0        4.878760   -0.715173   -0.626211
      6          6           0        5.705838   -1.817084   -0.153366
      7          6           0        5.148742   -2.825931    0.710920
      8          6           0        3.733768   -2.657008    1.054692
      9          6           0        2.933471   -1.567160    0.580724
     10          6           0        3.486299   -0.539580   -0.291024
     11          6           0        3.121452   -3.614539    1.898500
     12          6           0        1.792390   -3.523933    2.267855
     13          6           0        1.003692   -2.444878    1.796671
     14          6           0        1.576266   -1.495139    0.971888
     15          8           0        5.787520   -3.833493    1.187365
     16          8           0        2.768256    0.432341   -0.714063
     17          1           0        4.782706    1.054421   -1.789996
     18          1           0        3.753218   -4.427282    2.241384
     19          1           0        1.006443   -0.653918    0.589881
     20          6           0        7.279616    1.339827   -2.800902
     21          1           0       -0.043564   -2.366092    2.083181
     22          6           0        8.975427   -0.874533   -1.864448
     23          6           0        8.006445   -2.862914   -0.193889
     24          6           0        9.334195   -2.879634   -0.618580
     25          6           0        9.846160   -1.893375   -1.466097
     26          6           0       11.289307   -1.901789   -1.913972
     27          1           0        1.352448   -4.278018    2.918293
     28          1           0        8.118799    1.895863   -2.351079
     29          1           0        6.484039    2.057952   -3.020616
     30          1           0        7.652970    0.949715   -3.760370
     31          1           0        9.354773   -0.096716   -2.521344
     32          1           0        7.615732   -3.632237    0.458007
     33          1           0        9.986696   -3.683102   -0.278216
     34          1           0       11.832876   -1.001829   -1.582802
     35          1           0       11.383443   -1.937882   -3.006870
     36          1           0       11.821563   -2.770009   -1.510419
 ---------------------------------------------------------------------

 SCF Done:  E(UB3LYP) =  -921.273502030     A.U. after    2 cycles

 Alpha  occ. eigenvalues --  -18.79612 -18.79399  -9.98169  -9.96328  -9.95631
 Alpha  occ. eigenvalues --   -9.95631  -9.95514  -9.94883  -9.94606  -9.94559
 Alpha  occ. eigenvalues --   -9.94365  -9.94261  -9.94096  -9.93622  -9.93602
 Alpha  occ. eigenvalues --   -9.93408  -9.92517  -9.92298  -9.92199  -9.92116
 Alpha  occ. eigenvalues --   -9.91380  -9.90858  -0.71645  -0.71244  -0.63559
 Alpha  occ. eigenvalues --   -0.61402  -0.59502  -0.55430  -0.54295  -0.51253
 Alpha  occ. eigenvalues --   -0.51032  -0.50275  -0.47900  -0.45543  -0.41498
 Alpha  occ. eigenvalues --   -0.39061  -0.37979  -0.36204  -0.34811  -0.31279
 Alpha  occ. eigenvalues --   -0.30017  -0.27389  -0.26465  -0.25386  -0.23450
 Alpha  occ. eigenvalues --   -0.22884  -0.22043  -0.21275  -0.21118  -0.20838
 Alpha  occ. eigenvalues --   -0.20293  -0.18773  -0.18040  -0.17092  -0.16899
 Alpha  occ. eigenvalues --   -0.15918  -0.15576  -0.15073  -0.14151  -0.13714
 Alpha  occ. eigenvalues --   -0.12967  -0.11534  -0.10592  -0.09949  -0.09681
 Alpha  occ. eigenvalues --   -0.09620  -0.07941  -0.06742  -0.03162  -0.01596
 Alpha  occ. eigenvalues --   -0.00410  -0.00258   0.02664   0.02726   0.03577
 Alpha  occ. eigenvalues --    0.11649
 Alpha virt. eigenvalues --    0.13098   0.15272   0.15324   0.16375   0.16851
 Alpha virt. eigenvalues --    0.17166   0.18207   0.18492   0.19373   0.19799
 Alpha virt. eigenvalues --    0.19900   0.20118   0.20773   0.21850   0.22198

  Beta  occ. eigenvalues --  -18.79612 -18.79399  -9.98169  -9.96328  -9.95631
  Beta  occ. eigenvalues --   -9.95631  -9.95514  -9.94883  -9.94606  -9.94559
  Beta  occ. eigenvalues --   -9.94365  -9.94261  -9.94096  -9.93622  -9.93602
  Beta  occ. eigenvalues --   -9.93408  -9.92517  -9.92298  -9.92199  -9.92116
  Beta  occ. eigenvalues --   -9.91380  -9.90858  -0.71645  -0.71244  -0.63559
  Beta  occ. eigenvalues --   -0.61402  -0.59502  -0.55430  -0.54295  -0.51253
  Beta  occ. eigenvalues --   -0.51032  -0.50275  -0.47900  -0.45543  -0.41498
  Beta  occ. eigenvalues --   -0.39061  -0.37979  -0.36204  -0.34811  -0.31279
  Beta  occ. eigenvalues --   -0.30017  -0.27389  -0.26465  -0.25386  -0.23450
  Beta  occ. eigenvalues --   -0.22884  -0.22043  -0.21275  -0.21118  -0.20838
  Beta  occ. eigenvalues --   -0.20293  -0.18773  -0.18040  -0.17092  -0.16899
  Beta  occ. eigenvalues --   -0.15918  -0.15576  -0.15073  -0.14151  -0.13714
  Beta  occ. eigenvalues --   -0.12967  -0.11534  -0.10592  -0.09949  -0.09681
  Beta  occ. eigenvalues --   -0.09620  -0.07941  -0.06742  -0.03162  -0.01596
  Beta  occ. eigenvalues --   -0.00410  -0.00258   0.02664   0.02726   0.03577
  Beta  occ. eigenvalues --    0.11649
  Beta virt. eigenvalues --    0.13098   0.15272   0.15324   0.16375   0.16851
  Beta virt. eigenvalues --    0.17166   0.18207   0.18492   0.19373   0.19799
  Beta virt. eigenvalues --    0.19900   0.20118   0.20773   0.21850   0.22198

 Mulliken charges and spin densities:
               1          2
     1  C    0.774981  -0.000000
     2  C    0.479801  -0.000000
     3  C    0.665983   0.000000
     4  C   -0.265954   0.000000
     5  C    0.394101  -0.000000
     6  C    0.530742  -0.000000
     7  C   -0.981646   0.000000
     8  C    0.301641  -0.000000
     9  C    0.480759  -0.000000
    10  C   -0.777295   0.000000
    11  C    0.023661  -0.000000
    12  C   -0.478418  -0.000000
    13  C   -0.313962  -0.000000
    14  C   -0.131928   0.000000
    15  O   -0.442782  -0.000000
    16  O   -0.476466  -0.000000
    17  H    0.082668   0.000000
    18  H    0.132053  -0.000000
    19  H    0.127700  -0.000000
    20  C   -0.436586  -0.000000
    21  H    0.083256  -0.000000
    22  C   -0.737438   0.000000
    23  C   -0.790847  -0.000000
    24  C   -0.872147  -0.000000
    25  C   -0.267299   0.000000
    26  C    0.196357  -0.000000
    27  H    0.083288  -0.000000
    28  H    0.049821   0.000000
    29  H    0.137535   0.000000
    30  H    0.109642   0.000000
    31  H    0.075852  -0.000000
    32  H    0.152879   0.000000
    33  H    0.080665   0.000000
    34  H   -0.095022   0.000000
    35  H    0.124356   0.000000
    36  H   -0.019953   0.000000
 Sum of Mulliken charges =  -2.00000   0.00000

 Dipole moment (field-independent basis, Debye):
    X=            -51.6251    Y=             15.6312    Z=              0.9160  Tot=             53.9475
 Quadrupole moment (field-independent basis, Debye-Ang):
   XX=           -513.2188   YY=           -201.1337   ZZ=           -161.6651
   XY=             90.2107   XZ=             25.0665   YZ=             15.5053

  Exact polarizability:4028.118  -3.701 459.258-749.738 -86.950 379.973
 Approx polarizability:3656.306 218.191 605.247-789.319-210.921 556.024

                      1                      2                      3
                      A                      A                      A
 Frequencies --     38.2836                46.6213                60.9981
 Red. masses --      5.1588                 4.9382                 1.1616
 Frc consts  --      0.0045                 0.0063                 0.0025
 IR Inten    --      2.9140                 1.1624                17.8614

                      4                      5                      6
                      A                      A                      A
 Frequencies --     99.6434               131.6524               141.1485
 Red. masses --      3.3409                 4.5311                 3.7851
 Frc consts  --      0.0195                 0.0463                 0.0444
 IR Inten    --      6.1037                 1.5277                 1.3936

                      7                      8                      9
                      A                      A                      A
 Frequencies --    152.7027               170.0177               201.2968
 Red. masses --      4.5777                 4.2642                 3.6691
 Frc consts  --      0.0629                 0.0726                 0.0876
 IR Inten    --     22.2529                10.1689                 3.4100

                     10                     11                     12
                      A                      A                      A
 Frequencies --    236.0829               241.4813               279.3777
 Red. masses --      3.0782                 1.2369                 5.8502
 Frc consts  --      0.1011                 0.0425                 0.2690
 IR Inten    --      1.3925                 1.7908                93.6318

                     13                     14                     15
                      A                      A                      A
 Frequencies --    287.0145               290.9688               338.0504
 Red. masses --      3.7387                 4.8076                 5.8793
 Frc consts  --      0.1815                 0.2398                 0.3959
 IR Inten    --     30.5881                 2.6004               191.7160

                     16                     17                     18
                      A                      A                      A
 Frequencies --    339.5400               370.8736               389.6890
 Red. masses --      5.3151                 3.6913                10.9941
 Frc consts  --      0.3610                 0.2991                 0.9837
 IR Inten    --      6.9795                96.2985               201.9172

                     19                     20                     21
                      A                      A                      A
 Frequencies --    396.4077               436.8204               450.7720
 Red. masses --      4.3632                 4.7993                 3.4249
 Frc consts  --      0.4040                 0.5395                 0.4100
 IR Inten    --     43.7215                35.9313                21.9543

                     22                     23                     24
                      A                      A                      A
 Frequencies --    470.3025               489.7900               514.2407
 Red. masses --     11.1751                 5.7165                 4.9070
 Frc consts  --      1.4563                 0.8080                 0.7645
 IR Inten    --   2220.0552                44.9834               330.8024

                     25                     26                     27
                      A                      A                      A
 Frequencies --    532.3535               534.4432               553.7814
 Red. masses --      3.3313                 5.0089                 4.7145
 Frc consts  --      0.5563                 0.8429                 0.8519
 IR Inten    --     92.7874                 4.3713                72.2993

                     28                     29                     30
                      A                      A                      A
 Frequencies --    588.8060               616.1660               639.1222
 Red. masses --      5.9184                 4.2496                 6.1905
 Frc consts  --      1.2089                 0.9506                 1.4898
 IR Inten    --    118.7237               353.6273                30.6248

                     31                     32                     33
                      A                      A                      A
 Frequencies --    682.7458               686.2178               698.0237
 Red. masses --      6.1420                 4.9065                 1.8117
 Frc consts  --      1.6869                 1.3613                 0.5201
 IR Inten    --      7.7576                13.6251                61.5280

                     34                     35                     36
                      A                      A                      A
 Frequencies --    718.8561               738.9815               758.9226
 Red. masses --      5.4651                 6.6041                 2.9122
 Frc consts  --      1.6639                 2.1249                 0.9883
 IR Inten    --     25.0971                 0.8376                22.6355

                     37                     38                     39
                      A                      A                      A
 Frequencies --    768.1044               791.1453               814.6356
 Red. masses --      2.7249                 1.7537                 2.0145
 Frc consts  --      0.9472                 0.6467                 0.7877
 IR Inten    --     12.5101                39.0088               141.1811

                     40                     41                     42
                      A                      A                      A
 Frequencies --    815.8662               821.4470               837.0932
 Red. masses --      2.5819                 1.6721                 3.0455
 Frc consts  --      1.0126                 0.6648                 1.2573
 IR Inten    --     15.1080                41.6614                 9.5605

                     43                     44                     45
                      A                      A                      A
 Frequencies --    881.2778               919.0741               951.0927
 Red. masses --      6.2407                 3.8010                 1.3472
 Frc consts  --      2.8557                 1.8917                 0.7180
 IR Inten    --     40.7967                40.7289                16.0812

                     46                     47                     48
                      A                      A                      A
 Frequencies --    957.3823               966.5460               971.8214
 Red. masses --      1.2629                 1.3402                 1.2765
 Frc consts  --      0.6820                 0.7377                 0.7103
 IR Inten    --      1.5938                 2.8161               124.5412

                     49                     50                     51
                      A                      A                      A
 Frequencies --    990.7338              1004.9604              1011.5876
 Red. masses --      2.3439                 1.5990                 2.7206
 Frc consts  --      1.3555                 0.9515                 1.6403
 IR Inten    --    284.5822                10.3158              2034.7279

                     52                     53                     54
                      A                      A                      A
 Frequencies --   1032.3680              1041.4389              1050.0942
 Red. masses --      2.2201                 1.4651                 1.4420
 Frc consts  --      1.3941                 0.9363                 0.9368
 IR Inten    --    124.9457               260.0640                31.5787

                     55                     56                     57
                      A                      A                      A
 Frequencies --   1076.9228              1088.9944              1114.2158
 Red. masses --      2.3762                 2.9486                 1.9671
 Frc consts  --      1.6237                 2.0603                 1.4389
 IR Inten    --     97.7015                51.6103                25.1368

                     58                     59                     60
                      A                      A                      A
 Frequencies --   1127.4977              1157.9828              1181.1744
 Red. masses --      1.4108                 1.6738                 2.1602
 Frc consts  --      1.0567                 1.3224                 1.7757
 IR Inten    --     64.0118               798.7281               659.4944

                     61                     62                     63
                      A                      A                      A
 Frequencies --   1201.9864              1209.3292              1219.2311
 Red. masses --      2.4503                 2.0696                 1.8274
 Frc consts  --      2.0858                 1.7833                 1.6005
 IR Inten    --    736.0969               210.0456               250.2572

                     64                     65                     66
                      A                      A                      A
 Frequencies --   1252.5867              1265.6680              1290.7058
 Red. masses --      3.4375                 2.7878                 2.6181
 Frc consts  --      3.1776                 2.6312                 2.5698
 IR Inten    --   1307.8421               193.4657               128.3911

                     67                     68                     69
                      A                      A                      A
 Frequencies --   1318.0223              1339.0296              1354.2347
 Red. masses --      4.7109                 5.1257                 6.4951
 Frc consts  --      4.8216                 5.4148                 7.0181
 IR Inten    --   1379.2887              1269.0248               746.3310

                     70                     71                     72
                      A                      A                      A
 Frequencies --   1377.9792              1380.6347              1390.1084
 Red. masses --      2.5390                 1.6796                 1.3639
 Frc consts  --      2.8405                 1.8863                 1.5528
 IR Inten    --    674.7779               239.5883              1075.9285

                     73                     74                     75
                      A                      A                      A
 Frequencies --   1401.0432              1433.2868              1445.2823
 Red. masses --      1.9830                 4.9184                 6.0395
 Frc consts  --      2.2934                 5.9531                 7.4329
 IR Inten    --    647.2476               323.2949              6401.9219

                     76                     77                     78
                      A                      A                      A
 Frequencies --   1462.5563              1464.6509              1471.1279
 Red. masses --      2.6001                 2.9361                 1.0489
 Frc consts  --      3.2769                 3.7110                 1.3375
 IR Inten    --   1300.0348                47.5412                 6.0462

                     79                     80                     81
                      A                      A                      A
 Frequencies --   1473.8356              1486.0186              1489.6497
 Red. masses --      1.0691                 2.0977                 1.3336
 Frc consts  --      1.3683                 2.7292                 1.7436
 IR Inten    --     67.4124               565.1208               767.3654

                     82                     83                     84
                      A                      A                      A
 Frequencies --   1496.6698              1511.6254              1549.6987
 Red. masses --      1.6129                 2.7853                 4.5975
 Frc consts  --      2.1286                 3.7499                 6.5053
 IR Inten    --    209.2555               828.8336               558.1748

                     85                     86                     87
                      A                      A                      A
 Frequencies --   1566.7414              1588.4105              1596.3045
 Red. masses --      6.8183                 5.5419                 5.5078
 Frc consts  --      9.8610                 8.2382                 8.2691
 IR Inten    --   7347.5914               118.5450                 2.4993

                     88                     89                     90
                      A                      A                      A
 Frequencies --   1613.8350              2929.0814              2939.3597
 Red. masses --      5.1959                 1.0531                 1.0569
 Frc consts  --      7.9732                 5.3235                 5.3800
 IR Inten    --    307.6432              1575.4686               644.9627

                     91                     92                     93
                      A                      A                      A
 Frequencies --   2945.2057              2983.3499              3047.8034
 Red. masses --      1.0886                 1.0791                 1.0946
 Frc consts  --      5.5634                 5.6587                 5.9907
 IR Inten    --   3134.1394              7458.2886               284.8346

                     94                     95                     96
                      A                      A                      A
 Frequencies --   3059.9637              3094.4058              3098.4644
 Red. masses --      1.0911                 1.0829                 1.0879
 Frc consts  --      6.0193                 6.1092                 6.1535
 IR Inten    --     22.8244                31.3531               299.7390

                     97                     98                     99
                      A                      A                      A
 Frequencies --   3117.9895              3135.8212              3140.9127
 Red. masses --      1.0912                 1.0870                 1.0882
 Frc consts  --      6.2501                 6.2978                 6.3249
 IR Inten    --    539.0537               287.9056               121.7482

                    100                    101                    102
                      A                      A                      A
 Frequencies --   3161.5691              3167.0195              3188.7514
 Red. masses --      1.0907                 1.0907                 1.0919
 Frc consts  --      6.4231                 6.4454                 6.5414
 IR Inten    --    159.4972               238.9860                97.7331

 - Thermochemistry -
 -------------------
 Temperature   298.150 Kelvin.  Pressure   1.00000 Atm.
 Atom     1 has atomic number  6 and mass  12.00000

 Molecular mass:   286.09938 amu.
 Principal axes and moments of inertia in atomic units:
                           1         2         3
     Eigenvalues --  2951.085719713.22672**********
           X            0.91554  -0.30632   0.26069
           Y            0.12451   0.83210   0.54047
           Z           -0.38248  -0.46236   0.79996
 This molecule is an asymmetric top.
 Rotational symmetry number  1.
 Warning -- assumption of classical behavior for rotation
           may cause significant error
 Rotational temperatures (Kelvin)      0.02935     0.00892     0.00685
 Rotational constants (GHZ):           0.61155     0.18580     0.14276
 Zero-point vibrational energy     719886.4 (Joules/Mol)
                                  172.05697 (Kcal/Mol)
 Warning -- explicit consideration of  29 degrees of freedom as
           vibrations may cause significant error
 Vibrational temperatures:     55.08    67.08    87.76   143.36   189.42
          (Kelvin)            203.08   219.71   244.62   289.62   339.67
                              347.44   401.96   412.95   418.64   486.38
                              488.52   533.60   560.68   570.34   628.49
                              648.56   676.66   704.70   739.88   765.94
                              768.94   796.77   847.16   886.53   919.55
                              982.32   987.31  1004.30  1034.27  1063.23
                             1091.92  1105.13  1138.28  1172.08  1173.85
                             1181.88  1204.39  1267.96  1322.34  1368.41
                             1377.46  1390.64  1398.23  1425.44  1445.91
                             1455.45  1485.35  1498.40  1510.85  1549.45
                             1566.82  1603.11  1622.22  1666.08  1699.45
                             1729.39  1739.95  1754.20  1802.19  1821.01
                             1857.04  1896.34  1926.56  1948.44  1982.60
                             1986.43  2000.06  2015.79  2062.18  2079.44
                             2104.29  2107.31  2116.62  2120.52  2138.05
                             2143.27  2153.37  2174.89  2229.67  2254.19
                             2285.37  2296.73  2321.95  4214.29  4229.08
                             4237.49  4292.38  4385.11  4402.61  4452.16
                             4458.00  4486.09  4511.75  4519.07  4548.79
                             4556.63  4587.90

 Zero-point correction=                           0.274190 (Hartree/Particle)
 Thermal correction to Energy=                    0.291671
 Thermal correction to Enthalpy=                  0.292615
 Thermal correction to Gibbs Free Energy=         0.229177
 Sum of electronic and zero-point Energies=           -920.999312
 Sum of electronic and thermal Energies=              -920.981831
 Sum of electronic and thermal Enthalpies=            -920.980887
 Sum of electronic and thermal Free Energies=         -921.044325

                     E (Thermal)             CV                S
                      KCal/Mol        Cal/Mol-Kelvin    Cal/Mol-Kelvin
 Total                  183.026             70.757            133.518
 Electronic               0.000              0.000              0.000
 Translational            0.889              2.981             42.851
 Rotational               0.889              2.981             34.249
 Vibrational            181.249             64.796             56.418
 Vibration     1          0.594              1.982              5.346
 Vibration     2          0.595              1.979              4.956
 Vibration     3          0.597              1.973              4.425
 Vibration     4          0.604              1.949              3.461
 Vibration     5          0.612              1.922              2.922
 Vibration     6          0.615              1.912              2.788
 Vibration     7          0.619              1.900              2.638
 Vibration     8          0.625              1.879              2.435
 Vibration     9          0.638              1.838              2.121
 Vibration    10          0.655              1.786              1.832
 Vibration    11          0.658              1.777              1.792
 Vibration    12          0.680              1.712              1.537
 Vibration    13          0.684              1.698              1.492
 Vibration    14          0.687              1.691              1.468
 Vibration    15          0.718              1.599              1.221
 Vibration    16          0.719              1.596              1.214
 Vibration    17          0.743              1.532              1.076
 Vibration    18          0.758              1.492              1.001
 Vibration    19          0.763              1.478              0.976
 Vibration    20          0.797              1.390              0.837
 Vibration    21          0.810              1.359              0.793
 Vibration    22          0.827              1.316              0.737
 Vibration    23          0.846              1.273              0.684
 Vibration    24          0.869              1.218              0.623
 Vibration    25          0.887              1.178              0.582
 Vibration    26          0.889              1.174              0.577
 Vibration    27          0.909              1.131              0.536
 Vibration    28          0.946              1.056              0.469
 Vibration    29          0.976              0.998              0.423

 Optimization completed.
    -- Stationary point found.
 Normal termination of Gaussian 16 at Thu Dec 21 13:05:07 2023.
