 Gaussian 16, Revision A.03,
 Gaussian 16:  ES64L-G16RevA.03 25-Dec-2016

 ----------------------------------------------------------------
 #P UB3LYP/6-311++G(d,p) SCRF=(PCM,Solvent=n,n-DiMethylFormamide)
 ----------------------------------------------------------------

 ------------------
 Radical PCM in DMF
 ------------------
 Symbolic Z-matrix:
 Charge = -1 Multiplicity = 2

                         Standard orientation:
 ---------------------------------------------------------------------
 Center     Atomic      Atomic             Coordinates (Angstroms)
 Number     Number       Type             X           Y           Z
 ---------------------------------------------------------------------
      1          6           0        3.872620   -1.167282    0.064187
      2          6           0        4.211455   -2.505507    0.085433
      3          6           0        3.197968   -3.488366    0.059459
      4          6           0        2.521553   -0.758633    0.014578
      5          6           0        1.505218   -1.744058   -0.012166
      6          6           0        1.871704   -3.108384    0.012807
      7          6           0        2.201397    0.665334   -0.001353
      8          6           0        0.093908   -1.380101   -0.061913
      9          6           0        0.797280    1.042455   -0.063162
     10          6           0       -0.240220    0.036600   -0.103941
     11          6           0        0.430513    2.437019   -0.053727
     12          6           0       -0.922668    2.779541   -0.030431
     13          6           0       -1.924324    1.804656   -0.076024
     14          6           0       -1.620357    0.446448   -0.147610
     15          8           0        3.152988    1.510328    0.047909
     16          8           0       -0.781564   -2.306672   -0.054463
     17          1           0        4.627800   -0.390779    0.084847
     18          1           0        5.255337   -2.803040    0.122136
     19          1           0        3.462796   -4.541550    0.075871
     20          1           0        1.072829   -3.839822   -0.007446
     21          1           0       -2.958954    2.125647   -0.077310
     22          1           0       -1.213252    3.822279    0.006961
     23          7           0        1.405640    3.411116   -0.072749
     24          6           0        1.131857    4.802425    0.151199
     25          1           0        2.350334    3.032459    0.027208
     26          1           0        0.612720    4.993696    1.106089
     27          1           0        0.513156    5.240153   -0.646410
     28          1           0        2.079442    5.345434    0.167855
     29          7           0       -2.624231   -0.504985   -0.276469
     30          6           0       -3.995802   -0.223092    0.051152
     31          6           0       -4.843106   -1.484113   -0.102418
     32          8           0       -6.212700   -1.261890    0.256408
     33          1           0       -2.255922   -1.452699   -0.130750
     34          1           0       -4.411949    0.552461   -0.605121
     35          1           0       -4.108486    0.155830    1.088365
     36          1           0       -4.415547   -2.298107    0.497421
     37          1           0       -4.855416   -1.807918   -1.144213
     38          1           0       -6.228514   -0.940745    1.163776
 ---------------------------------------------------------------------

 SCF Done:  E(UB3LYP) =  -993.046412129     A.U. after   19 cycles

 The electronic state is 2-A.
 Alpha  occ. eigenvalues --  -19.13251 -19.07218 -19.07201 -14.30344 -14.30302
 Alpha  occ. eigenvalues --  -10.22153 -10.22150 -10.22003 -10.20431 -10.20371
 Alpha  occ. eigenvalues --  -10.19888 -10.19044 -10.17084 -10.17037 -10.17012
 Alpha  occ. eigenvalues --  -10.16933 -10.16847 -10.16803 -10.16714 -10.16712
 Alpha  occ. eigenvalues --  -10.16042 -10.15934  -1.03083  -1.00045  -0.99776
 Alpha  occ. eigenvalues --   -0.92565  -0.91984  -0.85576  -0.82929  -0.77957
 Alpha  occ. eigenvalues --   -0.75553  -0.74781  -0.73761  -0.71289  -0.67413
 Alpha  occ. eigenvalues --   -0.66022  -0.64176  -0.62323  -0.61002  -0.57725
 Alpha  occ. eigenvalues --   -0.56361  -0.53160  -0.52494  -0.51481  -0.50095
 Alpha  occ. eigenvalues --   -0.48645  -0.47606  -0.46727  -0.45889  -0.45798
 Alpha  occ. eigenvalues --   -0.44978  -0.43625  -0.43164  -0.42159  -0.41745
 Alpha  occ. eigenvalues --   -0.41407  -0.41004  -0.40602  -0.39612  -0.38797
 Alpha  occ. eigenvalues --   -0.38028  -0.37631  -0.37246  -0.36745  -0.36114
 Alpha  occ. eigenvalues --   -0.34593  -0.34443  -0.33708  -0.33370  -0.30970
 Alpha  occ. eigenvalues --   -0.28972  -0.26638  -0.25403  -0.25031  -0.24309
 Alpha  occ. eigenvalues --   -0.23948  -0.23390  -0.18207  -0.13185
 Alpha virt. eigenvalues --   -0.04216  -0.01865  -0.00673  -0.00041   0.00237
 Alpha virt. eigenvalues --    0.01302   0.01550   0.01699   0.02063   0.02263
 Alpha virt. eigenvalues --    0.03196   0.03677   0.04089   0.04141   0.04856

  Beta  occ. eigenvalues --  -19.13251 -19.06770 -19.06763 -14.30266 -14.30225
  Beta  occ. eigenvalues --  -10.22003 -10.21985 -10.21968 -10.20394 -10.20316
  Beta  occ. eigenvalues --  -10.19890 -10.19047 -10.17043 -10.17021 -10.16994
  Beta  occ. eigenvalues --  -10.16941 -10.16781 -10.16746 -10.16709 -10.16697
  Beta  occ. eigenvalues --  -10.15916 -10.15789  -1.03083  -0.99290  -0.98998
  Beta  occ. eigenvalues --   -0.92379  -0.91813  -0.85379  -0.82756  -0.77576
  Beta  occ. eigenvalues --   -0.75431  -0.74604  -0.73589  -0.71186  -0.67155
  Beta  occ. eigenvalues --   -0.65460  -0.64054  -0.62184  -0.60856  -0.57617
  Beta  occ. eigenvalues --   -0.56199  -0.52959  -0.52397  -0.51393  -0.50004
  Beta  occ. eigenvalues --   -0.48558  -0.47397  -0.46609  -0.45785  -0.45699
  Beta  occ. eigenvalues --   -0.44853  -0.43383  -0.43051  -0.42125  -0.41252
  Beta  occ. eigenvalues --   -0.40987  -0.40822  -0.40207  -0.39461  -0.38627
  Beta  occ. eigenvalues --   -0.37916  -0.37129  -0.36466  -0.35998  -0.35905
  Beta  occ. eigenvalues --   -0.34432  -0.34225  -0.33293  -0.32655  -0.30365
  Beta  occ. eigenvalues --   -0.28968  -0.25159  -0.24798  -0.24155  -0.23919
  Beta  occ. eigenvalues --   -0.23546  -0.23000  -0.16963
  Beta virt. eigenvalues --   -0.08073  -0.03316  -0.00903  -0.00647  -0.00031
  Beta virt. eigenvalues --    0.00242   0.01353   0.01613   0.01961   0.02226
  Beta virt. eigenvalues --    0.02375   0.03208   0.03706   0.04114   0.04176

 Mulliken charges and spin densities:
               1          2
     1  C   -0.036415   0.020745
     2  C   -0.411646   0.037363
     3  C   -0.421666   0.031852
     4  C    0.284429   0.038436
     5  C    0.234015   0.026976
     6  C   -0.077081   0.024702
     7  C   -0.431107   0.087881
     8  C   -0.482564   0.094389
     9  C    0.162398  -0.014453
    10  C    0.351724  -0.004017
    11  C    0.060021   0.037297
    12  C   -0.233137   0.107239
    13  C   -0.395268   0.086106
    14  C   -0.234959   0.047276
    15  O   -0.469697   0.159925
    16  O   -0.450238   0.165701
    17  H    0.168262  -0.000454
    18  H    0.179202  -0.002961
    19  H    0.179139  -0.002554
    20  H    0.157096  -0.001049
    21  H    0.173061  -0.007133
    22  H    0.188266  -0.007967
    23  N   -0.307820   0.035029
    24  C   -0.373765  -0.002860
    25  H    0.392260  -0.003491
    26  H    0.151326   0.003966
    27  H    0.147076   0.002616
    28  H    0.150213  -0.000097
    29  N   -0.124317   0.034109
    30  C   -0.207072   0.001042
    31  C   -0.343231  -0.000731
    32  O   -0.320174   0.000006
    33  H    0.419795  -0.001568
    34  H    0.160056   0.001714
    35  H    0.150347   0.004716
    36  H    0.156727   0.000464
    37  H    0.185635  -0.000217
    38  H    0.269109   0.000003
 Sum of Mulliken charges =  -1.00000   1.00000

 Dipole moment (field-independent basis, Debye):
    X=             -3.6281    Y=              2.8975    Z=              2.1729  Tot=              5.1264
 Quadrupole moment (field-independent basis, Debye-Ang):
   XX=           -169.7730   YY=           -140.8023   ZZ=           -136.7093
   XY=            -14.8732   XZ=             -8.7049   YZ=             -0.1395

 Normal termination of Gaussian 16 at Sun Jan 14 01:22:01 2024.
