 Q-Chem 5.4, Q-Chem, Inc., Pleasanton, CA (2021)
 Q-Chem 5.4.0 for Intel X86 EM64T Linux

User input:
--------------------------------------------------------------
$molecule
0 1
N                 -2.7984350000     -2.0085050000      0.5223000000
C                 -2.4843030000     -0.7165100000      0.2495820000
C                 -3.5309810000      0.2262600000      0.1045150000
C                 -3.2733210000      1.5520220000     -0.1727480000
C                 -1.9587880000      2.0043170000     -0.3193840000
C                 -0.9109050000      1.1052170000     -0.1832200000
C                  0.4714640000      1.6268230000     -0.3467820000
O                  0.6821630000      2.8041750000     -0.5922150000
C                  1.6085830000      0.6680340000     -0.2026620000
C                  2.8940300000      1.1843790000     -0.3615440000
C                  3.9967560000      0.3516310000     -0.2412180000
C                  3.8123890000     -0.9966230000      0.0380350000
C                  2.5298090000     -1.5217260000      0.1986010000
Cl                 2.4780700000     -3.2385860000      0.5466770000
C                  1.3887950000     -0.6995430000      0.0818330000
C                 -0.0149930000     -1.2085490000      0.2437840000
O                 -0.2157270000     -2.3979630000      0.4911470000
C                 -1.1357170000     -0.2642270000      0.1014880000
H                 -3.7611740000     -2.2812090000      0.6193330000
H                 -2.0484630000     -2.6792410000      0.6254870000
H                 -4.5541410000     -0.1178860000      0.2169410000
H                 -4.0996320000      2.2462500000     -0.2772020000
H                 -1.7346860000      3.0397560000     -0.5369210000
H                  2.9982520000      2.2394770000     -0.5782350000
H                  4.9998290000      0.7435060000     -0.3630780000
H                  4.6611250000     -1.6612790000      0.1354870000
$end
$rem
MAX_SCF_CYCLES=200
BASIS  =  6-311++G(d,p)
GUI  =  2
JOB_TYPE  =  SP
METHOD  =  B3LYP
SOLVENT_METHOD = COSMO
$end
$solvent
dielectric 37.219
opticaldielectric 1.43
$end

--------------------------------------------------------------

             Standard Nuclear Orientation (Angstroms)
    I     Atom           X                Y                Z
 ----------------------------------------------------------------
    1      N      -2.4114147929    -2.6388417592    -0.0006431545
    2      C      -2.5349135393    -1.2871565260    -0.0002062009
    3      C      -3.8318397201    -0.7184940392    -0.0001807963
    4      C      -4.0197492610     0.6473750068     0.0001041665
    5      C      -2.9236541290     1.5149263406     0.0002948755
    6      C      -1.6398073566     0.9888867197     0.0002008584
    7      C      -0.5021178175     1.9456687764     0.0002891946
    8      O      -0.6861281571     3.1527020309     0.0005639683
    9      C       0.8855587547     1.3911959144    -0.0000534782
   10      C       1.9332760105     2.3112600597    -0.0004527970
   11      C       3.2473897595     1.8673488088    -0.0007073044
   12      C       3.5119597298     0.5036168240    -0.0004216865
   13      C       2.4698065938    -0.4239836840     0.0000214131
   14      Cl      2.9798354661    -2.1006805130     0.0006367155
   15      C       1.1229132964    -0.0027817837     0.0000858247
   16      C      -0.0391370874    -0.9543987671     0.0000095432
   17      O       0.1582238075    -2.1698150801    -0.0003357543
   18      C      -1.4066060142    -0.4084654304    -0.0000281374
   19      H      -3.2332010955    -3.2179056422     0.0006014626
   20      H      -1.4836857566    -3.0417203285    -0.0004609526
   21      H      -4.6875531285    -1.3860919364    -0.0004464329
   22      H      -5.0273260694     1.0479271224     0.0001297288
   23      H      -3.0487870799     2.5891794198     0.0004991369
   24      H       1.6883478925     3.3653279958    -0.0005389598
   25      H       4.0685483703     2.5746462613    -0.0011174189
   26      H       4.5311169715     0.1390132185    -0.0005472091
 ----------------------------------------------------------------

    9   -1203.9477928650      3.54e-06  Convergence criterion met
 Total energy in the final basis set =    -1203.9477928650
    5   -1203.9646930048      4.27e-06  Convergence criterion met
 Total energy in the final basis set =    -1203.9646930048

                    Orbital Energies (a.u.)
 --------------------------------------------------------------

 Alpha MOs
 -- Occupied --
******** -19.1290 -19.1248 -14.3316 -10.2832 -10.2821 -10.2618 -10.2469
-10.2222 -10.2122 -10.2042 -10.2037 -10.2015 -10.2003 -10.1970 -10.1944
-10.1901 -10.1852  -9.4779  -7.2426  -7.2331  -7.2319  -1.0659  -1.0628
 -0.9427  -0.9126  -0.8718  -0.8574  -0.8113  -0.7729  -0.7629  -0.7542
 -0.6884  -0.6666  -0.6525  -0.6111  -0.5879  -0.5745  -0.5565  -0.5276
 -0.5108  -0.5036  -0.4923  -0.4757  -0.4737  -0.4588  -0.4577  -0.4536
 -0.4460  -0.4318  -0.4217  -0.4128  -0.3979  -0.3910  -0.3840  -0.3786
 -0.3749  -0.3497  -0.3337  -0.3323  -0.2915  -0.2856  -0.2775  -0.2680
 -0.2665  -0.2258

          Ground-State Mulliken Net Atomic Charges

     Atom                 Charge (a.u.)
  ----------------------------------------
      1 N                    -0.465420
      2 C                     0.184957
      3 C                    -0.256726
      4 C                    -0.506991
      5 C                     0.043007
      6 C                     0.481924
      7 C                    -0.851136
      8 O                    -0.293567
      9 C                     0.394678
     10 C                     0.393881
     11 C                    -0.748871
     12 C                    -0.070043
     13 C                     0.898307
     14 Cl                    0.363065
     15 C                    -0.170212
     16 C                    -1.243046
     17 O                    -0.247631
     18 C                     0.089732
     19 H                     0.333848
     20 H                     0.356108
     21 H                     0.209033
     22 H                     0.228484
     23 H                     0.192583
     24 H                     0.209200
     25 H                     0.228365
     26 H                     0.246470
  ----------------------------------------
  Sum of atomic charges =     0.000000

                    Cartesian Multipole Moments
 -----------------------------------------------------------------
    Charge (ESU x 10^10)
                 0.0000
    Dipole Moment (Debye)
         X      -2.1219      Y      -1.0866      Z       0.0013
       Tot       2.3839
    Quadrupole Moments (Debye-Ang)
        XX     -76.5279     XY      20.4486     YY    -114.8036
        XZ      -0.0144     YZ      -0.0150     ZZ    -113.7327

 Total job time:  62.05s(wall), 463.42s(cpu)
        *  Thank you very much for using Q-Chem.  Have a nice day.  *
