 Q-Chem 5.4, Q-Chem, Inc., Pleasanton, CA (2021)
 Q-Chem 5.4.0 for Intel X86 EM64T Linux

User input:
--------------------------------------------------------------
$molecule
-2 1
N                 -2.5686950000      0.4598060000      2.3423210000
C                 -2.4284760000      0.2531160000      0.9603930000
C                 -3.5537950000      0.1724620000      0.1494710000
C                 -3.4314200000     -0.1125730000     -1.2338450000
C                 -2.1909140000     -0.3236820000     -1.7872790000
C                 -1.0047550000     -0.2333660000     -1.0073700000
C                  0.2613710000     -0.4440510000     -1.6843200000
O                  0.3433620000     -0.7378830000     -2.9324640000
C                  1.4201210000     -0.2866350000     -0.8441640000
C                  2.7084620000     -0.4613630000     -1.4060470000
C                  3.8515430000     -0.3137170000     -0.6639340000
Cl                 5.4446180000     -0.5434650000     -1.4449900000
C                  3.7580440000      0.0303080000      0.7185920000
Cl                 5.2321040000      0.2181300000      1.7152240000
C                  2.5290910000      0.2098980000      1.2968420000
C                  1.3240550000      0.0626700000      0.5616330000
C                  0.0727710000      0.2674990000      1.2300460000
O                  0.0337640000      0.6116310000      2.4908980000
C                 -1.1035100000      0.0831950000      0.4075480000
H                 -1.6391370000      0.6798200000      2.7506570000
H                 -3.3182980000      1.0958270000      2.5790980000
H                 -4.5368590000      0.2910030000      0.6034810000
H                 -4.3279160000     -0.1757500000     -1.8491480000
H                 -2.0608010000     -0.5566310000     -2.8381930000
H                  2.7501900000     -0.7161310000     -2.4591840000
H                  2.4350810000      0.4698810000      2.3447320000
$end
$rem
MAX_SCF_CYCLES=200
BASIS  =  6-311++G(d,p)
GUI  =  2
JOB_TYPE  =  SP
METHOD  =  B3LYP
SOLVENT_METHOD = COSMO
$end
$solvent
dielectric 37.219
opticaldielectric 1.43
$end

--------------------------------------------------------------

             Standard Nuclear Orientation (Angstroms)
    I     Atom           X                Y                Z
 ----------------------------------------------------------------
    1      N       3.7451470009    -2.3494553034     0.1528385811
    2      C       3.5872572486    -0.9589699808     0.0356698346
    3      C       4.7028527673    -0.1335556435    -0.0320074886
    4      C       4.5599426135     1.2763059736    -0.0726357573
    5      C       3.3085168610     1.8439238765    -0.0344933836
    6      C       2.1322430702     1.0455826429     0.0146944732
    7      C       0.8543123813     1.7329978025     0.0235303278
    8      O       0.7524439407     3.0138358223     0.0235002531
    9      C      -0.2916895362     0.8612061206     0.0220032004
   10      C      -1.5896606060     1.4280706388     0.0212082420
   11      C      -2.7210872481     0.6542165533     0.0074668255
   12      Cl     -4.3272078634     1.4422805013     0.0002309833
   13      C      -2.6048993876    -0.7686861067    -0.0104721135
   14      Cl     -4.0637293329    -1.8046310190    -0.0166898153
   15      C      -1.3659776034    -1.3535100011    -0.0126929385
   16      C      -0.1725719778    -0.5855161105     0.0042928088
   17      C       1.0902510299    -1.2635201674    -0.0012800438
   18      O       1.1510839422    -2.5687941552    -0.0487702428
   19      C       2.2529278248    -0.4025627884     0.0310151159
   20      H       2.8272415847    -2.8113435906     0.0000924470
   21      H       4.5190662706    -2.7125411119    -0.3872617591
   22      H       5.6929164368    -0.5873573908    -0.0112763192
   23      H       5.4489597003     1.9037131062    -0.1206264055
   24      H       3.1622335373     2.9181470087    -0.0506400914
   25      H      -1.6484275104     2.5107685695     0.0287675007
   26      H      -1.2548143760    -2.4314708610    -0.0247599963
 ----------------------------------------------------------------

   11   -1663.5748525958      9.52e-06  Convergence criterion met
 Total energy in the final basis set =    -1663.5748525958
    6   -1663.8305997948      3.35e-06  Convergence criterion met
 Total energy in the final basis set =    -1663.8305997948

                    Orbital Energies (a.u.)
 --------------------------------------------------------------

 Alpha MOs
 -- Occupied --
********-101.5502 -19.0380 -19.0321 -14.2819 -10.2273 -10.2268 -10.1943
-10.1906 -10.1855 -10.1682 -10.1680 -10.1525 -10.1521 -10.1516 -10.1507
-10.1462 -10.1413 -10.1388  -9.4646  -9.4645  -7.2290  -7.2289  -7.2197
 -7.2195  -7.2193  -7.2190  -0.9559  -0.9504  -0.8917  -0.8862  -0.8436
 -0.8235  -0.8086  -0.7542  -0.7373  -0.7085  -0.7059  -0.6461  -0.6187
 -0.5994  -0.5721  -0.5359  -0.5202  -0.5041  -0.4752  -0.4627  -0.4528
 -0.4490  -0.4266  -0.4229  -0.4183  -0.4063  -0.3914  -0.3860  -0.3825
 -0.3745  -0.3734  -0.3484  -0.3435  -0.3407  -0.3349  -0.3309  -0.3252
 -0.3191  -0.3050  -0.3000  -0.2866  -0.2432  -0.2364  -0.2231  -0.2195
 -0.2101  -0.1949  -0.1185

          Ground-State Mulliken Net Atomic Charges

     Atom                 Charge (a.u.)
  ----------------------------------------
      1 N                    -0.479374
      2 C                     0.006726
      3 C                    -0.351091
      4 C                    -0.531558
      5 C                    -0.148945
      6 C                     0.490624
      7 C                    -0.562409
      8 O                    -0.677963
      9 C                    -0.521773
     10 C                    -0.558993
     11 C                     0.471435
     12 Cl                    0.485808
     13 C                     0.381782
     14 Cl                    0.482852
     15 C                    -0.381189
     16 C                    -0.425016
     17 C                    -0.814984
     18 O                    -0.647511
     19 C                     0.279987
     20 H                     0.321186
     21 H                     0.265548
     22 H                     0.167716
     23 H                     0.185040
     24 H                     0.149364
     25 H                     0.201126
     26 H                     0.211610
  ----------------------------------------
  Sum of atomic charges =    -2.000000

                    Cartesian Multipole Moments
 -----------------------------------------------------------------
    Charge (ESU x 10^10)
                -9.6064
    Dipole Moment (Debye)
         X      -3.9535      Y      -3.1178      Z      -1.2694
       Tot       5.1925
    Quadrupole Moments (Debye-Ang)
        XX    -178.4531     XY      -3.5327     YY    -184.3923
        XZ      -5.7400     YZ       3.0577     ZZ    -135.8836

 Total job time:  71.18s(wall), 547.34s(cpu)
        *  Thank you very much for using Q-Chem.  Have a nice day.  *
