 Q-Chem 5.4, Q-Chem, Inc., Pleasanton, CA (2021)
 Q-Chem 5.4.0 for Intel X86 EM64T Linux

User input:
--------------------------------------------------------------
$molecule
-2 1
Cl                -2.5166040000      2.8736260000      1.6226190000
C                 -2.3869310000      1.1905610000      0.9984920000
C                 -3.6064410000      0.5592540000      0.8698190000
C                 -3.6597310000     -0.7444700000      0.3078770000
C                 -2.5005190000     -1.3322150000     -0.1351110000
C                 -1.2383660000     -0.6919230000     -0.0290580000
C                 -0.0937170000     -1.3923890000     -0.5522190000
O                 -0.1815000000     -2.5751230000     -1.0639340000
C                  1.1511880000     -0.6708420000     -0.4874450000
C                  2.2949920000     -1.2896410000     -1.0558620000
C                  3.5258330000     -0.6811940000     -1.0707900000
C                  3.6626230000      0.6224740000     -0.5231060000
C                  2.5669200000      1.2332640000      0.0502150000
Cl                 2.8908490000      2.9193440000      0.5899710000
C                  1.2741260000      0.6449250000      0.1445720000
C                  0.1525780000      1.2570990000      0.8535970000
O                  0.2947620000      2.2389740000      1.6415110000
C                 -1.1411250000      0.6239200000      0.6070990000
H                 -4.5097740000      1.0747280000      1.1751150000
H                 -4.6178410000     -1.2520650000      0.2158580000
H                 -2.4915480000     -2.3155650000     -0.5932160000
H                  2.1336320000     -2.2740530000     -1.4822490000
H                  4.3901430000     -1.1724200000     -1.5132190000
H                  4.6062540000      1.1537280000     -0.5709350000
$end
$rem
MAX_SCF_CYCLES=200
BASIS  =  6-311++G(d,p)
GUI  =  2
JOB_TYPE  =  SP
METHOD  =  B3LYP
SOLVENT_METHOD = COSMO
$end
$solvent
dielectric 37.219
opticaldielectric 1.43
$end

--------------------------------------------------------------

             Standard Nuclear Orientation (Angstroms)
    I     Atom           X                Y                Z
 ----------------------------------------------------------------
    1      Cl      2.7521657063    -2.4197584781    -0.1521737193
    2      C       2.5219119121    -0.6403070018    -0.0121986252
    3      C       3.7008494101     0.0715457591    -0.0875772144
    4      C       3.6587207301     1.4915529620    -0.0766400355
    5      C       2.4419818070     2.1265460041    -0.0343878924
    6      C       1.2168327855     1.4125508945     0.0245369581
    7      C       0.0002890065     2.1835383498     0.0376121199
    8      O       0.0004417867     3.4752102004     0.0388841988
    9      C      -1.2163812693     1.4127373810     0.0237013362
   10      C      -2.4413074621     2.1270053527    -0.0369185071
   11      C      -3.6581808441     1.4923247205    -0.0793429298
   12      C      -3.7007400759     0.0723507644    -0.0884092330
   13      C      -2.5220639067    -0.6398058082    -0.0117152861
   14      Cl     -2.7531944303    -2.4193683151    -0.1490771013
   15      C      -1.2295814488    -0.0508544283     0.0830882837
   16      C      -0.0000152935    -0.8164040454     0.2765933911
   17      O       0.0000688328    -2.0376079973     0.6138828477
   18      C       1.2296480658    -0.0510065075     0.0831018046
   19      H       4.6410123476    -0.4600308907    -0.1794984718
   20      H       4.5867608464     2.0578425887    -0.1230356561
   21      H       2.3554777834     3.2078609398    -0.0482787550
   22      H      -2.3545519905     3.2082834569    -0.0517865494
   23      H      -4.5860145154     2.0588139481    -0.1272262533
   24      H      -4.6410616204    -0.4590785649    -0.1797117569
 ----------------------------------------------------------------

   11   -1608.1663314779      7.83e-06  Convergence criterion met
 Total energy in the final basis set =    -1608.1663314779
    6   -1608.4299178520      3.89e-06  Convergence criterion met
 Total energy in the final basis set =    -1608.4299178520

                    Orbital Energies (a.u.)
 --------------------------------------------------------------

 Alpha MOs
 -- Occupied --
********-101.5326 -19.0295 -19.0279 -10.2197 -10.2197 -10.1978 -10.1810
-10.1605 -10.1605 -10.1599 -10.1599 -10.1580 -10.1580 -10.1516 -10.1516
-10.1497 -10.1497  -9.4474  -9.4474  -7.2116  -7.2115  -7.2028  -7.2028
 -7.2018  -7.2018  -0.9606  -0.9455  -0.8631  -0.8624  -0.8152  -0.8082
 -0.7634  -0.7206  -0.7190  -0.7144  -0.6481  -0.6172  -0.6052  -0.5558
 -0.5338  -0.5148  -0.5034  -0.4559  -0.4500  -0.4448  -0.4387  -0.4112
 -0.4104  -0.4000  -0.3969  -0.3840  -0.3792  -0.3718  -0.3661  -0.3480
 -0.3380  -0.3330  -0.3312  -0.3170  -0.3160  -0.3053  -0.3013  -0.2930
 -0.2376  -0.2344  -0.2284  -0.2278  -0.2108  -0.1981  -0.1153

          Ground-State Mulliken Net Atomic Charges

     Atom                 Charge (a.u.)
  ----------------------------------------
      1 Cl                    0.331630
      2 C                     0.700335
      3 C                    -0.390769
      4 C                    -0.820934
      5 C                     0.213455
      6 C                     0.211112
      7 C                    -0.702913
      8 O                    -0.686621
      9 C                     0.212201
     10 C                     0.214429
     11 C                    -0.821095
     12 C                    -0.390511
     13 C                     0.701809
     14 Cl                    0.331771
     15 C                     0.342394
     16 C                    -2.446309
     17 O                    -0.453118
     18 C                     0.342213
     19 H                     0.197564
     20 H                     0.186417
     21 H                     0.171496
     22 H                     0.171318
     23 H                     0.186476
     24 H                     0.197649
  ----------------------------------------
  Sum of atomic charges =    -2.000000

                    Cartesian Multipole Moments
 -----------------------------------------------------------------
    Charge (ESU x 10^10)
                -9.6064
    Dipole Moment (Debye)
         X       0.0003      Y      -2.5186      Z      -1.7513
       Tot       3.0677
    Quadrupole Moments (Debye-Ang)
        XX    -140.9835     XY      -0.0045     YY    -190.9950
        XZ       0.0096     YZ       3.0796     ZZ    -130.4948

 Total job time:  71.78s(wall), 548.99s(cpu)
        *  Thank you very much for using Q-Chem.  Have a nice day.  *
