 Q-Chem 5.4, Q-Chem, Inc., Pleasanton, CA (2021)
 Q-Chem 5.4.0 for Intel X86 EM64T Linux

User input:
--------------------------------------------------------------
$molecule
-1 2
C                  3.0916320000     -2.4897160000     -2.3576020000
C                  2.6629170000     -3.5710240000     -3.1068680000
C                  1.3422500000     -3.6075730000     -3.5963880000
C                  2.2257680000     -1.4151800000     -2.0721320000
C                  0.8972230000     -1.4524820000     -2.5651540000
C                  0.4777470000     -2.5617260000     -3.3259800000
C                  2.7098050000     -0.2798460000     -1.2715600000
C                  1.7627870000      0.7880650000     -1.0142390000
C                  0.4647120000      0.7532010000     -1.5108930000
C                 -0.0407450000     -0.3545580000     -2.2923600000
O                  3.8952010000     -0.2537080000     -0.8372980000
O                 -1.2281300000     -0.3850290000     -2.7229450000
H                  3.3427450000     -4.3915530000     -3.3180360000
H                  1.0046870000     -4.4560040000     -4.1847900000
C                  2.2635430000      1.9456360000     -0.1833910000
H                  4.1016770000     -2.4342460000     -1.9679780000
H                 -0.5440860000     -2.5617850000     -3.6880620000
H                  2.3260390000      2.8714470000     -0.7705540000
H                  3.2633620000      1.7131300000      0.1837960000
H                  1.6066810000      2.1481720000      0.6688360000
C                 -0.5243140000      1.8786420000     -1.2506930000
C                 -1.3793370000      1.6095270000     -0.0375160000
C                 -1.6100150000      2.3864610000      1.0307840000
C                 -2.4954560000      1.8869890000      2.1561300000
C                 -1.0494070000      3.7764970000      1.2178860000
C                 -1.7219250000      1.5116240000      3.4462720000
C                 -2.6342590000      1.0901280000      4.5637020000
C                 -2.7423680000     -0.1092600000      5.1515610000
C                 -1.9165480000     -1.3199700000      4.7956000000
C                 -3.7434800000     -0.3424050000      6.2582750000
H                 -1.1902690000      1.9237400000     -2.1199470000
H                 -0.0060450000      2.8354780000     -1.1701220000
H                 -1.8640690000      0.6354690000     -0.0662530000
H                 -3.0514970000      1.0069710000      1.8200390000
H                 -3.2429810000      2.6531100000      2.4098470000
H                 -0.4106410000      4.0845980000      0.3907280000
H                 -0.4575310000      3.8546400000      2.1376650000
H                 -1.8620330000      4.5100550000      1.3058490000
H                 -1.1409750000      2.3809460000      3.7789250000
H                 -0.9960240000      0.7339220000      3.2010760000
H                 -3.3064130000      1.8736110000      4.9168670000
H                 -1.2150320000     -1.1383860000      3.9827060000
H                 -2.5653090000     -2.1526190000      4.4981200000
H                 -1.3443390000     -1.6664230000      5.6652550000
H                 -4.3179360000      0.5595760000      6.4816900000
H                 -3.2442830000     -0.6664410000      7.1803460000
H                 -4.4489950000     -1.1387210000      5.9898080000
$end
$rem
MAX_SCF_CYCLES=200
BASIS  =  6-311++G(d,p)
GUI  =  2
JOB_TYPE  =  SP
METHOD  =  B3LYP
SCF_CONVERGENCE  = 6
SOLVENT_METHOD = COSMO
$end
$solvent
dielectric 37.219
opticaldielectric 1.43
$end

--------------------------------------------------------------

             Standard Nuclear Orientation (Angstroms)
    I     Atom           X                Y                Z
 ----------------------------------------------------------------
    1      C      -4.4450349263     1.3893637390     1.1169582324
    2      C      -5.1379281266     2.2375567207     0.2714461038
    3      C      -4.8474024027     2.2471575358    -1.1071871371
    4      C      -3.4459558266     0.5276270168     0.6218905838
    5      C      -3.1543198022     0.5376238778    -0.7653161207
    6      C      -3.8695353227     1.4081961356    -1.6113712440
    7      C      -2.7251364416    -0.3619160547     1.5456455157
    8      C      -1.7079541837    -1.2183283528     0.9665174441
    9      C      -1.4344732732    -1.2144438575    -0.3965938874
   10      C      -2.1206642676    -0.3436356272    -1.3261864854
   11      O      -2.9919609441    -0.3656860809     2.7798338434
   12      O      -1.8511387026    -0.3344856431    -2.5604827666
   13      H      -5.9051627501     2.8959188048     0.6688580720
   14      H      -5.3908534110     2.9126368828    -1.7718668303
   15      C      -0.9651522565    -2.1216662349     1.9221646375
   16      H      -4.6469342055     1.3602912146     2.1816019069
   17      H      -3.6231023127     1.3936455680    -2.6669777571
   18      H      -1.1937006527    -3.1805794149     1.7425521262
   19      H      -1.2646045540    -1.8822652267     2.9427227420
   20      H       0.1197278312    -2.0059952208     1.8303235263
   21      C      -0.3759902349    -2.1210165585    -1.0050620530
   22      C       0.9618981748    -1.4328861629    -1.1137671993
   23      C       2.1654800352    -1.8388472654    -0.6840115030
   24      C       3.3811695905    -0.9544427693    -0.8835340715
   25      C       2.4312920050    -3.1574254510     0.0031450546
   26      C       3.8954354028    -0.2884031892     0.4186323631
   27      C       5.1419132269     0.5218623027     0.1985758316
   28      C       5.3141878526     1.8454870438     0.3174721405
   29      C       4.2396038214     2.8197844282     0.7304120595
   30      C       6.6542348819     2.4812642514     0.0320618974
   31      H      -0.7079202515    -2.3589921920    -2.0220785083
   32      H      -0.3009308920    -3.0546407521    -0.4452928743
   33      H       0.9055795819    -0.4706845796    -1.6193126904
   34      H       3.1444748622    -0.1654201424    -1.6032488304
   35      H       4.2018236692    -1.5424873643    -1.3203838922
   36      H       1.5266293702    -3.7502200814     0.1347453181
   37      H       2.8787884411    -3.0153327707     0.9940908385
   38      H       3.1440602474    -3.7572047280    -0.5786041147
   39      H       4.1131689726    -1.0704809783     1.1567570714
   40      H       3.0895059710     0.3150976567     0.8406966009
   41      H       6.0076179814    -0.0603219148    -0.1207655894
   42      H       3.2761001437     2.3459861331     0.9122634854
   43      H       4.0963385722     3.5833268014    -0.0436471471
   44      H       4.5320591888     3.3531363962     1.6435156551
   45      H       7.4000519144     1.7395215277    -0.2629946536
   46      H       7.0334513311     3.0151685612     0.9127167536
   47      H       6.5746205662     3.2238004414    -0.7718327999
 ----------------------------------------------------------------

   13    -965.4463525554      4.66e-07  Convergence criterion met
 Total energy in the final basis set =     -965.4463525554
    7    -965.5297052846      6.75e-07  Convergence criterion met
 Total energy in the final basis set =     -965.5297052846

                    Orbital Energies (a.u.)
 --------------------------------------------------------------

 Alpha MOs
 -- Occupied --
-19.0757 -19.0751 -10.2195 -10.2188 -10.1731 -10.1708 -10.1707 -10.1703
-10.1702 -10.1684 -10.1682 -10.1678 -10.1678 -10.1663 -10.1624 -10.1618
-10.1596 -10.1565 -10.1564 -10.1561 -10.1557 -10.1557 -10.1498  -1.0010
 -0.9983  -0.8563  -0.8249  -0.8151  -0.8005  -0.7615  -0.7483  -0.7470
 -0.7267  -0.6875  -0.6869  -0.6775  -0.6575  -0.6429  -0.6064  -0.5941
 -0.5805  -0.5510  -0.5187  -0.5138  -0.5048  -0.4891  -0.4695  -0.4644
 -0.4612  -0.4430  -0.4372  -0.4326  -0.4270  -0.4232  -0.4192  -0.4156
 -0.4139  -0.4069  -0.3980  -0.3954  -0.3878  -0.3799  -0.3788  -0.3743
 -0.3727  -0.3675  -0.3659  -0.3607  -0.3595  -0.3538  -0.3476  -0.3405
 -0.3344  -0.3329  -0.3242  -0.3148  -0.2685  -0.2558  -0.2474  -0.2453
 -0.2403  -0.2353  -0.2235  -0.1511

 Beta MOs
 -- Occupied --
-19.0697 -19.0692 -10.2176 -10.2170 -10.1731 -10.1704 -10.1701 -10.1700
-10.1696 -10.1681 -10.1678 -10.1677 -10.1670 -10.1650 -10.1624 -10.1618
-10.1597 -10.1565 -10.1564 -10.1561 -10.1557 -10.1556 -10.1499  -0.9905
 -0.9877  -0.8542  -0.8237  -0.8133  -0.7992  -0.7600  -0.7463  -0.7461
 -0.7250  -0.6875  -0.6849  -0.6772  -0.6527  -0.6403  -0.6057  -0.5931
 -0.5777  -0.5482  -0.5178  -0.5133  -0.5037  -0.4868  -0.4692  -0.4618
 -0.4608  -0.4421  -0.4362  -0.4299  -0.4261  -0.4223  -0.4175  -0.4110
 -0.4080  -0.4053  -0.3968  -0.3896  -0.3859  -0.3799  -0.3773  -0.3719
 -0.3683  -0.3671  -0.3606  -0.3590  -0.3549  -0.3467  -0.3412  -0.3355
 -0.3329  -0.3311  -0.3241  -0.3142  -0.2492  -0.2472  -0.2436  -0.2418
 -0.2352  -0.2289  -0.2213

          Ground-State Mulliken Net Atomic Charges

     Atom                 Charge (a.u.)    Spin (a.u.)
  --------------------------------------------------------
      1 C                     0.086436       0.032101
      2 C                    -0.506160       0.025057
      3 C                    -0.474846       0.026927
      4 C                    -0.111937      -0.001165
      5 C                     0.121382       0.012911
      6 C                     0.013234       0.030791
      7 C                    -0.645470       0.120885
      8 C                     0.680753       0.093596
      9 C                     0.814878       0.100641
     10 C                    -0.826118       0.107687
     11 O                    -0.512178       0.219908
     12 O                    -0.490625       0.216265
     13 H                     0.196085      -0.002137
     14 H                     0.201065      -0.002199
     15 C                    -0.537835       0.002000
     16 H                     0.183833      -0.002413
     17 H                     0.179484      -0.002272
     18 H                     0.194299       0.006250
     19 H                     0.176508      -0.001776
     20 H                     0.184752       0.004350
     21 C                     0.103606       0.001826
     22 C                    -0.757258      -0.013841
     23 C                     0.732736       0.023560
     24 C                    -0.711058       0.001395
     25 C                    -0.750757      -0.001717
     26 C                    -0.200699       0.000493
     27 C                    -0.110382      -0.000146
     28 C                     0.318994       0.000168
     29 C                    -0.687053      -0.000020
     30 C                    -0.644303      -0.000009
     31 H                     0.196094       0.002928
     32 H                     0.197596      -0.000178
     33 H                     0.217545      -0.002224
     34 H                     0.170133       0.000091
     35 H                     0.147406      -0.000046
     36 H                     0.120256       0.000300
     37 H                     0.166393       0.000044
     38 H                     0.171954      -0.000037
     39 H                     0.143633      -0.000018
     40 H                     0.120313      -0.000091
     41 H                     0.196229      -0.000004
     42 H                     0.149444       0.000101
     43 H                     0.156341      -0.000001
     44 H                     0.153134       0.000004
     45 H                     0.159192       0.000002
     46 H                     0.154299       0.000004
     47 H                     0.158673       0.000010
  --------------------------------------------------------
  Sum of atomic charges =    -1.000000

                    Cartesian Multipole Moments
 -----------------------------------------------------------------
    Charge (ESU x 10^10)
                -4.8032
    Dipole Moment (Debye)
         X      12.0399      Y       1.2926      Z      -0.1537
       Tot      12.1100
    Quadrupole Moments (Debye-Ang)
        XX    -173.3354     XY      -5.8124     YY    -137.5652
        XZ       9.7096     YZ      -1.3545     ZZ    -181.6240

 Total job time:  374.14s(wall), 2766.70s(cpu)
        *  Thank you very much for using Q-Chem.  Have a nice day.  *
