 Q-Chem 5.4, Q-Chem, Inc., Pleasanton, CA (2021)
 Q-Chem 5.4.0 for Intel X86 EM64T Linux

User input:
--------------------------------------------------------------
$molecule
-2 1
C                  2.5842200000     -0.3311650000     -1.9365100000
C                  2.5623050000     -0.0064890000     -0.4216610000
C                  2.7643800000      1.5177780000     -0.2308500000
C                  3.7689860000     -0.7183380000      0.2222740000
C                  1.2021070000     -0.4295560000      0.1809620000
C                  1.1422190000     -1.3780370000      1.2165520000
C                 -0.0647440000     -1.8272500000      1.8321660000
O                 -0.0959700000     -2.7089720000      2.7924870000
C                 -1.2340210000     -1.2130910000      1.2907320000
C                 -1.2265730000     -0.2609640000      0.2567730000
C                  0.0061980000      0.1754250000     -0.3484110000
O                  0.0379270000      1.0702280000     -1.3217970000
C                 -2.5501690000      0.3483910000     -0.2620500000
C                 -2.7105940000      0.0364000000     -1.7712040000
C                 -3.8011950000     -0.1928660000      0.4586440000
C                 -2.5279570000      1.8851130000     -0.0655840000
H                  3.5184400000      0.0227930000     -2.4040430000
H                  2.5153550000     -1.4149950000     -2.0884570000
H                  1.7259190000      0.1525610000     -2.4086650000
H                  1.9094690000      2.0394230000     -0.6675200000
H                  3.6969020000      1.8571980000     -0.7123700000
H                  2.8248470000      1.7569040000      0.8376350000
H                  3.7115750000     -1.8044040000      0.0986830000
H                  3.8378170000     -0.5088810000      1.2944100000
H                  4.6956660000     -0.3683060000     -0.2548240000
H                  2.0518000000     -1.8269570000      1.6071840000
H                 -2.1708220000     -1.5339420000      1.7389500000
H                 -3.6141590000      0.5179680000     -2.1814550000
H                 -2.8015570000     -1.0458990000     -1.9224900000
H                 -1.8246140000      0.3990600000     -2.2976490000
H                 -3.7738600000      0.0197790000      1.5320080000
H                 -4.6985160000      0.2835810000      0.0383110000
H                 -3.9019400000     -1.2759480000      0.3367230000
H                 -3.4335030000      2.3517290000     -0.4885780000
H                 -2.4871330000      2.1255600000      1.0035350000
H                 -1.6388010000      2.2861680000     -0.5577080000
$end
$rem
MAX_SCF_CYCLES=200
BASIS  =  6-311++G(d,p)
GUI  =  2
JOB_TYPE  =  SP
METHOD  =  B3LYP
SOLVENT_METHOD = COSMO
$end
$solvent
dielectric 37.219
opticaldielectric 1.43
$end

--------------------------------------------------------------

             Standard Nuclear Orientation (Angstroms)
    I     Atom           X                Y                Z
 ----------------------------------------------------------------
    1      C      -2.6551210586     1.4375629118     1.2605376857
    2      C      -2.5636305565     0.5414742030    -0.0001433917
    3      C      -2.6536639194     1.4368417265    -1.2614300451
    4      C      -3.7960603548    -0.3851201184    -0.0004166589
    5      C      -1.2178816735    -0.2209155461     0.0006182602
    6      C      -1.1915836588    -1.6262474402     0.0002868178
    7      C      -0.0000332183    -2.4122119015     0.0004020420
    8      O      -0.0000365018    -3.7162920215    -0.0000584088
    9      C       1.1915290939    -1.6262538841     0.0003162866
   10      C       1.2178229703    -0.2209137002     0.0006481416
   11      C      -0.0000240387     0.5493173633     0.0010262905
   12      O      -0.0000235287     1.8718752377     0.0006915186
   13      C       2.5636304943     0.5414502279    -0.0000880870
   14      C       2.6550093914     1.4375552513     1.2605728684
   15      C       3.7960165655    -0.3851832153    -0.0003484829
   16      C       2.6539795094     1.4367673245    -1.2613775540
   17      H      -3.5766990875     2.0435488680     1.2497981349
   18      H      -2.6662139840     0.8146834402     2.1629876060
   19      H      -1.7805099784     2.0917527160     1.2868616712
   20      H      -1.7787033206     2.0906380296    -1.2871469174
   21      H      -3.5749907132     2.0432503512    -1.2519302518
   22      H      -2.6641369626     0.8134579577    -2.1635279829
   23      H      -3.8178461967    -1.0301119144     0.8836767042
   24      H      -3.8168134484    -1.0310587418    -0.8838294434
   25      H      -4.7106897088     0.2250709550    -0.0012674682
   26      H      -2.1174554566    -2.1956518278    -0.0001360570
   27      H       2.1173711747    -2.1956897533     0.0000234654
   28      H       3.5765318035     2.0436291518     1.2498863333
   29      H       2.6660772791     0.8146949726     2.1630447082
   30      H       1.7803004447     2.0916392325     1.2867564171
   31      H       3.8168986832    -1.0308643029    -0.8839407220
   32      H       4.7106445973     0.2249985579    -0.0009131702
   33      H       3.8176982715    -1.0304249020     0.8835485549
   34      H       3.5760454110     2.0420613047    -1.2523418413
   35      H       2.6632039837     0.8133394374    -2.1634581345
   36      H       1.7798301755     2.0916315220    -1.2867815245
 ----------------------------------------------------------------

   11    -696.1326396374      2.93e-06  Convergence criterion met
 Total energy in the final basis set =     -696.1326396374
    5    -696.4099937126      6.14e-06  Convergence criterion met
 Total energy in the final basis set =     -696.4099937126

                    Orbital Energies (a.u.)
 --------------------------------------------------------------

 Alpha MOs
 -- Occupied --
-19.0162 -18.9969 -10.1608 -10.1574 -10.1574 -10.1566 -10.1357 -10.1357
-10.1274 -10.1274 -10.1274 -10.1274 -10.1234 -10.1234 -10.1108 -10.1108
 -0.9243  -0.9070  -0.7960  -0.7922  -0.7492  -0.6797  -0.6611  -0.6610
 -0.6561  -0.6557  -0.6348  -0.5703  -0.5440  -0.4945  -0.4876  -0.4377
 -0.4359  -0.4235  -0.4125  -0.4122  -0.4112  -0.4065  -0.3899  -0.3789
 -0.3650  -0.3601  -0.3594  -0.3538  -0.3443  -0.3403  -0.3350  -0.3323
 -0.3221  -0.3062  -0.3050  -0.3015  -0.2996  -0.2899  -0.2872  -0.2842
 -0.2146  -0.1991  -0.1963  -0.1730  -0.1131

          Ground-State Mulliken Net Atomic Charges

     Atom                 Charge (a.u.)
  ----------------------------------------
      1 C                    -0.703764
      2 C                     0.835453
      3 C                    -0.703981
      4 C                    -0.501863
      5 C                     0.413803
      6 C                    -0.380668
      7 C                    -0.601993
      8 O                    -0.813770
      9 C                    -0.381444
     10 C                     0.415431
     11 C                    -0.659423
     12 O                    -0.659406
     13 C                     0.834319
     14 C                    -0.703868
     15 C                    -0.501592
     16 C                    -0.703808
     17 H                     0.134821
     18 H                     0.124566
     19 H                     0.167092
     20 H                     0.167070
     21 H                     0.134738
     22 H                     0.124587
     23 H                     0.127511
     24 H                     0.127436
     25 H                     0.162247
     26 H                     0.138176
     27 H                     0.138368
     28 H                     0.134864
     29 H                     0.124642
     30 H                     0.167115
     31 H                     0.127469
     32 H                     0.162265
     33 H                     0.127437
     34 H                     0.134793
     35 H                     0.124678
     36 H                     0.166698
  ----------------------------------------
  Sum of atomic charges =    -2.000000

                    Cartesian Multipole Moments
 -----------------------------------------------------------------
    Charge (ESU x 10^10)
                -9.6064
    Dipole Moment (Debye)
         X       0.0030      Y      10.0255      Z      -0.0043
       Tot      10.0255
    Quadrupole Moments (Debye-Ang)
        XX    -120.8597     XY       0.0018     YY    -187.0252
        XZ      -0.0031     YZ      -0.0043     ZZ    -114.2001

 Total job time:  91.85s(wall), 692.10s(cpu)
        *  Thank you very much for using Q-Chem.  Have a nice day.  *
