 Q-Chem 5.4, Q-Chem, Inc., Pleasanton, CA (2021)
 Q-Chem 5.4.0 for Intel X86 EM64T Linux

User input:
--------------------------------------------------------------
$molecule
-2 1
Cl                 2.6512160000      3.2071670000     -0.5224900000
C                  2.4745940000      1.4433650000     -0.2068430000
C                  3.6791100000      0.7922760000     -0.0621600000
C                  3.6928900000     -0.6044680000      0.1913190000
C                  2.4984970000     -1.2779250000      0.2870200000
C                  1.2458110000     -0.6333650000      0.1424510000
C                  0.0726640000     -1.4857480000      0.2710110000
O                  0.1964630000     -2.7387400000      0.5010410000
C                 -1.1979180000     -0.8079350000      0.1199260000
C                 -2.4747570000     -1.4433940000      0.2068410000
Cl                -2.6520280000     -3.2071370000      0.5224650000
C                 -3.6791710000     -0.7921650000      0.0621530000
C                 -3.6928190000      0.6045760000     -0.1913200000
C                 -2.4983750000      1.2779000000     -0.2870140000
C                 -1.2457360000      0.6332470000     -0.1424510000
C                 -0.0725820000      1.4855940000     -0.2710220000
O                 -0.1960250000      2.7386250000     -0.5010080000
C                  1.1979370000      0.8077410000     -0.1199140000
H                  4.6023080000      1.3549800000     -0.1436740000
H                  4.6421870000     -1.1231730000      0.3063220000
H                  2.4548220000     -2.3444860000      0.4793860000
H                 -4.6024280000     -1.3547770000      0.1436630000
H                 -4.6420570000      1.1233850000     -0.3063240000
H                 -2.4546040000      2.3444570000     -0.4793770000
$end
$rem
MAX_SCF_CYCLES=200
BASIS  =  6-311++G(d,p)
GUI  =  2
JOB_TYPE  =  SP
METHOD  =  B3LYP
SOLVENT_METHOD = PCM
$end
$pcm
theory = CPCM
$end
$solvent
dielectric 37.219
opticaldielectric 1.43
$end

--------------------------------------------------------------

             Standard Nuclear Orientation (Angstroms)
    I     Atom           X                Y                Z
 ----------------------------------------------------------------
    1      Cl      2.6512160000     3.2071670000    -0.5224900000
    2      C       2.4745940000     1.4433650000    -0.2068430000
    3      C       3.6791100000     0.7922760000    -0.0621600000
    4      C       3.6928900000    -0.6044680000     0.1913190000
    5      C       2.4984970000    -1.2779250000     0.2870200000
    6      C       1.2458110000    -0.6333650000     0.1424510000
    7      C       0.0726640000    -1.4857480000     0.2710110000
    8      O       0.1964630000    -2.7387400000     0.5010410000
    9      C      -1.1979180000    -0.8079350000     0.1199260000
   10      C      -2.4747570000    -1.4433940000     0.2068410000
   11      Cl     -2.6520280000    -3.2071370000     0.5224650000
   12      C      -3.6791710000    -0.7921650000     0.0621530000
   13      C      -3.6928190000     0.6045760000    -0.1913200000
   14      C      -2.4983750000     1.2779000000    -0.2870140000
   15      C      -1.2457360000     0.6332470000    -0.1424510000
   16      C      -0.0725820000     1.4855940000    -0.2710220000
   17      O      -0.1960250000     2.7386250000    -0.5010080000
   18      C       1.1979370000     0.8077410000    -0.1199140000
   19      H       4.6023080000     1.3549800000    -0.1436740000
   20      H       4.6421870000    -1.1231730000     0.3063220000
   21      H       2.4548220000    -2.3444860000     0.4793860000
   22      H      -4.6024280000    -1.3547770000     0.1436630000
   23      H      -4.6420570000     1.1233850000    -0.3063240000
   24      H      -2.4546040000     2.3444570000    -0.4793770000
 ----------------------------------------------------------------

    9   -1608.4269745649      3.11e-06  Convergence criterion met
 Total energy in the final basis set =    -1608.4269745649

                    Orbital Energies (a.u.)
 --------------------------------------------------------------

 Alpha MOs
 -- Occupied --
********-101.5319 -19.0238 -19.0237 -10.2181 -10.2181 -10.1874 -10.1874
-10.1601 -10.1601 -10.1596 -10.1596 -10.1561 -10.1561 -10.1501 -10.1501
-10.1484 -10.1484  -9.4466  -9.4466  -7.2108  -7.2107  -7.2020  -7.2019
 -7.2010  -7.2010  -0.9508  -0.9472  -0.8614  -0.8613  -0.8148  -0.8058
 -0.7617  -0.7195  -0.7180  -0.7130  -0.6455  -0.6161  -0.6042  -0.5552
 -0.5242  -0.5233  -0.5000  -0.4552  -0.4484  -0.4425  -0.4381  -0.4101
 -0.4084  -0.3979  -0.3941  -0.3789  -0.3784  -0.3729  -0.3613  -0.3389
 -0.3377  -0.3355  -0.3312  -0.3184  -0.3058  -0.3045  -0.2990  -0.2981
 -0.2376  -0.2293  -0.2289  -0.2270  -0.2040  -0.1955  -0.1129

          Ground-State Mulliken Net Atomic Charges

     Atom                 Charge (a.u.)
  ----------------------------------------
      1 Cl                    0.304263
      2 C                     0.797366
      3 C                    -0.207405
      4 C                    -0.668350
      5 C                     0.353058
      6 C                     0.182565
      7 C                    -1.687747
      8 O                    -0.547801
      9 C                    -0.066141
     10 C                     0.797225
     11 Cl                    0.304429
     12 C                    -0.207483
     13 C                    -0.668352
     14 C                     0.353259
     15 C                     0.183028
     16 C                    -1.687735
     17 O                    -0.547631
     18 C                    -0.066252
     19 H                     0.196408
     20 H                     0.181748
     21 H                     0.161702
     22 H                     0.196426
     23 H                     0.181746
     24 H                     0.161674
  ----------------------------------------
  Sum of atomic charges =    -2.000000

                    Cartesian Multipole Moments
 -----------------------------------------------------------------
    Charge (ESU x 10^10)
                -9.6064
    Dipole Moment (Debye)
         X      -0.0002      Y       0.0015      Z      -0.0002
       Tot       0.0015
    Quadrupole Moments (Debye-Ang)
        XX    -141.0058     XY     -12.6214     YY    -192.7950
        XZ       2.0171     YZ      11.2767     ZZ    -131.0426

 Total job time:  76.97s(wall), 360.89s(cpu)
        *  Thank you very much for using Q-Chem.  Have a nice day.  *
