 Gaussian 16, Revision A.03,
 Gaussian 16:  ES64L-G16RevA.03 25-Dec-2016

 ----------------------------------------------
 #P UB3LYP/6-311++G(d,p) nosym opt freq SCF=YQC
 ----------------------------------------------

 -------
 Reduced
 -------
 Symbolic Z-matrix:
 Charge = -4 Multiplicity = 1

 SCF Done:  E(UB3LYP) =  -1935.25006352     a.u. after    9 cycles
 SCF Done:  E(UB3LYP) =  -1935.25517790     A.U. after   33 cycles
 SCF Done:  E(UB3LYP) =  -1935.25517790     a.u. after    2 cycles
 SCF Done:  E(UB3LYP) =  -1935.29988912     a.u. after  204 cycles
 SCF Done:  E(UB3LYP) =  -1935.29999772     A.U. after   33 cycles
 SCF Done:  E(UB3LYP) =  -1935.29999772     a.u. after    1 cycles
 SCF Done:  E(UB3LYP) =  -1935.32288153     a.u. after  258 cycles
 SCF Done:  E(UB3LYP) =  -1935.32307084     A.U. after   33 cycles
 SCF Done:  E(UB3LYP) =  -1935.32307084     a.u. after    1 cycles
 SCF Done:  E(UB3LYP) =  -1935.32528269     a.u. after  103 cycles
 SCF Done:  E(UB3LYP) =  -1935.32625930     A.U. after   33 cycles
 SCF Done:  E(UB3LYP) =  -1935.32625930     a.u. after    1 cycles
 SCF Done:  E(UB3LYP) =  -1935.32624928     a.u. after    1 cycles
 SCF Done:  E(UB3LYP) =  -1935.32625940     A.U. after   33 cycles
 SCF Done:  E(UB3LYP) =  -1935.32625940     a.u. after    1 cycles
 SCF Done:  E(UB3LYP) =  -1935.32625669     a.u. after    1 cycles
 SCF Done:  E(UB3LYP) =  -1935.32625945     A.U. after   33 cycles
 SCF Done:  E(UB3LYP) =  -1935.32625945     a.u. after    1 cycles
 Optimization completed.
    -- Stationary point found.
 Normal termination of Gaussian 16 at Sat Dec 23 08:10:49 2023.

 ----------------------------------------------------------------------
 #P Geom=AllCheck Guess=TCheck SCRF=Check GenChk UB3LYP/6-311++G(d,p) F
 req
 ----------------------------------------------------------------------

 Structure from the checkpoint file:  "226-an.chk"
 -------
 Reduced
 -------
 Charge = -4 Multiplicity = 1

                          Input orientation:
 ---------------------------------------------------------------------
 Center     Atomic      Atomic             Coordinates (Angstroms)
 Number     Number       Type             X           Y           Z
 ---------------------------------------------------------------------
      1          8           0       -6.050046    0.334417   -1.239715
      2         16           0       -5.403804    0.589317    0.094010
      3          8           0       -5.301579    2.047259    0.411525
      4          8           0       -6.085052   -0.189326    1.184894
      5          6           0       -3.704918   -0.062845   -0.025582
      6          6           0       -3.537893   -1.440757   -0.348098
      7          6           0       -2.270036   -1.958839   -0.488390
      8          6           0       -1.095175   -1.173118   -0.315548
      9          6           0        0.204583   -1.780152   -0.513588
     10          8           0        0.346302   -3.009240   -0.882718
     11          6           0        1.333706   -0.916953   -0.235967
     12          6           0        2.655163   -1.439517   -0.326692
     13          6           0        3.775446   -0.669507   -0.108498
     14          6           0        3.630393    0.710871    0.214047
     15          6           0        2.364266    1.249692    0.338582
     16          6           0        1.186508    0.473051    0.138637
     17          6           0       -0.125493    1.097019    0.298564
     18          8           0       -0.265409    2.326540    0.610632
     19          6           0       -1.265487    0.214404    0.058553
     20          6           0       -2.589629    0.727062    0.177093
     21         16           0        5.144667    1.702560    0.436580
     22          8           0        5.910750    1.601292   -0.853470
     23          8           0        4.720459    3.103832    0.742066
     24          8           0        5.905275    1.073023    1.570398
     25          1           0       -4.412266   -2.072368   -0.478179
     26          1           0       -2.123910   -3.008284   -0.732608
     27          1           0        2.747064   -2.494825   -0.572101
     28          1           0        4.768745   -1.104386   -0.176832
     29          1           0        2.238360    2.295489    0.591496
     30          1           0       -2.700990    1.774287    0.430910
 ---------------------------------------------------------------------

 SCF Done:  E(UB3LYP) =  -1935.32625945     a.u. after    1 cycles
 SCF Done:  E(UB3LYP) =  -1935.32625945     A.U. after    3 cycles

 Alpha  occ. eigenvalues --  -88.64529 -88.64526 -18.69090 -18.69087 -18.68993
 Alpha  occ. eigenvalues --  -18.68989 -18.68965 -18.68962 -18.64400 -18.64175
 Alpha  occ. eigenvalues --   -9.80458  -9.79691  -9.79220  -9.79218  -9.78021
 Alpha  occ. eigenvalues --   -9.78019  -9.77434  -9.77433  -9.77292  -9.77290
 Alpha  occ. eigenvalues --   -9.76300  -9.76299  -9.76137  -9.76136  -7.70385
 Alpha  occ. eigenvalues --   -7.70382  -5.66672  -5.66669  -5.66659  -5.66656
 Alpha  occ. eigenvalues --   -5.66534  -5.66531  -0.70108  -0.70105  -0.56701
 Alpha  occ. eigenvalues --   -0.56698  -0.56270  -0.56267  -0.56257  -0.55354
 Alpha  occ. eigenvalues --   -0.45290  -0.44797  -0.38059  -0.35012  -0.34921
 Alpha  occ. eigenvalues --   -0.33761  -0.26911  -0.24705  -0.23791  -0.19345
 Alpha  occ. eigenvalues --   -0.19210  -0.17060  -0.14813  -0.11872  -0.11733
 Alpha  occ. eigenvalues --   -0.08574  -0.07577  -0.06543  -0.05602  -0.05146
 Alpha  occ. eigenvalues --   -0.05138  -0.04472  -0.04228  -0.02681  -0.02601
 Alpha  occ. eigenvalues --   -0.01444  -0.00469   0.00025   0.00989   0.02278
 Alpha  occ. eigenvalues --    0.03216   0.03598   0.05655   0.05729   0.06312
 Alpha  occ. eigenvalues --    0.06814   0.06852   0.06866   0.07112   0.07461
 Alpha  occ. eigenvalues --    0.10283   0.10674   0.10793   0.10863   0.11017
 Alpha  occ. eigenvalues --    0.11135   0.14365   0.14673   0.14676   0.15302
 Alpha  occ. eigenvalues --    0.16064   0.16538   0.18033   0.18653   0.27777
 Alpha virt. eigenvalues --    0.29683   0.29787   0.32301   0.33574   0.34765
 Alpha virt. eigenvalues --    0.35078   0.35703   0.36828   0.37123   0.37928
 Alpha virt. eigenvalues --    0.38486   0.38608   0.39475   0.39509   0.40203

  Beta  occ. eigenvalues --  -88.64529 -88.64526 -18.69090 -18.69087 -18.68993
  Beta  occ. eigenvalues --  -18.68989 -18.68965 -18.68962 -18.64400 -18.64175
  Beta  occ. eigenvalues --   -9.80458  -9.79691  -9.79220  -9.79218  -9.78021
  Beta  occ. eigenvalues --   -9.78019  -9.77434  -9.77433  -9.77292  -9.77290
  Beta  occ. eigenvalues --   -9.76300  -9.76299  -9.76137  -9.76136  -7.70385
  Beta  occ. eigenvalues --   -7.70382  -5.66672  -5.66669  -5.66659  -5.66656
  Beta  occ. eigenvalues --   -5.66534  -5.66531  -0.70108  -0.70105  -0.56701
  Beta  occ. eigenvalues --   -0.56698  -0.56270  -0.56267  -0.56257  -0.55354
  Beta  occ. eigenvalues --   -0.45290  -0.44797  -0.38059  -0.35012  -0.34921
  Beta  occ. eigenvalues --   -0.33761  -0.26911  -0.24705  -0.23791  -0.19345
  Beta  occ. eigenvalues --   -0.19210  -0.17060  -0.14813  -0.11872  -0.11733
  Beta  occ. eigenvalues --   -0.08574  -0.07577  -0.06543  -0.05602  -0.05146
  Beta  occ. eigenvalues --   -0.05138  -0.04472  -0.04228  -0.02681  -0.02601
  Beta  occ. eigenvalues --   -0.01444  -0.00469   0.00025   0.00989   0.02278
  Beta  occ. eigenvalues --    0.03216   0.03598   0.05655   0.05729   0.06312
  Beta  occ. eigenvalues --    0.06814   0.06852   0.06866   0.07112   0.07461
  Beta  occ. eigenvalues --    0.10283   0.10674   0.10793   0.10863   0.11017
  Beta  occ. eigenvalues --    0.11135   0.14365   0.14673   0.14676   0.15302
  Beta  occ. eigenvalues --    0.16064   0.16538   0.18033   0.18653   0.27777
  Beta virt. eigenvalues --    0.29683   0.29787   0.32301   0.33574   0.34765
  Beta virt. eigenvalues --    0.35078   0.35703   0.36828   0.37123   0.37928
  Beta virt. eigenvalues --    0.38486   0.38608   0.39475   0.39509   0.40203

 Mulliken charges and spin densities:
               1          2
     1  O   -0.371851  -0.000000
     2  S    0.873490  -0.000002
     3  O   -0.401269  -0.000000
     4  O   -0.375055   0.000000
     5  C   -0.645108  -0.000003
     6  C   -0.380688  -0.000005
     7  C    0.137594  -0.000001
     8  C    0.856213   0.000000
     9  C   -0.816183  -0.000000
    10  O   -0.521363   0.000000
    11  C    0.858185  -0.000000
    12  C    0.138553   0.000001
    13  C   -0.378277   0.000005
    14  C   -0.641586   0.000003
    15  C    0.039189  -0.000000
    16  C    0.269798  -0.000001
    17  C   -1.031361  -0.000000
    18  O   -0.462922   0.000000
    19  C    0.269231   0.000001
    20  C    0.039882   0.000000
    21  S    0.874502   0.000002
    22  O   -0.371275   0.000000
    23  O   -0.401371   0.000000
    24  O   -0.375782  -0.000000
    25  H   -0.362243   0.000008
    26  H   -0.425259   0.000005
    27  H   -0.428037  -0.000005
    28  H   -0.366716  -0.000008
    29  H    0.199835  -0.000000
    30  H    0.199873   0.000000
 Sum of Mulliken charges =  -4.00000  -0.00000

 Dipole moment (field-independent basis, Debye):
    X=              0.5749    Y=             -5.0338    Z=             -1.9566  Tot=              5.4313
 Quadrupole moment (field-independent basis, Debye-Ang):
   XX=           -597.4340   YY=           -276.5621   ZZ=           -195.5014
   XY=            -33.6083   XZ=            -11.2814   YZ=            -17.9671

  Exact polarizability:********1816.5171548.132 577.740 216.979 240.733
 Approx polarizability:3093.402 120.5891849.740  71.001 187.072 330.547

                      1                      2                      3
                      A                      A                      A
 Frequencies --     15.1848                16.5067                35.2423
 Red. masses --     15.6389                15.0147                11.5577
 Frc consts  --      0.0021                 0.0024                 0.0085
 IR Inten    --     69.2121                 6.3372                12.8143

                      4                      5                      6
                      A                      A                      A
 Frequencies --     47.2802                73.8624                93.1305
 Red. masses --      6.4371                14.6450                 9.3955
 Frc consts  --      0.0085                 0.0471                 0.0480
 IR Inten    --   1946.2255                 5.8388                60.0546

                      7                      8                      9
                      A                      A                      A
 Frequencies --    103.5535               145.9051               158.1848
 Red. masses --     10.4664                 5.6004                 5.9286
 Frc consts  --      0.0661                 0.0702                 0.0874
 IR Inten    --   5479.2637                22.8058                17.3075

                     10                     11                     12
                      A                      A                      A
 Frequencies --    178.6938               180.0585               222.2279
 Red. masses --     15.8048                12.4203                 9.7652
 Frc consts  --      0.2973                 0.2373                 0.2841
 IR Inten    --      0.3719                20.7952                 2.7060

                     13                     14                     15
                      A                      A                      A
 Frequencies --    234.2396               239.1382               264.5423
 Red. masses --      8.2670                12.4200                13.1201
 Frc consts  --      0.2673                 0.4185                 0.5410
 IR Inten    --    236.2907                 0.0057               559.6481

                     16                     17                     18
                      A                      A                      A
 Frequencies --    322.1294               342.8115               364.5386
 Red. masses --      8.2940                 7.1520                10.0120
 Frc consts  --      0.5071                 0.4952                 0.7839
 IR Inten    --      2.4606              1065.9593              7263.7009

                     19                     20                     21
                      A                      A                      A
 Frequencies --    370.9571               372.9589               403.2537
 Red. masses --      7.5564                 7.8403                 9.1136
 Frc consts  --      0.6127                 0.6425                 0.8732
 IR Inten    --     24.9543               171.2503              1542.5561

                     22                     23                     24
                      A                      A                      A
 Frequencies --    425.5399               429.7131               458.1276
 Red. masses --      3.7593                 7.9459                 4.0606
 Frc consts  --      0.4011                 0.8645                 0.5021
 IR Inten    --     59.9858                12.9378              1517.1090

                     25                     26                     27
                      A                      A                      A
 Frequencies --    467.7357               490.9114               493.4552
 Red. masses --      6.3876                 7.3600                 9.1539
 Frc consts  --      0.8234                 1.0450                 1.3133
 IR Inten    --    472.5371                72.0883               289.0759

                     28                     29                     30
                      A                      A                      A
 Frequencies --    515.6975               517.1660               520.1977
 Red. masses --     14.6652                13.2848                12.8227
 Frc consts  --      2.2979                 2.0935                 2.0444
 IR Inten    --      6.8837                25.7854              1466.8125

                     31                     32                     33
                      A                      A                      A
 Frequencies --    565.2831               603.4312               603.8489
 Red. masses --      7.7097                11.3123                13.7409
 Frc consts  --      1.4515                 2.4269                 2.9520
 IR Inten    --     29.9568               444.7390               344.0716

                     34                     35                     36
                      A                      A                      A
 Frequencies --    634.8733               648.0657               668.8607
 Red. masses --      3.9796                 7.9114                 8.1414
 Frc consts  --      0.9451                 1.9577                 2.1460
 IR Inten    --     18.2934               244.8267               210.9474

                     37                     38                     39
                      A                      A                      A
 Frequencies --    694.1451               703.0483               714.0282
 Red. masses --      6.7008                 5.2786                 8.0635
 Frc consts  --      1.9023                 1.5372                 2.4222
 IR Inten    --     24.5226              2809.5435               734.4288

                     40                     41                     42
                      A                      A                      A
 Frequencies --    730.2768               803.9473               824.1330
 Red. masses --      5.7708                 3.2608                 1.4341
 Frc consts  --      1.8133                 1.2417                 0.5739
 IR Inten    --      2.6649               109.1719             24448.9596

                     43                     44                     45
                      A                      A                      A
 Frequencies --    834.9683               847.2342               919.8156
 Red. masses --      7.0969                 2.0267                 6.3214
 Frc consts  --      2.9151                 0.8571                 3.1511
 IR Inten    --    156.0105                57.8082                 4.9949

                     46                     47                     48
                      A                      A                      A
 Frequencies --    926.5768               943.8312               951.9413
 Red. masses --      8.4644                13.7115                 1.3473
 Frc consts  --      4.2816                 7.1965                 0.7193
 IR Inten    --   5184.7179              1234.4590              1323.9713

                     49                     50                     51
                      A                      A                      A
 Frequencies --    955.4003               978.9094               980.0895
 Red. masses --      1.3508                 1.5639                 1.3687
 Frc consts  --      0.7264                 0.8829                 0.7746
 IR Inten    --     32.6967                75.7061               205.7877

                     52                     53                     54
                      A                      A                      A
 Frequencies --    986.5595              1041.5319              1045.2283
 Red. masses --      3.5493                 2.3501                 2.4119
 Frc consts  --      2.0354                 1.5020                 1.5525
 IR Inten    --   2237.3995              1326.3081             13089.3249

                     55                     56                     57
                      A                      A                      A
 Frequencies --   1069.3463              1086.5813              1086.8497
 Red. masses --      1.9810                16.6573                20.0684
 Frc consts  --      1.3347                11.5872                13.9669
 IR Inten    --  49288.6962               394.6261               671.0589

                     58                     59                     60
                      A                      A                      A
 Frequencies --   1097.2371              1120.0362              1120.0924
 Red. masses --      3.4624                 4.3603                 5.3252
 Frc consts  --      2.4560                 3.2228                 3.9364
 IR Inten    --     68.4683               140.2861               191.2235

                     61                     62                     63
                      A                      A                      A
 Frequencies --   1152.9366              1160.1638              1177.9680
 Red. masses --      3.5343                 8.4478                 1.6817
 Frc consts  --      2.7680                 6.6993                 1.3749
 IR Inten    --   1168.6905              1784.4502               297.2019

                     64                     65                     66
                      A                      A                      A
 Frequencies --   1187.0235              1233.2758              1296.8760
 Red. masses --      1.8860                 1.8380                 2.0431
 Frc consts  --      1.5657                 1.6471                 2.0246
 IR Inten    --  14364.6647                 2.9785             13100.7424

                     67                     68                     69
                      A                      A                      A
 Frequencies --   1302.3926              1333.3329              1345.1665
 Red. masses --      9.0801                 7.2849                 3.5699
 Frc consts  --      9.0746                 7.6304                 3.8059
 IR Inten    --   2614.8198              4615.0990               173.6169

                     70                     71                     72
                      A                      A                      A
 Frequencies --   1398.3930              1428.6193              1460.1943
 Red. masses --      7.5801                 3.3383                 3.0167
 Frc consts  --      8.7334                 4.0143                 3.7897
 IR Inten    --   2695.2719              1093.5606               138.6825

                     73                     74                     75
                      A                      A                      A
 Frequencies --   1461.9505              1477.6628              1501.7801
 Red. masses --      4.8012                 6.0917                 5.8870
 Frc consts  --      6.0459                 7.8368                 7.8228
 IR Inten    --    895.8794              2501.1915             11139.9672

                     76                     77                     78
                      A                      A                      A
 Frequencies --   1520.8817              1566.5132              1577.7594
 Red. masses --      7.6359                 6.4319                 6.3095
 Frc consts  --     10.4064                 9.2994                 9.2540
 IR Inten    --   2628.7218             17404.4567               395.2920

                     79                     80                     81
                      A                      A                      A
 Frequencies --   3119.6049              3122.6372              3134.3556
 Red. masses --      1.0876                 1.0854                 1.0936
 Frc consts  --      6.2360                 6.2355                 6.3302
 IR Inten    --  52606.9836                79.7395             37271.3078

                     82                     83                     84
                      A                      A                      A
 Frequencies --   3150.4728              3193.7513              3194.1153
 Red. masses --      1.0932                 1.0882                 1.0883
 Frc consts  --      6.3928                 6.5398                 6.5421
 IR Inten    --    338.9191                 0.3746                 5.6511

 - Thermochemistry -
 -------------------
 Temperature   298.150 Kelvin.  Pressure   1.00000 Atm.
 Atom     1 has atomic number  8 and mass  15.99491

 Molecular mass:   365.95041 amu.
 Principal axes and moments of inertia in atomic units:
                           1         2         3
     Eigenvalues --  3231.31130********************
           X            0.99396  -0.10964  -0.00507
           Y            0.10489   0.96250  -0.25020
           Z            0.03231   0.24815   0.96818
 This molecule is an asymmetric top.
 Rotational symmetry number  1.
 Warning -- assumption of classical behavior for rotation
           may cause significant error
 Rotational temperatures (Kelvin)      0.02680     0.00396     0.00355
 Rotational constants (GHZ):           0.55852     0.08255     0.07400
 Zero-point vibrational energy     467661.8 (Joules/Mol)
                                  111.77384 (Kcal/Mol)
 Warning -- explicit consideration of  33 degrees of freedom as
           vibrations may cause significant error
 Vibrational temperatures:     21.85    23.75    50.71    68.03   106.27
          (Kelvin)            133.99   148.99   209.92   227.59   257.10
                              259.06   319.74   337.02   344.07   380.62
                              463.47   493.23   524.49   533.72   536.60
                              580.19   612.26   618.26   659.14   672.97
                              706.31   709.97   741.97   744.09   748.45
                              813.32   868.20   868.80   913.44   932.42
                              962.34   998.72  1011.53  1027.33  1050.71
                             1156.70  1185.74  1201.33  1218.98  1323.41
                             1333.14  1357.96  1369.63  1374.61  1408.43
                             1410.13  1419.44  1498.53  1503.85  1538.55
                             1563.35  1563.73  1578.68  1611.48  1611.56
                             1658.82  1669.22  1694.83  1707.86  1774.41
                             1865.92  1873.85  1918.37  1935.39  2011.98
                             2055.46  2100.89  2103.42  2126.03  2160.73
                             2188.21  2253.86  2270.04  4488.42  4492.78
                             4509.64  4532.83  4595.10  4595.62

 Zero-point correction=                           0.178123 (Hartree/Particle)
 Thermal correction to Energy=                    0.197831
 Thermal correction to Enthalpy=                  0.198775
 Thermal correction to Gibbs Free Energy=         0.126700
 Sum of electronic and zero-point Energies=          -1935.148136
 Sum of electronic and thermal Energies=             -1935.128428
 Sum of electronic and thermal Enthalpies=           -1935.127484
 Sum of electronic and thermal Free Energies=        -1935.199560

                     E (Thermal)             CV                S
                      KCal/Mol        Cal/Mol-Kelvin    Cal/Mol-Kelvin
 Total                  124.141             75.112            151.696
 Electronic               0.000              0.000              0.000
 Translational            0.889              2.981             43.585
 Rotational               0.889              2.981             35.798
 Vibrational            122.363             69.150             72.313
 Vibration     1          0.593              1.986              7.181
 Vibration     2          0.593              1.986              7.015
 Vibration     3          0.594              1.982              5.510
 Vibration     4          0.595              1.979              4.928
 Vibration     5          0.599              1.966              4.048
 Vibration     6          0.602              1.954              3.593
 Vibration     7          0.605              1.946              3.386
 Vibration     8          0.617              1.907              2.725
 Vibration     9          0.621              1.893              2.571
 Vibration    10          0.629              1.869              2.342
 Vibration    11          0.629              1.867              2.328
 Vibration    12          0.648              1.807              1.941
 Vibration    13          0.654              1.788              1.846
 Vibration    14          0.657              1.781              1.809
 Vibration    15          0.671              1.738              1.632
 Vibration    16          0.707              1.631              1.299
 Vibration    17          0.722              1.590              1.199
 Vibration    18          0.738              1.545              1.103
 Vibration    19          0.743              1.532              1.076
 Vibration    20          0.744              1.528              1.068
 Vibration    21          0.769              1.463              0.951
 Vibration    22          0.787              1.415              0.873
 Vibration    23          0.791              1.406              0.860
 Vibration    24          0.816              1.343              0.772
 Vibration    25          0.825              1.322              0.744
 Vibration    26          0.847              1.270              0.681
 Vibration    27          0.849              1.265              0.675
 Vibration    28          0.871              1.215              0.620
 Vibration    29          0.872              1.212              0.617
 Vibration    30          0.875              1.205              0.610
 Vibration    31          0.921              1.106              0.513
 Vibration    32          0.962              1.025              0.444
 Vibration    33          0.962              1.024              0.443

                           ! Non-Optimized Parameters !
 Normal termination of Gaussian 16 at Sat Dec 23 10:02:59 2023.
