 Gaussian 16, Revision A.03,
 Gaussian 16:  ES64L-G16RevA.03 25-Dec-2016

 ----------------------------------------------------------------
 #P UB3LYP/6-311++G(d,p) SCRF=(PCM,Solvent=n,n-DiMethylFormamide)
 ----------------------------------------------------------------

 ------------------
 Radical PCM in DMF
 ------------------
 Symbolic Z-matrix:
 Charge = -1 Multiplicity = 2

                         Standard orientation:
 ---------------------------------------------------------------------
 Center     Atomic      Atomic             Coordinates (Angstroms)
 Number     Number       Type             X           Y           Z
 ---------------------------------------------------------------------
      1          6           0        2.380698    1.436273   -0.000132
      2          6           0        3.778953    1.076080   -0.000420
      3          6           0        4.201447   -0.227107   -0.000357
      4          6           0        3.273726   -1.340013    0.000001
      5          6           0        1.868303   -0.980252    0.000342
      6          6           0        1.442580    0.321748    0.000216
      7          8           0        1.973399    2.637833   -0.000145
      8          8           0        3.660273   -2.544401    0.000069
      9          6           0       -0.002420    0.734998    0.000420
     10          8           0       -0.864146   -0.416361    0.000376
     11          6           0       -2.200815   -0.228651    0.000225
     12          6           0       -2.835740    1.022067    0.000327
     13          6           0       -2.986064   -1.394446   -0.000120
     14          6           0       -4.370768   -1.308804   -0.000439
     15          6           0       -4.230774    1.089634    0.000005
     16          6           0       -5.008776   -0.064039   -0.000379
     17          1           0        4.489036    1.898867   -0.000696
     18          1           0        5.259402   -0.475354   -0.000588
     19          1           0        1.154619   -1.796386    0.000695
     20          1           0       -0.215277    1.352673   -0.880344
     21          1           0       -0.215099    1.352505    0.881348
     22          1           0       -2.254310    1.933532    0.000609
     23          1           0       -2.478682   -2.351974   -0.000223
     24          1           0       -4.959411   -2.220612   -0.000774
     25          1           0       -4.707548    2.064669    0.000074
     26          1           0       -6.091049    0.000587   -0.000644
 ---------------------------------------------------------------------

 SCF Done:  E(UB3LYP) =  -727.394316433     A.U. after   18 cycles

 The electronic state is 2-A.
 Alpha  occ. eigenvalues --  -19.15841 -19.07925 -19.07832 -10.24094 -10.22874
 Alpha  occ. eigenvalues --  -10.22101 -10.22017 -10.18016 -10.17978 -10.17705
 Alpha  occ. eigenvalues --  -10.17622 -10.17425 -10.17162 -10.16454 -10.16363
 Alpha  occ. eigenvalues --  -10.16201  -1.07640  -0.99992  -0.99719  -0.85920
 Alpha  occ. eigenvalues --   -0.82808  -0.77856  -0.75429  -0.73969  -0.70311
 Alpha  occ. eigenvalues --   -0.67169  -0.61896  -0.61064  -0.58072  -0.56138
 Alpha  occ. eigenvalues --   -0.54042  -0.49600  -0.48297  -0.48091  -0.46684
 Alpha  occ. eigenvalues --   -0.46259  -0.44873  -0.43767  -0.42631  -0.41449
 Alpha  occ. eigenvalues --   -0.41000  -0.40367  -0.38719  -0.38308  -0.37195
 Alpha  occ. eigenvalues --   -0.36961  -0.36506  -0.35834  -0.33183  -0.33173
 Alpha  occ. eigenvalues --   -0.28276  -0.26349  -0.25582  -0.24510  -0.23929
 Alpha  occ. eigenvalues --   -0.23060  -0.16419
 Alpha virt. eigenvalues --   -0.02038  -0.00912  -0.00523  -0.00422   0.00500
 Alpha virt. eigenvalues --    0.01028   0.01673   0.02318   0.02539   0.03445
 Alpha virt. eigenvalues --    0.03482   0.03809   0.04138   0.05982   0.06333

  Beta  occ. eigenvalues --  -19.15843 -19.07241 -19.07117 -10.24094 -10.22884
  Beta  occ. eigenvalues --  -10.21940 -10.21890 -10.18016 -10.17978 -10.17622
  Beta  occ. eigenvalues --  -10.17603 -10.17426 -10.17162 -10.16352 -10.16232
  Beta  occ. eigenvalues --  -10.16102  -1.07641  -0.98784  -0.98459  -0.85908
  Beta  occ. eigenvalues --   -0.82245  -0.77651  -0.75418  -0.73857  -0.69940
  Beta  occ. eigenvalues --   -0.66340  -0.61801  -0.60931  -0.57856  -0.55793
  Beta  occ. eigenvalues --   -0.53964  -0.49561  -0.48145  -0.47979  -0.46406
  Beta  occ. eigenvalues --   -0.45987  -0.44817  -0.43497  -0.42597  -0.41368
  Beta  occ. eigenvalues --   -0.39835  -0.39732  -0.38057  -0.37671  -0.36895
  Beta  occ. eigenvalues --   -0.36367  -0.35603  -0.34601  -0.33159  -0.32896
  Beta  occ. eigenvalues --   -0.26329  -0.25000  -0.24714  -0.23856  -0.23299
  Beta  occ. eigenvalues --   -0.23047
  Beta virt. eigenvalues --   -0.09126  -0.01985  -0.00575  -0.00413   0.00465
  Beta virt. eigenvalues --    0.00522   0.01046   0.01682   0.02342   0.03452
  Beta virt. eigenvalues --    0.03492   0.03825   0.04165   0.04724   0.06023

 Mulliken charges and spin densities:
               1          2
     1  C   -1.126181   0.026324
     2  C    0.193633   0.125423
     3  C    0.073139   0.099561
     4  C   -0.434725   0.143210
     5  C   -0.404732   0.033976
     6  C    0.637450   0.090368
     7  O   -0.483479   0.249001
     8  O   -0.502877   0.248564
     9  C   -0.111845  -0.002465
    10  O   -0.119406   0.000023
    11  C    0.434250  -0.002580
    12  C    0.028171  -0.000708
    13  C   -0.130551   0.000760
    14  C   -0.263690   0.000498
    15  C   -0.338704  -0.000039
    16  C   -0.389583  -0.000271
    17  H    0.183470  -0.007670
    18  H    0.188473  -0.008034
    19  H    0.180264  -0.007624
    20  H    0.228859   0.005924
    21  H    0.228924   0.005928
    22  H    0.171965  -0.000179
    23  H    0.178099   0.000023
    24  H    0.199977  -0.000014
    25  H    0.210835  -0.000009
    26  H    0.168263   0.000009
 Sum of Mulliken charges =  -1.00000   1.00000

 Dipole moment (field-independent basis, Debye):
    X=            -12.6703    Y=              1.5888    Z=              0.0001  Tot=             12.7696
 Quadrupole moment (field-independent basis, Debye-Ang):
   XX=           -132.7870   YY=           -128.0013   ZZ=           -100.4433
   XY=             12.4242   XZ=              0.0013   YZ=              0.0034

 Normal termination of Gaussian 16 at Wed Jan 24 22:50:49 2024.
