 Q-Chem 5.4, Q-Chem, Inc., Pleasanton, CA (2021)
 Q-Chem 5.4.0 for Intel X86 EM64T Linux

User input:
--------------------------------------------------------------
$molecule
0 1
O                  2.7290710000     -2.7081710000     -1.3568140000
C                  2.2231930000     -1.7371550000     -0.8138060000
C                  0.7552560000     -1.5923460000     -0.7503020000
C                  0.1114840000     -0.5571600000     -0.1735920000
C                 -1.3997970000     -0.4894150000     -0.1552140000
C                 -1.9618410000      0.7183770000     -0.9440990000
C                 -3.4966100000      0.6873410000     -0.9749910000
C                 -4.0913110000      0.6278210000      0.4386710000
C                 -3.5267250000     -0.5585900000      1.2319810000
C                 -1.9920570000     -0.5342930000      1.2745560000
C                  0.9195320000      0.5410020000      0.4569420000
O                  0.3793500000      1.4960620000      0.9918400000
C                  2.4107660000      0.4350550000      0.4151820000
C                  3.1833580000      1.4452630000      0.9949400000
C                  4.5716450000      1.3640910000      0.9652280000
C                  5.1994300000      0.2741290000      0.3567910000
C                  4.4378450000     -0.7355290000     -0.2223540000
C                  3.0438920000     -0.6591010000     -0.1954000000
H                  0.2032110000     -2.4034450000     -1.2156020000
H                 -1.7451390000     -1.3950700000     -0.6712480000
H                 -1.6206430000      1.6446280000     -0.4749120000
H                 -1.5648280000      0.7061070000     -1.9647500000
H                 -3.8705330000      1.5677720000     -1.5075120000
H                 -3.8331040000     -0.1877280000     -1.5466650000
H                 -3.8571850000      1.5600260000      0.9681050000
H                 -5.1830170000      0.5626540000      0.3870260000
H                 -3.8647660000     -1.4961830000      0.7710540000
H                 -3.9219670000     -0.5552210000      2.2529290000
H                 -1.6163740000     -1.4192170000      1.7992010000
H                 -1.6519850000      0.3418050000      1.8324960000
H                  2.6789650000      2.2822030000      1.4617390000
H                  5.1676050000      2.1496060000      1.4158380000
H                  6.2816890000      0.2148430000      0.3358370000
H                  4.9015920000     -1.5901650000     -0.6996880000
$end

$rem
BASIS  =  6-311++G(d,p)
GUI  =  2
JOB_TYPE  =  SP
METHOD  =  B3LYP
SCF_CONVERGENCE  = 8
SOLVENT_METHOD = sm12
$end

$smx
solvent dimethylformamide
charges CM5
$end

--------------------------------------------------------------

             Standard Nuclear Orientation (Angstroms)
    I     Atom           X                Y                Z
 ----------------------------------------------------------------
    1      O       2.7290710000    -2.7081710000    -1.3568140000
    2      C       2.2231930000    -1.7371550000    -0.8138060000
    3      C       0.7552560000    -1.5923460000    -0.7503020000
    4      C       0.1114840000    -0.5571600000    -0.1735920000
    5      C      -1.3997970000    -0.4894150000    -0.1552140000
    6      C      -1.9618410000     0.7183770000    -0.9440990000
    7      C      -3.4966100000     0.6873410000    -0.9749910000
    8      C      -4.0913110000     0.6278210000     0.4386710000
    9      C      -3.5267250000    -0.5585900000     1.2319810000
   10      C      -1.9920570000    -0.5342930000     1.2745560000
   11      C       0.9195320000     0.5410020000     0.4569420000
   12      O       0.3793500000     1.4960620000     0.9918400000
   13      C       2.4107660000     0.4350550000     0.4151820000
   14      C       3.1833580000     1.4452630000     0.9949400000
   15      C       4.5716450000     1.3640910000     0.9652280000
   16      C       5.1994300000     0.2741290000     0.3567910000
   17      C       4.4378450000    -0.7355290000    -0.2223540000
   18      C       3.0438920000    -0.6591010000    -0.1954000000
   19      H       0.2032110000    -2.4034450000    -1.2156020000
   20      H      -1.7451390000    -1.3950700000    -0.6712480000
   21      H      -1.6206430000     1.6446280000    -0.4749120000
   22      H      -1.5648280000     0.7061070000    -1.9647500000
   23      H      -3.8705330000     1.5677720000    -1.5075120000
   24      H      -3.8331040000    -0.1877280000    -1.5466650000
   25      H      -3.8571850000     1.5600260000     0.9681050000
   26      H      -5.1830170000     0.5626540000     0.3870260000
   27      H      -3.8647660000    -1.4961830000     0.7710540000
   28      H      -3.9219670000    -0.5552210000     2.2529290000
   29      H      -1.6163740000    -1.4192170000     1.7992010000
   30      H      -1.6519850000     0.3418050000     1.8324960000
   31      H       2.6789650000     2.2822030000     1.4617390000
   32      H       5.1676050000     2.1496060000     1.4158380000
   33      H       6.2816890000     0.2148430000     0.3358370000
   34      H       4.9015920000    -1.5901650000    -0.6996880000
 ----------------------------------------------------------------

   15    -769.9993033531      3.21e-09  Convergence criterion met
 Total energy in the final basis set =     -770.0193452170

                    Orbital Energies (a.u.)
 --------------------------------------------------------------

 Alpha MOs
 -- Occupied --
-19.1330 -19.1293 -10.2830 -10.2779 -10.2161 -10.2068 -10.2056 -10.2019
-10.1969 -10.1966 -10.1962 -10.1960 -10.1886 -10.1667 -10.1667 -10.1646
-10.1645 -10.1627  -1.0667  -1.0608  -0.8889  -0.8564  -0.8247  -0.7819
 -0.7766  -0.7441  -0.7425  -0.6922  -0.6524  -0.6406  -0.6126  -0.6052
 -0.5832  -0.5625  -0.5345  -0.5279  -0.4988  -0.4846  -0.4720  -0.4588
 -0.4522  -0.4504  -0.4499  -0.4422  -0.4384  -0.4337  -0.4202  -0.4177
 -0.3905  -0.3899  -0.3817  -0.3788  -0.3746  -0.3676  -0.3487  -0.3472
 -0.3253  -0.3133  -0.3121  -0.2907  -0.2811  -0.2773  -0.2761  -0.2703

          Ground-State Mulliken Net Atomic Charges

     Atom                 Charge (a.u.)
  ----------------------------------------
      1 O                    -0.319453
      2 C                    -1.304468
      3 C                    -0.010434
      4 C                     0.928695
      5 C                     1.106774
      6 C                    -0.614330
      7 C                    -0.285811
      8 C                    -0.422440
      9 C                    -0.285901
     10 C                    -0.613359
     11 C                    -1.247345
     12 O                    -0.231180
     13 C                    -0.575105
     14 C                     0.179367
     15 C                     0.274617
     16 C                     0.354491
     17 C                    -0.019267
     18 C                     0.029498
     19 H                     0.297389
     20 H                     0.252115
     21 H                     0.099445
     22 H                     0.187052
     23 H                     0.187991
     24 H                     0.128685
     25 H                     0.083405
     26 H                     0.208574
     27 H                     0.128577
     28 H                     0.187949
     29 H                     0.186762
     30 H                     0.099680
     31 H                     0.191890
     32 H                     0.320988
     33 H                     0.320995
     34 H                     0.174153
  ----------------------------------------
  Sum of atomic charges =     0.000000

                    Cartesian Multipole Moments
 -----------------------------------------------------------------
    Charge (ESU x 10^10)
                 0.0000
    Dipole Moment (Debye)
         X       0.4506      Y       1.3652      Z       0.7701
       Tot       1.6309
    Quadrupole Moments (Debye-Ang)
        XX     -88.8283     XY      12.2541     YY    -115.4453
        XZ       7.2167     YZ      -3.6414     ZZ    -110.2813

 Total job time:  1007.43s(wall), 7912.98s(cpu)
        *  Thank you very much for using Q-Chem.  Have a nice day.  *
