 Gaussian 16, Revision A.03,
 Gaussian 16:  ES64L-G16RevA.03 25-Dec-2016

 ----------------------------------------------------------------
 #P UB3LYP/6-311++G(d,p) SCRF=(PCM,Solvent=n,n-DiMethylFormamide)
 ----------------------------------------------------------------

 -------
 Reduced
 -------
 Symbolic Z-matrix:
 Charge = -2 Multiplicity = 1

                         Standard orientation:
 ---------------------------------------------------------------------
 Center     Atomic      Atomic             Coordinates (Angstroms)
 Number     Number       Type             X           Y           Z
 ---------------------------------------------------------------------
      1          6           0        1.459171    1.311937    0.445803
      2          6           0        1.130690   -0.063317    0.106321
      3          6           0        2.142067   -0.955101   -0.296139
      4          6           0        3.532264   -0.632005   -0.398355
      5          6           0        3.833009    0.736001   -0.053525
      6          6           0        2.860253    1.635145    0.334286
      7          8           0        0.603055    2.186346    0.833776
      8          8           0        4.435462   -1.468988   -0.777111
      9          6           0       -0.246154   -0.582049    0.234328
     10          6           0       -1.532945    0.041868   -0.040896
     11          6           0       -0.551338   -1.880802    0.590351
     12          6           0       -2.545349   -0.947630    0.137476
     13          7           0       -1.921080   -2.107642    0.526672
     14          6           0       -1.929923    1.328999   -0.441672
     15          6           0       -3.278297    1.587246   -0.663492
     16          6           0       -4.259454    0.590150   -0.479642
     17          6           0       -3.904420   -0.689262   -0.071288
     18          1           0        1.867885   -1.965430   -0.592381
     19          1           0        4.876440    1.043887   -0.121414
     20          1           0        3.126215    2.660093    0.590295
     21          1           0        0.117796   -2.675280    0.880685
     22          1           0       -2.384564   -2.978665    0.735814
     23          1           0       -1.172467    2.100358   -0.508771
     24          1           0       -3.588313    2.584089   -0.966007
     25          1           0       -5.306928    0.822696   -0.652694
     26          1           0       -4.654087   -1.464204    0.073109
 ---------------------------------------------------------------------

 SCF Done:  E(UB3LYP) =  -744.541388086     A.U. after   18 cycles

 The electronic state is 1-A.
 Alpha  occ. eigenvalues --  -19.00744 -19.00515 -14.34327 -10.19518 -10.18367
 Alpha  occ. eigenvalues --  -10.16652 -10.16330 -10.16316 -10.16043 -10.15834
 Alpha  occ. eigenvalues --  -10.15617 -10.15389 -10.15306 -10.12886 -10.11685
 Alpha  occ. eigenvalues --  -10.11584 -10.11164  -0.96747  -0.92638  -0.92228
 Alpha  occ. eigenvalues --   -0.83166  -0.78854  -0.76033  -0.72604  -0.71743
 Alpha  occ. eigenvalues --   -0.68475  -0.63505  -0.61330  -0.58641  -0.57831
 Alpha  occ. eigenvalues --   -0.53914  -0.53132  -0.50439  -0.46894  -0.46043
 Alpha  occ. eigenvalues --   -0.43234  -0.42431  -0.41819  -0.41565  -0.41004
 Alpha  occ. eigenvalues --   -0.40075  -0.38222  -0.36743  -0.35279  -0.34981
 Alpha  occ. eigenvalues --   -0.34387  -0.33132  -0.32911  -0.31881  -0.31033
 Alpha  occ. eigenvalues --   -0.30415  -0.27485  -0.22747  -0.21930  -0.21782
 Alpha  occ. eigenvalues --   -0.18844  -0.18615  -0.17905  -0.10737
 Alpha virt. eigenvalues --   -0.01452   0.00025   0.00938   0.01106   0.01568
 Alpha virt. eigenvalues --    0.01988   0.02393   0.02428   0.03517   0.03880
 Alpha virt. eigenvalues --    0.04496   0.05114   0.05518   0.06058   0.06656

  Beta  occ. eigenvalues --  -19.00744 -19.00515 -14.34327 -10.19518 -10.18367
  Beta  occ. eigenvalues --  -10.16652 -10.16330 -10.16316 -10.16043 -10.15834
  Beta  occ. eigenvalues --  -10.15617 -10.15389 -10.15306 -10.12886 -10.11685
  Beta  occ. eigenvalues --  -10.11584 -10.11164  -0.96747  -0.92638  -0.92228
  Beta  occ. eigenvalues --   -0.83166  -0.78854  -0.76033  -0.72604  -0.71743
  Beta  occ. eigenvalues --   -0.68475  -0.63505  -0.61330  -0.58641  -0.57831
  Beta  occ. eigenvalues --   -0.53914  -0.53132  -0.50439  -0.46894  -0.46043
  Beta  occ. eigenvalues --   -0.43234  -0.42431  -0.41819  -0.41565  -0.41004
  Beta  occ. eigenvalues --   -0.40075  -0.38222  -0.36743  -0.35279  -0.34981
  Beta  occ. eigenvalues --   -0.34387  -0.33132  -0.32911  -0.31881  -0.31033
  Beta  occ. eigenvalues --   -0.30415  -0.27485  -0.22747  -0.21930  -0.21782
  Beta  occ. eigenvalues --   -0.18844  -0.18615  -0.17905  -0.10737
  Beta virt. eigenvalues --   -0.01452   0.00025   0.00938   0.01106   0.01568
  Beta virt. eigenvalues --    0.01988   0.02393   0.02428   0.03517   0.03880
  Beta virt. eigenvalues --    0.04496   0.05114   0.05518   0.06058   0.06656

 Mulliken charges and spin densities:
               1          2
     1  C   -1.176453  -0.000000
     2  C    1.090927  -0.000000
     3  C   -0.607417   0.000000
     4  C   -0.412697   0.000000
     5  C   -0.116331  -0.000000
     6  C    0.042402   0.000000
     7  O   -0.675337   0.000000
     8  O   -0.746413  -0.000000
     9  C    0.468653   0.000000
    10  C    1.163751  -0.000000
    11  C   -0.269361  -0.000000
    12  C    0.045180  -0.000000
    13  N   -0.125063   0.000000
    14  C   -0.851481  -0.000000
    15  C   -0.601273   0.000000
    16  C   -0.283534  -0.000000
    17  C   -0.531817  -0.000000
    18  H    0.110039   0.000000
    19  H    0.126842  -0.000000
    20  H    0.126524   0.000000
    21  H    0.191090   0.000000
    22  H    0.330757   0.000000
    23  H    0.183148  -0.000000
    24  H    0.174563  -0.000000
    25  H    0.171299  -0.000000
    26  H    0.172003  -0.000000
 Sum of Mulliken charges =  -2.00000   0.00000

 Dipole moment (field-independent basis, Debye):
    X=            -22.5121    Y=             -5.1172    Z=              0.7920  Tot=             23.1000
 Quadrupole moment (field-independent basis, Debye-Ang):
   XX=           -198.5895   YY=           -123.8291   ZZ=           -117.5442
   XY=             27.2508   XZ=             10.3953   YZ=            -15.8374

 Normal termination of Gaussian 16 at Wed Jan 24 22:52:37 2024.
