 Q-Chem 5.4, Q-Chem, Inc., Pleasanton, CA (2021)
 Q-Chem 5.4.0 for Intel X86 EM64T Linux

User input:
--------------------------------------------------------------
$molecule
0 1
C                 -1.7712760000      1.8855580000     -5.1550450000
C                 -1.6914700000      0.5495270000     -5.5279930000
C                 -1.3239020000     -0.4211760000     -4.5914040000
C                 -1.4841630000      2.2671670000     -3.8396760000
C                 -1.1157870000      1.2916090000     -2.9022640000
C                 -1.0371510000     -0.0515360000     -3.2834240000
C                 -1.5834520000      3.7176400000     -3.4845960000
C                 -0.8060840000      1.6723660000     -1.5005640000
C                 -1.2741350000      4.1147700000     -2.0674480000
C                 -0.9046420000      3.1112370000     -1.1403490000
C                 -1.3351970000      5.4412080000     -1.6174700000
C                 -1.0441480000      5.8015280000     -0.2740200000
C                 -0.6775980000      4.7559190000      0.6003930000
C                 -0.6093420000      3.4474650000      0.1814010000
O                 -1.9068620000      4.5243280000     -4.3363300000
O                 -0.4818610000      0.8330970000     -0.6728080000
H                 -2.0540620000      2.6517120000     -5.8656750000
H                 -1.9151920000      0.2603960000     -6.5485810000
H                 -1.2625790000     -1.4628140000     -4.8854370000
H                 -0.7501270000     -0.7831980000     -2.5385330000
Br                -0.2584810000      5.1715860000      2.4251670000
H                 -0.3272370000      2.6548630000      0.8613730000
N                 -1.1396490000      7.0875860000      0.1537230000
Cl                -1.7718930000      6.7818300000     -2.6611390000
H                 -1.2790140000      7.8219500000     -0.5201150000
H                 -0.8005150000      7.3267720000      1.0708040000
$end
$rem
MAX_SCF_CYCLES=200
BASIS  =  6-311++G(d,p)
GUI  =  2
JOB_TYPE  =  SP
METHOD  =  B3LYP
SOLVENT_METHOD = PCM
$end
$pcm
theory = CPCM
$end
$solvent
dielectric 37.219
opticaldielectric 1.43
$end

--------------------------------------------------------------

             Standard Nuclear Orientation (Angstroms)
    I     Atom           X                Y                Z
 ----------------------------------------------------------------
    1      C      -1.7712760000     1.8855580000    -5.1550450000
    2      C      -1.6914700000     0.5495270000    -5.5279930000
    3      C      -1.3239020000    -0.4211760000    -4.5914040000
    4      C      -1.4841630000     2.2671670000    -3.8396760000
    5      C      -1.1157870000     1.2916090000    -2.9022640000
    6      C      -1.0371510000    -0.0515360000    -3.2834240000
    7      C      -1.5834520000     3.7176400000    -3.4845960000
    8      C      -0.8060840000     1.6723660000    -1.5005640000
    9      C      -1.2741350000     4.1147700000    -2.0674480000
   10      C      -0.9046420000     3.1112370000    -1.1403490000
   11      C      -1.3351970000     5.4412080000    -1.6174700000
   12      C      -1.0441480000     5.8015280000    -0.2740200000
   13      C      -0.6775980000     4.7559190000     0.6003930000
   14      C      -0.6093420000     3.4474650000     0.1814010000
   15      O      -1.9068620000     4.5243280000    -4.3363300000
   16      O      -0.4818610000     0.8330970000    -0.6728080000
   17      H      -2.0540620000     2.6517120000    -5.8656750000
   18      H      -1.9151920000     0.2603960000    -6.5485810000
   19      H      -1.2625790000    -1.4628140000    -4.8854370000
   20      H      -0.7501270000    -0.7831980000    -2.5385330000
   21      Br     -0.2584810000     5.1715860000     2.4251670000
   22      H      -0.3272370000     2.6548630000     0.8613730000
   23      N      -1.1396490000     7.0875860000     0.1537230000
   24      Cl     -1.7718930000     6.7818300000    -2.6611390000
   25      H      -1.2790140000     7.8219500000    -0.5201150000
   26      H      -0.8005150000     7.3267720000     1.0708040000
 ----------------------------------------------------------------

    9   -3777.5011356537      2.71e-06  Convergence criterion met
 Total energy in the final basis set =    -3777.5011356537

                    Orbital Energies (a.u.)
 --------------------------------------------------------------

 Alpha MOs
 -- Occupied --
********-101.5711 -62.5023 -56.3228 -56.3189 -56.3187 -19.1332 -19.1272
-14.3470 -10.2902 -10.2812 -10.2669 -10.2653 -10.2534 -10.2268 -10.2087
-10.2083 -10.2075 -10.2067 -10.1965 -10.1961 -10.1956 -10.1955  -9.4860
 -8.7110  -7.2507  -7.2411  -7.2400  -6.5425  -6.5295  -6.5293  -2.6534
 -2.6498  -2.6494  -2.6392  -2.6392  -1.0721  -1.0632  -0.9695  -0.8994
 -0.8874  -0.8746  -0.8326  -0.7955  -0.7776  -0.7635  -0.7573  -0.6891
 -0.6672  -0.6460  -0.6236  -0.5925  -0.5743  -0.5650  -0.5412  -0.5240
 -0.5010  -0.4861  -0.4794  -0.4643  -0.4639  -0.4600  -0.4553  -0.4495
 -0.4446  -0.4321  -0.4225  -0.4218  -0.3909  -0.3811  -0.3808  -0.3687
 -0.3676  -0.3430  -0.3428  -0.3260  -0.3128  -0.2863  -0.2846  -0.2777
 -0.2716  -0.2702  -0.2364

          Ground-State Mulliken Net Atomic Charges

     Atom                 Charge (a.u.)
  ----------------------------------------
      1 C                     0.194313
      2 C                    -0.489456
      3 C                    -0.410425
      4 C                     0.023967
      5 C                     0.023043
      6 C                     0.142868
      7 C                    -1.208194
      8 C                    -0.583741
      9 C                     0.838211
     10 C                     0.315139
     11 C                     0.350400
     12 C                    -1.311183
     13 C                     0.626436
     14 C                     0.397926
     15 O                    -0.178323
     16 O                    -0.298717
     17 H                     0.194517
     18 H                     0.224490
     19 H                     0.226062
     20 H                     0.193459
     21 Br                   -0.169994
     22 H                     0.232531
     23 N                    -0.205646
     24 Cl                    0.289025
     25 H                     0.285141
     26 H                     0.298147
  ----------------------------------------
  Sum of atomic charges =     0.000000

                    Cartesian Multipole Moments
 -----------------------------------------------------------------
    Charge (ESU x 10^10)
                -0.0000
    Dipole Moment (Debye)
         X       0.2927      Y       1.6177      Z       0.1166
       Tot       1.6481
    Quadrupole Moments (Debye-Ang)
        XX    -132.5018     XY       5.2164     YY     -96.4188
        XZ      -0.3728     YZ      25.0118     ZZ    -120.4215

 Total job time:  68.39s(wall), 435.24s(cpu)
        *  Thank you very much for using Q-Chem.  Have a nice day.  *
