 Q-Chem 5.4, Q-Chem, Inc., Pleasanton, CA (2021)
 Q-Chem 5.4.0 for Intel X86 EM64T Linux

User input:
--------------------------------------------------------------
$molecule
-2 1
C                  5.0250980000     -2.3738040000      0.5781190000
C                  5.8309990000     -1.6927090000     -0.3152220000
C                  5.2310070000     -0.8948120000     -1.3212740000
C                  3.6159970000     -2.3000770000      0.5196290000
C                  3.0042320000     -1.4918630000     -0.4994010000
C                  3.8560430000     -0.8046190000     -1.4009210000
C                  2.8261880000     -3.0454260000      1.5009340000
C                  1.3818830000     -2.9025070000      1.3477910000
C                  0.7829230000     -2.0734610000      0.3014520000
C                  1.5562730000     -1.3457430000     -0.6505020000
C                  0.5506860000     -3.5874660000      2.2336250000
C                 -0.6439500000     -2.0078080000      0.2538730000
C                 -1.4551540000     -2.6726660000      1.1303880000
O                  3.3681390000     -3.7521680000      2.4006610000
O                  1.0543320000     -0.6125170000     -1.5780500000
H                  5.4475500000     -2.9939230000      1.3624000000
H                  6.9141960000     -1.7675830000     -0.2480290000
H                  5.8558390000     -0.3538130000     -2.0298200000
H                 -2.5339940000     -2.5906230000      1.0861120000
H                  3.3651260000     -0.2028260000     -2.1588460000
H                  1.0205960000     -4.2001650000      2.9940260000
H                 -1.0680430000     -1.3822130000     -0.5249360000
C                 -0.8419340000     -3.4760140000      2.1611850000
S                 -1.8271970000     -4.4053500000      3.2129110000
O                 -1.1330550000     -4.8588300000      4.4296960000
O                 -3.1784550000     -3.8306650000      3.3682610000
O                 -2.1030460000     -5.8542400000      2.3125480000
C                 -2.9882330000     -6.7861730000      2.9250530000
H                 -2.5983350000     -7.1287350000      3.8908640000
H                 -3.0588660000     -7.6392160000      2.2420010000
H                 -3.9845970000     -6.3520260000      3.0678310000
$end
$rem
MAX_SCF_CYCLES=200
BASIS  =  6-311++G(d,p)
GUI  =  2
JOB_TYPE  =  SP
METHOD  =  B3LYP
SOLVENT_METHOD = COSMO
$end
$solvent
dielectric 37.219
opticaldielectric 1.43
$end

--------------------------------------------------------------

             Standard Nuclear Orientation (Angstroms)
    I     Atom           X                Y                Z
 ----------------------------------------------------------------
    1      C       3.9094848199    -1.8065977501    -0.0451766101
    2      C       5.2331085024    -1.4268495676    -0.1686133475
    3      C       5.5540118526    -0.0490647664    -0.2552201068
    4      C       2.8615445222    -0.8608349860    -0.0030303748
    5      C       3.1834329440     0.5372343420    -0.0906569916
    6      C       4.5493752725     0.8965436774    -0.2160482291
    7      C       1.4837056909    -1.3356297176     0.1327378434
    8      C       0.4800877736    -0.2764838383     0.1620061640
    9      C       0.8331591948     1.1405293628     0.0708479820
   10      C       2.1774253274     1.5991300573    -0.0575813597
   11      C      -0.8617251630    -0.6382032398     0.2780073618
   12      C      -0.2370638928     2.0866942911     0.1148378340
   13      C      -1.5503563942     1.7285749624     0.2388539096
   14      O       1.2038842091    -2.5675474270     0.2150938463
   15      O       2.5124507231     2.8364017002    -0.1402087932
   16      H       3.6246054360    -2.8516250549     0.0246203993
   17      H       6.0209349767    -2.1764010578    -0.1992526350
   18      H       6.5929060888     0.2614428757    -0.3522569580
   19      H      -2.3418379063     2.4658021483     0.2902373319
   20      H       4.7608992915     1.9589792060    -0.2800244619
   21      H      -1.0955504721    -1.6947912241     0.3360823957
   22      H       0.0464665529     3.1324142212     0.0528076049
   23      C      -1.8742228381     0.3252836282     0.3380163554
   24      S      -3.5162822378    -0.1660576338     0.3905601595
   25      O      -3.7079064917    -1.5446098099     0.8710984054
   26      O      -4.3971128328     0.8817184560     0.9442725241
   27      O      -3.9596384574    -0.2292139028    -1.2784140712
   28      C      -5.3292805464    -0.5273768653    -1.5282078110
   29      H      -5.6002625971    -1.5126893795    -1.1308565313
   30      H      -5.4503785559    -0.5320761779    -2.6165756734
   31      H      -5.9868066051     0.2341769095    -1.0931150328
 ----------------------------------------------------------------

   11   -1352.1704982679      9.51e-06  Convergence criterion met
 Total energy in the final basis set =    -1352.1704982679
    6   -1352.4267192228      4.66e-06  Convergence criterion met
 Total energy in the final basis set =    -1352.4267192228

                    Orbital Energies (a.u.)
 --------------------------------------------------------------

 Alpha MOs
 -- Occupied --
-89.0728 -19.1527 -19.1273 -19.1254 -19.0523 -19.0318 -10.2134 -10.2074
-10.1967 -10.1868 -10.1836 -10.1677 -10.1625 -10.1599 -10.1592 -10.1590
-10.1574 -10.1568 -10.1557 -10.1553 -10.1460  -8.1339  -6.0973  -6.0964
 -6.0943  -1.1321  -1.0217  -1.0128  -0.9766  -0.9515  -0.8537  -0.8390
 -0.7838  -0.7538  -0.7378  -0.7356  -0.7064  -0.6643  -0.6437  -0.6148
 -0.5925  -0.5747  -0.5486  -0.5381  -0.5198  -0.5133  -0.4819  -0.4799
 -0.4551  -0.4526  -0.4463  -0.4415  -0.4382  -0.4221  -0.4101  -0.4022
 -0.3993  -0.3947  -0.3939  -0.3872  -0.3731  -0.3591  -0.3486  -0.3477
 -0.3401  -0.3348  -0.3313  -0.3246  -0.3228  -0.3168  -0.3126  -0.2880
 -0.2549  -0.2463  -0.2405  -0.2346  -0.2268  -0.2114  -0.1250

          Ground-State Mulliken Net Atomic Charges

     Atom                 Charge (a.u.)
  ----------------------------------------
      1 C                     0.038415
      2 C                    -0.517151
      3 C                    -0.515442
      4 C                     0.293422
      5 C                     0.366844
      6 C                     0.020450
      7 C                    -0.653651
      8 C                     0.288038
      9 C                     0.685744
     10 C                    -0.301495
     11 C                     0.131802
     12 C                    -0.174356
     13 C                    -0.514102
     14 O                    -0.579290
     15 O                    -0.681051
     16 H                     0.167178
     17 H                     0.191331
     18 H                     0.192171
     19 H                     0.234895
     20 H                     0.166763
     21 H                     0.216499
     22 H                     0.159948
     23 C                    -1.133530
     24 S                     0.338031
     25 O                    -0.295616
     26 O                    -0.322454
     27 O                    -0.161321
     28 C                    -0.164990
     29 H                     0.169566
     30 H                     0.183940
     31 H                     0.169403
  ----------------------------------------
  Sum of atomic charges =    -2.000009

                    Cartesian Multipole Moments
 -----------------------------------------------------------------
    Charge (ESU x 10^10)
                -9.6065
    Dipole Moment (Debye)
         X      -5.7890      Y      -2.1612      Z      -3.0268
       Tot       6.8808
    Quadrupole Moments (Debye-Ang)
        XX    -196.0961     XY     -15.2392     YY    -187.3103
        XZ      16.0088     YZ       4.3495     ZZ    -142.4739

 Total job time:  102.38s(wall), 783.87s(cpu)
        *  Thank you very much for using Q-Chem.  Have a nice day.  *
