 Gaussian 16, Revision A.03,
 Gaussian 16:  ES64L-G16RevA.03 25-Dec-2016

 ----------------------------------------------------------------
 #P UB3LYP/6-311++G(d,p) SCRF=(PCM,Solvent=n,n-DiMethylFormamide)
 ----------------------------------------------------------------

 -------
 Reduced
 -------
 Symbolic Z-matrix:
 Charge =  0 Multiplicity = 1

                         Standard orientation:
 ---------------------------------------------------------------------
 Center     Atomic      Atomic             Coordinates (Angstroms)
 Number     Number       Type             X           Y           Z
 ---------------------------------------------------------------------
      1          6           0       -3.787698   -2.367913   -0.014703
      2          6           0       -5.113658   -1.958023   -0.023253
      3          6           0       -5.424021   -0.594647   -0.017181
      4          6           0       -2.762469   -1.412713   -0.001190
      5          6           0       -3.072381   -0.045819    0.005036
      6          6           0       -4.410339    0.356638   -0.002249
      7          6           0       -1.361264   -1.859128    0.007606
      8          6           0       -2.010275    1.004834    0.023021
      9          6           0       -0.274333   -0.829374    0.010071
     10          6           0       -0.574262    0.566068    0.009778
     11          6           0        1.064364   -1.225863    0.007543
     12          6           0        2.108467   -0.307689    0.000607
     13          6           0        1.824380    1.042610   -0.004259
     14          6           0        0.496787    1.482238    0.001346
     15          8           0       -1.095436   -3.064439    0.009954
     16          8           0       -2.330616    2.176606    0.049071
     17          1           0       -3.523954   -3.417606   -0.018383
     18          1           0       -5.907646   -2.695383   -0.034407
     19          1           0       -6.460085   -0.276304   -0.023783
     20          1           0       -4.632349    1.416029    0.003921
     21         35           0        0.310006    3.379305   -0.009590
     22          7           0        1.469273   -2.641005    0.010260
     23         16           0        3.813022   -0.986091   -0.003682
     24          8           0        3.777093   -1.817799    1.234701
     25          8           0        3.763327   -1.834258   -1.231388
     26          8           0        4.720624    0.154152   -0.017211
     27          1           0        2.643102    1.751248   -0.011928
     28          1           0        0.621466   -3.237203    0.008695
     29          1           0        2.104442   -2.786959    0.822815
     30          1           0        2.111841   -2.786431   -0.798219
 ---------------------------------------------------------------------

 SCF Done:  E(UB3LYP) =  -3941.76838054     A.U. after   15 cycles

 The electronic state is 1-A.
 Alpha  occ. eigenvalues -- -482.85096 -89.08156 -62.50367 -56.32425 -56.32029
 Alpha  occ. eigenvalues --  -56.31970 -19.16004 -19.14474 -19.13103 -19.12289
 Alpha  occ. eigenvalues --  -19.12281 -14.43450 -10.31421 -10.30130 -10.28447
 Alpha  occ. eigenvalues --  -10.27978 -10.25366 -10.24936 -10.24564 -10.23292
 Alpha  occ. eigenvalues --  -10.22171 -10.22111 -10.20913 -10.20829 -10.20656
 Alpha  occ. eigenvalues --  -10.20631  -8.71341  -8.14039  -6.54544  -6.53227
 Alpha  occ. eigenvalues --   -6.53055  -6.10303  -6.10276  -6.10254  -2.65628
 Alpha  occ. eigenvalues --   -2.65284  -2.65154  -2.64104  -2.64101  -1.14965
 Alpha  occ. eigenvalues --   -1.09507  -1.08369  -1.03001  -1.01165  -1.00411
 Alpha  occ. eigenvalues --   -0.92539  -0.90023  -0.84795  -0.83785  -0.79593
 Alpha  occ. eigenvalues --   -0.79056  -0.77065  -0.72089  -0.69864  -0.67833
 Alpha  occ. eigenvalues --   -0.64408  -0.62507  -0.61515  -0.60657  -0.58019
 Alpha  occ. eigenvalues --   -0.57348  -0.56628  -0.53644  -0.52891  -0.52739
 Alpha  occ. eigenvalues --   -0.50343  -0.49558  -0.48922  -0.48162  -0.47688
 Alpha  occ. eigenvalues --   -0.47514  -0.47013  -0.46128  -0.45931  -0.44530
 Alpha  occ. eigenvalues --   -0.44112  -0.42192  -0.41573  -0.39482  -0.38868
 Alpha  occ. eigenvalues --   -0.37985  -0.36952  -0.36698  -0.35370  -0.34024
 Alpha  occ. eigenvalues --   -0.33922  -0.32857  -0.32208  -0.31085  -0.30644
 Alpha  occ. eigenvalues --   -0.29273  -0.29200  -0.28837  -0.28217  -0.27668
 Alpha virt. eigenvalues --   -0.14012  -0.09967  -0.06050  -0.04885  -0.03429
 Alpha virt. eigenvalues --   -0.01435  -0.00255   0.00436   0.00942   0.01439
 Alpha virt. eigenvalues --    0.01658   0.01762   0.02981   0.03002   0.03565

  Beta  occ. eigenvalues -- -482.85096 -89.08156 -62.50367 -56.32425 -56.32029
  Beta  occ. eigenvalues --  -56.31970 -19.16004 -19.14474 -19.13103 -19.12289
  Beta  occ. eigenvalues --  -19.12281 -14.43450 -10.31421 -10.30130 -10.28447
  Beta  occ. eigenvalues --  -10.27978 -10.25366 -10.24936 -10.24564 -10.23292
  Beta  occ. eigenvalues --  -10.22171 -10.22111 -10.20913 -10.20829 -10.20656
  Beta  occ. eigenvalues --  -10.20631  -8.71341  -8.14039  -6.54544  -6.53227
  Beta  occ. eigenvalues --   -6.53055  -6.10303  -6.10276  -6.10254  -2.65628
  Beta  occ. eigenvalues --   -2.65284  -2.65154  -2.64104  -2.64101  -1.14965
  Beta  occ. eigenvalues --   -1.09507  -1.08369  -1.03001  -1.01165  -1.00411
  Beta  occ. eigenvalues --   -0.92539  -0.90023  -0.84795  -0.83785  -0.79593
  Beta  occ. eigenvalues --   -0.79056  -0.77065  -0.72089  -0.69864  -0.67833
  Beta  occ. eigenvalues --   -0.64408  -0.62507  -0.61515  -0.60657  -0.58019
  Beta  occ. eigenvalues --   -0.57348  -0.56628  -0.53644  -0.52891  -0.52739
  Beta  occ. eigenvalues --   -0.50343  -0.49558  -0.48922  -0.48162  -0.47688
  Beta  occ. eigenvalues --   -0.47514  -0.47013  -0.46128  -0.45931  -0.44530
  Beta  occ. eigenvalues --   -0.44112  -0.42192  -0.41573  -0.39482  -0.38868
  Beta  occ. eigenvalues --   -0.37985  -0.36952  -0.36698  -0.35370  -0.34024
  Beta  occ. eigenvalues --   -0.33922  -0.32857  -0.32208  -0.31085  -0.30644
  Beta  occ. eigenvalues --   -0.29273  -0.29200  -0.28837  -0.28217  -0.27668
  Beta virt. eigenvalues --   -0.14012  -0.09967  -0.06050  -0.04885  -0.03429
  Beta virt. eigenvalues --   -0.01435  -0.00255   0.00436   0.00942   0.01439
  Beta virt. eigenvalues --    0.01658   0.01762   0.02981   0.03002   0.03565

 Mulliken charges and spin densities:
               1          2
     1  C    0.137381   0.000000
     2  C   -0.510816  -0.000000
     3  C   -0.442373   0.000000
     4  C    0.071585   0.000000
     5  C    0.085636  -0.000000
     6  C    0.132595   0.000000
     7  C   -0.423649  -0.000000
     8  C   -0.783826  -0.000000
     9  C    0.510514   0.000000
    10  C    0.803305  -0.000000
    11  C   -0.228276  -0.000000
    12  C   -0.487380   0.000000
    13  C   -0.218170  -0.000000
    14  C    0.411735   0.000000
    15  O   -0.254634   0.000000
    16  O   -0.165625  -0.000000
    17  H    0.194191  -0.000000
    18  H    0.214946  -0.000000
    19  H    0.216885  -0.000000
    20  H    0.196275   0.000000
    21  Br  -0.103425  -0.000000
    22  N   -0.393553  -0.000000
    23  S    0.345355  -0.000000
    24  O   -0.384189  -0.000000
    25  O   -0.385617   0.000000
    26  O   -0.058893   0.000000
    27  H    0.306427  -0.000000
    28  H    0.419744  -0.000000
    29  H    0.396497   0.000000
    30  H    0.397356   0.000000
 Sum of Mulliken charges =  -0.00000   0.00000

 Dipole moment (field-independent basis, Debye):
    X=            -14.6462    Y=             -4.4515    Z=             -0.0316  Tot=             15.3078
 Quadrupole moment (field-independent basis, Debye-Ang):
   XX=           -173.2736   YY=           -138.6015   ZZ=           -151.8896
   XY=             18.1079   XZ=              0.4488   YZ=             -0.2284

 Normal termination of Gaussian 16 at Wed Jan 17 10:39:57 2024.
