 Gaussian 16, Revision A.03,
 Gaussian 16:  ES64L-G16RevA.03 25-Dec-2016

 --------------------------------------
 #P UB3LYP/6-311++G(d,p) nosym opt freq
 --------------------------------------

 --------
 Oxidized
 --------
 Symbolic Z-matrix:
 Charge =  0 Multiplicity = 1

 SCF Done:  E(UB3LYP) =  -3941.51718852     A.U. after   26 cycles
 SCF Done:  E(UB3LYP) =  -3941.59731921     A.U. after   17 cycles
 SCF Done:  E(UB3LYP) =  -3941.68053595     A.U. after   16 cycles
 SCF Done:  E(UB3LYP) =  -3941.70013615     A.U. after   15 cycles
 SCF Done:  E(UB3LYP) =  -3941.71922249     A.U. after   16 cycles
 SCF Done:  E(UB3LYP) =  -3941.72685791     A.U. after   16 cycles
 SCF Done:  E(UB3LYP) =  -3941.72859877     A.U. after   15 cycles
 SCF Done:  E(UB3LYP) =  -3941.72988878     A.U. after   15 cycles
 SCF Done:  E(UB3LYP) =  -3941.73429096     A.U. after   14 cycles
 SCF Done:  E(UB3LYP) =  -3941.73546387     A.U. after   14 cycles
 SCF Done:  E(UB3LYP) =  -3941.73630256     A.U. after   12 cycles
 SCF Done:  E(UB3LYP) =  -3941.73630330     A.U. after   12 cycles
 SCF Done:  E(UB3LYP) =  -3941.73630420     A.U. after   12 cycles
 SCF Done:  E(UB3LYP) =  -3941.73630480     A.U. after   12 cycles
 SCF Done:  E(UB3LYP) =  -3941.73630523     A.U. after   12 cycles
 SCF Done:  E(UB3LYP) =  -3941.73630532     A.U. after   10 cycles
 SCF Done:  E(UB3LYP) =  -3941.73630534     A.U. after   10 cycles
 SCF Done:  E(UB3LYP) =  -3941.73630535     A.U. after    8 cycles
 SCF Done:  E(UB3LYP) =  -3941.73630535     A.U. after    8 cycles
 Optimization completed.
    -- Stationary point found.
 Normal termination of Gaussian 16 at Thu Jan  4 01:21:50 2024.

 ----------------------------------------------------------------------
 #P Geom=AllCheck Guess=TCheck SCRF=Check GenChk UB3LYP/6-311++G(d,p) F
 req
 ----------------------------------------------------------------------

 Structure from the checkpoint file:  "163-new.chk"
 --------
 Oxidized
 --------
 Charge =  0 Multiplicity = 1

                          Input orientation:
 ---------------------------------------------------------------------
 Center     Atomic      Atomic             Coordinates (Angstroms)
 Number     Number       Type             X           Y           Z
 ---------------------------------------------------------------------
      1          6           0       -1.850542    1.995640   -5.136359
      2          6           0       -1.818783    0.662994   -5.522752
      3          6           0       -1.439544   -0.321995   -4.605620
      4          6           0       -1.503064    2.350356   -3.825970
      5          6           0       -1.122641    1.363892   -2.905833
      6          6           0       -1.092512    0.025258   -3.304966
      7          6           0       -1.540664    3.765653   -3.428152
      8          6           0       -0.741304    1.699312   -1.500722
      9          6           0       -1.178711    4.131359   -2.022070
     10          6           0       -0.795734    3.137395   -1.072027
     11          6           0       -1.216464    5.466379   -1.615110
     12          6           0       -0.898065    5.854424   -0.318466
     13          6           0       -0.531498    4.897276    0.605403
     14          6           0       -0.477760    3.548978    0.237964
     15          8           0       -1.869060    4.630097   -4.245671
     16          8           0       -0.398591    0.809986   -0.747068
     17          1           0       -2.140120    2.774934   -5.829378
     18          1           0       -2.087857    0.386937   -6.535487
     19          1           0       -1.415209   -1.362247   -4.909097
     20          1           0       -0.795318   -0.723868   -2.582386
     21         35           0        0.045780    2.382173    1.651592
     22          7           0       -1.596622    6.559260   -2.524877
     23         16           0       -0.997015    7.646465    0.061733
     24          8           0       -0.054083    8.192535   -0.957732
     25          8           0       -2.417329    7.922871   -0.306269
     26          8           0       -0.629137    7.801059    1.463463
     27          1           0       -0.287219    5.207344    1.613727
     28          1           0       -1.819137    6.163974   -3.456792
     29          1           0       -0.824430    7.258318   -2.519938
     30          1           0       -2.373637    7.088842   -2.073799
 ---------------------------------------------------------------------

 SCF Done:  E(UB3LYP) =  -3941.73630535     A.U. after    1 cycles

 Alpha  occ. eigenvalues -- -482.85525 -89.06173 -62.50794 -56.32856 -56.32457
 Alpha  occ. eigenvalues --  -56.32392 -19.17946 -19.15555 -19.10581 -19.10369
 Alpha  occ. eigenvalues --  -19.10354 -14.45234 -10.33310 -10.31224 -10.29518
 Alpha  occ. eigenvalues --  -10.28859 -10.26706 -10.25979 -10.24814 -10.24249
 Alpha  occ. eigenvalues --  -10.24120 -10.23869 -10.23204 -10.23180 -10.23036
 Alpha  occ. eigenvalues --  -10.22725  -8.71766  -8.12039  -6.54983  -6.53653
 Alpha  occ. eigenvalues --   -6.53463  -6.08304  -6.08270  -6.08264  -2.66065
 Alpha  occ. eigenvalues --   -2.65721  -2.65577  -2.64516  -2.64513  -1.12849
 Alpha  occ. eigenvalues --   -1.11508  -1.09387  -1.03972  -0.99502  -0.98374
 Alpha  occ. eigenvalues --   -0.93704  -0.92012  -0.86029  -0.84633  -0.81398
 Alpha  occ. eigenvalues --   -0.81112  -0.78029  -0.73163  -0.71214  -0.69526
 Alpha  occ. eigenvalues --   -0.65521  -0.63717  -0.62596  -0.62020  -0.59863
 Alpha  occ. eigenvalues --   -0.58927  -0.57475  -0.54976  -0.54106  -0.52625
 Alpha  occ. eigenvalues --   -0.51799  -0.50808  -0.49538  -0.49111  -0.48921
 Alpha  occ. eigenvalues --   -0.48277  -0.47215  -0.46712  -0.45720  -0.45648
 Alpha  occ. eigenvalues --   -0.45016  -0.43339  -0.42250  -0.41714  -0.40621
 Alpha  occ. eigenvalues --   -0.40156  -0.36015  -0.34890  -0.34253  -0.33682
 Alpha  occ. eigenvalues --   -0.33527  -0.32965  -0.31679  -0.31487  -0.30937
 Alpha  occ. eigenvalues --   -0.30389  -0.29677  -0.29172  -0.28358  -0.26709
 Alpha virt. eigenvalues --   -0.15643  -0.11283  -0.07537  -0.06606  -0.03979
 Alpha virt. eigenvalues --   -0.03183  -0.02245  -0.00589  -0.00530  -0.00046
 Alpha virt. eigenvalues --    0.00040   0.01014   0.01540   0.01782   0.03205

  Beta  occ. eigenvalues -- -482.85525 -89.06173 -62.50794 -56.32856 -56.32457
  Beta  occ. eigenvalues --  -56.32392 -19.17946 -19.15555 -19.10581 -19.10369
  Beta  occ. eigenvalues --  -19.10354 -14.45234 -10.33310 -10.31224 -10.29518
  Beta  occ. eigenvalues --  -10.28859 -10.26706 -10.25979 -10.24814 -10.24249
  Beta  occ. eigenvalues --  -10.24120 -10.23869 -10.23204 -10.23180 -10.23036
  Beta  occ. eigenvalues --  -10.22725  -8.71766  -8.12039  -6.54983  -6.53653
  Beta  occ. eigenvalues --   -6.53463  -6.08304  -6.08270  -6.08264  -2.66065
  Beta  occ. eigenvalues --   -2.65721  -2.65577  -2.64516  -2.64513  -1.12849
  Beta  occ. eigenvalues --   -1.11508  -1.09387  -1.03972  -0.99502  -0.98374
  Beta  occ. eigenvalues --   -0.93704  -0.92012  -0.86029  -0.84633  -0.81398
  Beta  occ. eigenvalues --   -0.81112  -0.78029  -0.73163  -0.71214  -0.69526
  Beta  occ. eigenvalues --   -0.65521  -0.63717  -0.62596  -0.62020  -0.59863
  Beta  occ. eigenvalues --   -0.58927  -0.57475  -0.54976  -0.54106  -0.52625
  Beta  occ. eigenvalues --   -0.51799  -0.50808  -0.49538  -0.49111  -0.48921
  Beta  occ. eigenvalues --   -0.48277  -0.47215  -0.46712  -0.45720  -0.45648
  Beta  occ. eigenvalues --   -0.45016  -0.43339  -0.42250  -0.41714  -0.40621
  Beta  occ. eigenvalues --   -0.40156  -0.36015  -0.34890  -0.34253  -0.33682
  Beta  occ. eigenvalues --   -0.33527  -0.32965  -0.31679  -0.31487  -0.30937
  Beta  occ. eigenvalues --   -0.30389  -0.29677  -0.29172  -0.28358  -0.26709
  Beta virt. eigenvalues --   -0.15643  -0.11283  -0.07537  -0.06606  -0.03979
  Beta virt. eigenvalues --   -0.03183  -0.02245  -0.00589  -0.00530  -0.00046
  Beta virt. eigenvalues --    0.00040   0.01014   0.01540   0.01782   0.03205

 Mulliken charges and spin densities:
               1          2
     1  C    0.109069   0.000000
     2  C   -0.453719  -0.000000
     3  C   -0.394867  -0.000000
     4  C    0.107772   0.000000
     5  C    0.137236  -0.000000
     6  C    0.111780   0.000000
     7  C   -0.465288   0.000000
     8  C   -0.825574  -0.000000
     9  C    0.454599  -0.000000
    10  C    0.733764   0.000000
    11  C   -0.255076   0.000000
    12  C   -0.449651  -0.000000
    13  C   -0.234791   0.000000
    14  C    0.388423  -0.000000
    15  O   -0.243928   0.000000
    16  O   -0.109737   0.000000
    17  H    0.187087   0.000000
    18  H    0.187536  -0.000000
    19  H    0.190569   0.000000
    20  H    0.198760   0.000000
    21  Br  -0.079729   0.000000
    22  N   -0.417032  -0.000000
    23  S    0.295431  -0.000000
    24  O   -0.325706  -0.000000
    25  O   -0.327046  -0.000000
    26  O    0.026932   0.000000
    27  H    0.308921   0.000000
    28  H    0.388274   0.000000
    29  H    0.377566  -0.000000
    30  H    0.378424  -0.000000
 Sum of Mulliken charges =  -0.00000  -0.00000

 Dipole moment (field-independent basis, Debye):
    X=             -1.5294    Y=             -8.3738    Z=             -8.6069  Tot=             12.1053
 Quadrupole moment (field-independent basis, Debye-Ang):
   XX=           -147.1930   YY=           -236.9661   ZZ=           -114.3429
   XY=              2.5954   XZ=             15.3410   YZ=            -30.2627

  Exact polarizability: 131.310 -10.742 308.118  42.191  37.380 279.915
 Approx polarizability: 227.310 -32.728 483.620  74.833  -2.549 461.617

                      1                      2                      3
                      A                      A                      A
 Frequencies --      5.3496                29.9963                35.7770
 Red. masses --      9.9254                 8.4195                10.1143
 Frc consts  --      0.0002                 0.0045                 0.0076
 IR Inten    --      0.6167                 0.1380                 3.6335

                      4                      5                      6
                      A                      A                      A
 Frequencies --     84.6246               106.4645               126.7291
 Red. masses --     11.0990                 4.3413                14.5508
 Frc consts  --      0.0468                 0.0290                 0.1377
 IR Inten    --      7.1466                 0.1157                 6.5333

                      7                      8                      9
                      A                      A                      A
 Frequencies --    139.0989               146.2220               168.3849
 Red. masses --     12.7398                 4.5982                 7.4122
 Frc consts  --      0.1452                 0.0579                 0.1238
 IR Inten    --      0.1591                 6.5716                 0.9380

                     10                     11                     12
                      A                      A                      A
 Frequencies --    216.3782               225.1048               242.0392
 Red. masses --     12.5319                 7.7807                 9.9553
 Frc consts  --      0.3457                 0.2323                 0.3436
 IR Inten    --      5.4979                 0.1610                 0.4068

                     13                     14                     15
                      A                      A                      A
 Frequencies --    248.1377               264.5149               327.4628
 Red. masses --     13.2355                 4.0477                 8.7223
 Frc consts  --      0.4801                 0.1669                 0.5511
 IR Inten    --      6.6213                 0.6173                13.6434

                     16                     17                     18
                      A                      A                      A
 Frequencies --    359.4485               362.6100               381.1377
 Red. masses --      4.3086                 1.2523                 6.3100
 Frc consts  --      0.3280                 0.0970                 0.5401
 IR Inten    --     29.3354                 7.8751                 1.7454

                     19                     20                     21
                      A                      A                      A
 Frequencies --    395.6989               416.6772               423.5763
 Red. masses --      7.5358                 8.3050                 3.4700
 Frc consts  --      0.6952                 0.8496                 0.3668
 IR Inten    --     17.2894                 8.4140                 0.2024

                     22                     23                     24
                      A                      A                      A
 Frequencies --    443.1148               451.7115               475.8994
 Red. masses --      5.7633                 9.4654                 9.0260
 Frc consts  --      0.6667                 1.1379                 1.2044
 IR Inten    --      0.1506                85.4418                 1.5885

                     25                     26                     27
                      A                      A                      A
 Frequencies --    482.8848               508.3548               514.7022
 Red. masses --      6.8214                 7.3764                 6.1758
 Frc consts  --      0.9372                 1.1231                 0.9639
 IR Inten    --      4.9335                 3.7659                24.6699

                     28                     29                     30
                      A                      A                      A
 Frequencies --    526.1504               590.2241               607.9737
 Red. masses --     12.3532                 8.4236                14.2285
 Frc consts  --      2.0149                 1.7289                 3.0987
 IR Inten    --     11.0486                 0.0822               213.7056

                     31                     32                     33
                      A                      A                      A
 Frequencies --    623.4419               652.1614               667.8462
 Red. masses --      6.2198                 6.2344                 6.3465
 Frc consts  --      1.4244                 1.5623                 1.6678
 IR Inten    --     15.0397                 2.0830                45.7513

                     34                     35                     36
                      A                      A                      A
 Frequencies --    703.9834               723.0706               727.9936
 Red. masses --      6.0226                 9.3775                 7.5478
 Frc consts  --      1.7586                 2.8887                 2.3568
 IR Inten    --      0.0238                30.8831                25.8526

                     37                     38                     39
                      A                      A                      A
 Frequencies --    738.4319               790.0676               814.1469
 Red. masses --      2.2826                 6.1113                 7.5543
 Frc consts  --      0.7333                 2.2476                 2.9502
 IR Inten    --     55.9588                 0.1312                29.0812

                     40                     41                     42
                      A                      A                      A
 Frequencies --    814.7459               884.0129               918.6237
 Red. masses --      2.0175                 8.1836                 1.3669
 Frc consts  --      0.7891                 3.7680                 0.6796
 IR Inten    --     15.1591                29.2659                 0.0107

                     43                     44                     45
                      A                      A                      A
 Frequencies --    930.3497               948.5763               981.6281
 Red. masses --      1.3200                 9.3237                10.6088
 Frc consts  --      0.6732                 4.9429                 6.0230
 IR Inten    --      7.7983                29.8166               223.1949

                     46                     47                     48
                      A                      A                      A
 Frequencies --   1007.5955              1010.1080              1025.0987
 Red. masses --      1.3786                 5.8052                 1.3403
 Frc consts  --      0.8246                 3.4898                 0.8298
 IR Inten    --      1.3210                63.0732                 0.1269

                     49                     50                     51
                      A                      A                      A
 Frequencies --   1061.8540              1113.9659              1117.7200
 Red. masses --      1.9546                 9.8914                 2.2356
 Frc consts  --      1.2985                 7.2319                 1.6456
 IR Inten    --      8.7368               219.5530                10.0674

                     52                     53                     54
                      A                      A                      A
 Frequencies --   1128.8209              1166.4496              1173.0302
 Red. masses --      1.9253                 3.5823                 1.3352
 Frc consts  --      1.4454                 2.8717                 1.0824
 IR Inten    --    148.8502                48.8272                51.6035

                     55                     56                     57
                      A                      A                      A
 Frequencies --   1185.1640              1188.5118              1226.7775
 Red. masses --      3.1978                 1.2072                 2.2372
 Frc consts  --      2.6464                 1.0047                 1.9837
 IR Inten    --     30.5364                15.4472                22.9071

                     58                     59                     60
                      A                      A                      A
 Frequencies --   1253.7391              1265.0781              1285.7088
 Red. masses --      2.0837                 8.7309                 3.0867
 Frc consts  --      1.9298                 8.2327                 3.0062
 IR Inten    --     77.6163               211.0335               354.9891

                     61                     62                     63
                      A                      A                      A
 Frequencies --   1322.6993              1340.6771              1368.6946
 Red. masses --      2.9100                 8.0328                 7.7795
 Frc consts  --      2.9996                 8.5068                 8.5865
 IR Inten    --    229.9723                57.4681                 1.2153

                     64                     65                     66
                      A                      A                      A
 Frequencies --   1402.2835              1429.0356              1477.7920
 Red. masses --      7.2672                 3.4677                 1.4338
 Frc consts  --      8.4195                 4.1724                 1.8448
 IR Inten    --    221.8673                 0.0743               214.3259

                     67                     68                     69
                      A                      A                      A
 Frequencies --   1484.2641              1511.7730              1573.6361
 Red. masses --      1.8954                 2.5984                 7.9665
 Frc consts  --      2.4602                 3.4989                11.6232
 IR Inten    --     68.5183                 6.7978                20.0448

                     70                     71                     72
                      A                      A                      A
 Frequencies --   1581.5335              1586.8961              1617.1546
 Red. masses --      1.0388                 3.4201                 6.7987
 Frc consts  --      1.5308                 5.0744                10.4755
 IR Inten    --     14.4099                53.1800                22.0322

                     73                     74                     75
                      A                      A                      A
 Frequencies --   1625.2667              1664.9032              1677.4101
 Red. masses --      5.8721                 1.2689                 8.7246
 Frc consts  --      9.1390                 2.0723                14.4635
 IR Inten    --     75.2766                57.2828               103.1201

                     76                     77                     78
                      A                      A                      A
 Frequencies --   1734.9429              3147.5521              3165.0839
 Red. masses --     12.4997                 1.0730                 1.0486
 Frc consts  --     22.1677                 6.2630                 6.1892
 IR Inten    --    157.4171               117.1925                54.3149

                     79                     80                     81
                      A                      A                      A
 Frequencies --   3177.2817              3191.0113              3204.8346
 Red. masses --      1.0877                 1.0924                 1.0925
 Frc consts  --      6.4696                 6.5536                 6.6111
 IR Inten    --      1.9839                 9.8233                 4.3908

                     82                     83                     84
                      A                      A                      A
 Frequencies --   3207.5908              3209.1819              3209.8620
 Red. masses --      1.0927                 1.1016                 1.0949
 Frc consts  --      6.6236                 6.6847                 6.6467
 IR Inten    --      0.9305               762.8435                 1.6990

 - Thermochemistry -
 -------------------
 Temperature   298.150 Kelvin.  Pressure   1.00000 Atm.
 Atom     1 has atomic number  6 and mass  12.00000

 Molecular mass:   380.93066 amu.
 Principal axes and moments of inertia in atomic units:
                           1         2         3
     Eigenvalues --  6164.26742********************
           X            0.05721   0.28733   0.95612
           Y            0.84240  -0.52787   0.10823
           Z            0.53580   0.79925  -0.27225
 This molecule is an asymmetric top.
 Rotational symmetry number  1.
 Warning -- assumption of classical behavior for rotation
           may cause significant error
 Rotational temperatures (Kelvin)      0.01405     0.00793     0.00518
 Rotational constants (GHZ):           0.29277     0.16517     0.10785
 Zero-point vibrational energy     528429.5 (Joules/Mol)
                                  126.29768 (Kcal/Mol)
 Warning -- explicit consideration of  30 degrees of freedom as
           vibrations may cause significant error
 Vibrational temperatures:      7.70    43.16    51.48   121.76   153.18
          (Kelvin)            182.33   200.13   210.38   242.27   311.32
                              323.88   348.24   357.01   380.58   471.15
                              517.17   521.71   548.37   569.32   599.51
                              609.43   637.54   649.91   684.71   694.76
                              731.41   740.54   757.01   849.20   874.74
                              896.99   938.31   960.88  1012.88  1040.34
                             1047.42  1062.44  1136.73  1171.38  1172.24
                             1271.90  1321.69  1338.57  1364.79  1412.34
                             1449.71  1453.32  1474.89  1527.77  1602.75
                             1608.15  1624.12  1678.26  1687.73  1705.19
                             1710.00  1765.06  1803.85  1820.17  1849.85
                             1903.07  1928.94  1969.25  2017.57  2056.06
                             2126.21  2135.53  2175.10  2264.11  2275.47
                             2283.19  2326.72  2338.40  2395.42  2413.42
                             2496.20  4528.63  4553.85  4571.40  4591.15
                             4611.04  4615.01  4617.30  4618.28

 Zero-point correction=                           0.201268 (Hartree/Particle)
 Thermal correction to Energy=                    0.219362
 Thermal correction to Enthalpy=                  0.220306
 Thermal correction to Gibbs Free Energy=         0.151700
 Sum of electronic and zero-point Energies=          -3941.535037
 Sum of electronic and thermal Energies=             -3941.516944
 Sum of electronic and thermal Enthalpies=           -3941.515999
 Sum of electronic and thermal Free Energies=        -3941.584605

                     E (Thermal)             CV                S
                      KCal/Mol        Cal/Mol-Kelvin    Cal/Mol-Kelvin
 Total                  137.652             69.048            144.393
 Electronic               0.000              0.000              0.000
 Translational            0.889              2.981             43.705
 Rotational               0.889              2.981             35.376
 Vibrational            135.874             63.087             65.313
 Vibration     1          0.593              1.987              9.254
 Vibration     2          0.594              1.984              5.830
 Vibration     3          0.594              1.982              5.480
 Vibration     4          0.601              1.960              3.781
 Vibration     5          0.605              1.944              3.332
 Vibration     6          0.611              1.926              2.995
 Vibration     7          0.615              1.914              2.816
 Vibration     8          0.617              1.907              2.721
 Vibration     9          0.625              1.881              2.453
 Vibration    10          0.645              1.816              1.989
 Vibration    11          0.650              1.803              1.918
 Vibration    12          0.658              1.776              1.788
 Vibration    13          0.662              1.766              1.744
 Vibration    14          0.671              1.738              1.632
 Vibration    15          0.711              1.621              1.273
 Vibration    16          0.734              1.556              1.124
 Vibration    17          0.736              1.549              1.111
 Vibration    18          0.751              1.510              1.035
 Vibration    19          0.762              1.479              0.979
 Vibration    20          0.780              1.434              0.903
 Vibration    21          0.786              1.419              0.880
 Vibration    22          0.803              1.376              0.817
 Vibration    23          0.810              1.357              0.791
 Vibration    24          0.833              1.304              0.721
 Vibration    25          0.839              1.288              0.702
 Vibration    26          0.864              1.231              0.638
 Vibration    27          0.870              1.217              0.622
 Vibration    28          0.881              1.192              0.596
 Vibration    29          0.948              1.053              0.467
 Vibration    30          0.967              1.015              0.436

 Optimization completed.
    -- Stationary point found.
 Normal termination of Gaussian 16 at Thu Jan  4 02:16:18 2024.
