 Q-Chem 5.4, Q-Chem, Inc., Pleasanton, CA (2021)
 Q-Chem 5.4.0 for Intel X86 EM64T Linux

User input:
--------------------------------------------------------------
$molecule
0 1
C                 -1.4185360000      2.2673840000     -3.9853330000
C                 -1.3982100000      0.8854210000     -4.1054570000
C                 -1.1382650000      0.0872800000     -2.9847600000
C                 -1.1793440000      2.8704250000     -2.7430140000
C                 -0.9193200000      2.0718520000     -1.6217100000
C                 -0.9005100000      0.6764940000     -1.7514860000
C                 -1.2084570000      4.3489310000     -2.6348980000
C                 -0.6599250000      2.6822640000     -0.2955790000
C                 -0.9556620000      4.9629990000     -1.3308450000
C                 -0.6849040000      4.1405670000     -0.1765720000
C                 -0.9808380000      6.3827130000     -1.2127970000
C                 -0.7268910000      6.9402170000      0.0733280000
C                 -0.4745810000      6.1623090000      1.1657030000
C                 -0.4376340000      4.7401100000      1.0920860000
O                 -1.4492000000      5.0151680000     -3.6588390000
O                 -0.4285100000      1.9307130000      0.6697690000
H                 -1.6175320000      2.9056560000     -4.8366980000
H                 -1.5838040000      0.4231080000     -5.0686170000
H                 -1.1227740000     -0.9927380000     -3.0805550000
H                 -0.6967490000      0.0810760000     -0.8707080000
H                 -0.2948780000      6.6495010000      2.1143630000
H                 -0.7353620000      8.0145580000      0.1971130000
N                 -1.2526140000      7.1940960000     -2.2704210000
N                 -0.1568410000      4.0029990000      2.2005120000
H                 -1.4020000000      6.6927330000     -3.1453010000
H                 -0.1723940000      2.9965380000      2.0396120000
C                  0.0397100000      4.5045790000      3.5574880000
C                  0.8361790000      3.4620520000      4.3473190000
C                 -1.2925610000      4.8365330000      4.2504040000
C                 -1.2324050000      8.6539330000     -2.2804020000
C                  0.1984220000      9.2123430000     -2.3589230000
C                 -2.0878340000      9.1409210000     -3.4534910000
H                  0.6463030000      5.4161070000      3.5066730000
H                  1.0120230000      3.8096030000      5.3679340000
H                  1.8022280000      3.2679020000      3.8761280000
H                  0.2866330000      2.5171860000      4.4041850000
H                 -1.8754370000      5.5574550000      3.6725990000
H                 -1.1158150000      5.2588210000      5.2441400000
H                 -1.8960800000      3.9315660000      4.3635680000
H                 -1.7003190000      9.0144110000     -1.3570680000
H                  0.8182340000      8.8417490000     -1.5392660000
H                  0.1889910000     10.3054220000     -2.3123490000
H                  0.6708190000      8.9121270000     -3.2984520000
H                 -1.6801330000      8.7831420000     -4.4041640000
H                 -2.1047620000     10.2327280000     -3.4856130000
H                 -3.1152210000      8.7809190000     -3.3649480000
$end
$rem
MAX_SCF_CYCLES=200
BASIS  =  6-311++G(d,p)
GUI  =  2
JOB_TYPE  =  SP
METHOD  =  B3LYP
SOLVENT_METHOD = PCM
$end
$pcm
theory = CPCM
$end
$solvent
dielectric 37.219
opticaldielectric 1.43
$end

--------------------------------------------------------------

             Standard Nuclear Orientation (Angstroms)
    I     Atom           X                Y                Z
 ----------------------------------------------------------------
    1      C      -1.4185360000     2.2673840000    -3.9853330000
    2      C      -1.3982100000     0.8854210000    -4.1054570000
    3      C      -1.1382650000     0.0872800000    -2.9847600000
    4      C      -1.1793440000     2.8704250000    -2.7430140000
    5      C      -0.9193200000     2.0718520000    -1.6217100000
    6      C      -0.9005100000     0.6764940000    -1.7514860000
    7      C      -1.2084570000     4.3489310000    -2.6348980000
    8      C      -0.6599250000     2.6822640000    -0.2955790000
    9      C      -0.9556620000     4.9629990000    -1.3308450000
   10      C      -0.6849040000     4.1405670000    -0.1765720000
   11      C      -0.9808380000     6.3827130000    -1.2127970000
   12      C      -0.7268910000     6.9402170000     0.0733280000
   13      C      -0.4745810000     6.1623090000     1.1657030000
   14      C      -0.4376340000     4.7401100000     1.0920860000
   15      O      -1.4492000000     5.0151680000    -3.6588390000
   16      O      -0.4285100000     1.9307130000     0.6697690000
   17      H      -1.6175320000     2.9056560000    -4.8366980000
   18      H      -1.5838040000     0.4231080000    -5.0686170000
   19      H      -1.1227740000    -0.9927380000    -3.0805550000
   20      H      -0.6967490000     0.0810760000    -0.8707080000
   21      H      -0.2948780000     6.6495010000     2.1143630000
   22      H      -0.7353620000     8.0145580000     0.1971130000
   23      N      -1.2526140000     7.1940960000    -2.2704210000
   24      N      -0.1568410000     4.0029990000     2.2005120000
   25      H      -1.4020000000     6.6927330000    -3.1453010000
   26      H      -0.1723940000     2.9965380000     2.0396120000
   27      C       0.0397100000     4.5045790000     3.5574880000
   28      C       0.8361790000     3.4620520000     4.3473190000
   29      C      -1.2925610000     4.8365330000     4.2504040000
   30      C      -1.2324050000     8.6539330000    -2.2804020000
   31      C       0.1984220000     9.2123430000    -2.3589230000
   32      C      -2.0878340000     9.1409210000    -3.4534910000
   33      H       0.6463030000     5.4161070000     3.5066730000
   34      H       1.0120230000     3.8096030000     5.3679340000
   35      H       1.8022280000     3.2679020000     3.8761280000
   36      H       0.2866330000     2.5171860000     4.4041850000
   37      H      -1.8754370000     5.5574550000     3.6725990000
   38      H      -1.1158150000     5.2588210000     5.2441400000
   39      H      -1.8960800000     3.9315660000     4.3635680000
   40      H      -1.7003190000     9.0144110000    -1.3570680000
   41      H       0.8182340000     8.8417490000    -1.5392660000
   42      H       0.1889910000    10.3054220000    -2.3123490000
   43      H       0.6708190000     8.9121270000    -3.2984520000
   44      H      -1.6801330000     8.7831420000    -4.4041640000
   45      H      -2.1047620000    10.2327280000    -3.4856130000
   46      H      -3.1152210000     8.7809190000    -3.3649480000
 ----------------------------------------------------------------

    8   -1035.6697983269      9.24e-06  Convergence criterion met
 Total energy in the final basis set =    -1035.6697983269

                    Orbital Energies (a.u.)
 --------------------------------------------------------------

 Alpha MOs
 -- Occupied --
-19.1095 -19.1094 -14.3318 -14.3318 -10.2617 -10.2617 -10.2379 -10.2379
-10.2146 -10.2146 -10.1947 -10.1942 -10.1935 -10.1928 -10.1921 -10.1918
-10.1879 -10.1874 -10.1858 -10.1857 -10.1608 -10.1608 -10.1589 -10.1588
 -1.0442  -1.0420  -0.9540  -0.9480  -0.8792  -0.8575  -0.8031  -0.7980
 -0.7782  -0.7673  -0.7581  -0.7235  -0.6926  -0.6910  -0.6779  -0.6584
 -0.6481  -0.6161  -0.6017  -0.5991  -0.5862  -0.5470  -0.5438  -0.5291
 -0.5082  -0.4996  -0.4864  -0.4815  -0.4718  -0.4580  -0.4537  -0.4506
 -0.4454  -0.4410  -0.4381  -0.4351  -0.4246  -0.4197  -0.4186  -0.4136
 -0.4027  -0.3947  -0.3910  -0.3879  -0.3855  -0.3760  -0.3738  -0.3675
 -0.3633  -0.3628  -0.3564  -0.3524  -0.3472  -0.3426  -0.3266  -0.2828
 -0.2724  -0.2716  -0.2690  -0.2608  -0.2591  -0.1910

          Ground-State Mulliken Net Atomic Charges

     Atom                 Charge (a.u.)
  ----------------------------------------
      1 C                    -0.080099
      2 C                    -0.366841
      3 C                    -0.365532
      4 C                     0.380502
      5 C                     0.379338
      6 C                    -0.078181
      7 C                    -0.281543
      8 C                    -0.283249
      9 C                     0.014788
     10 C                     0.020475
     11 C                    -0.434128
     12 C                     0.016262
     13 C                     0.014361
     14 C                    -0.431586
     15 O                    -0.366807
     16 O                    -0.366345
     17 H                     0.184990
     18 H                     0.215567
     19 H                     0.215623
     20 H                     0.184803
     21 H                     0.256658
     22 H                     0.256292
     23 N                    -0.064310
     24 N                    -0.063497
     25 H                     0.427459
     26 H                     0.427010
     27 C                     0.060167
     28 C                    -0.567863
     29 C                    -0.527275
     30 C                     0.057999
     31 C                    -0.526074
     32 C                    -0.567151
     33 H                     0.161008
     34 H                     0.174679
     35 H                     0.163420
     36 H                     0.157210
     37 H                     0.145065
     38 H                     0.156153
     39 H                     0.171387
     40 H                     0.160484
     41 H                     0.146020
     42 H                     0.156417
     43 H                     0.170958
     44 H                     0.157064
     45 H                     0.174781
     46 H                     0.163542
  ----------------------------------------
  Sum of atomic charges =     0.000000

                    Cartesian Multipole Moments
 -----------------------------------------------------------------
    Charge (ESU x 10^10)
                -0.0000
    Dipole Moment (Debye)
         X       0.5766      Y       5.2154      Z       3.5806
       Tot       6.3524
    Quadrupole Moments (Debye-Ang)
        XX    -148.7302     XY       0.0633     YY     -71.5642
        XZ      -0.0118     YZ      23.3775     ZZ    -133.2632

 Total job time:  253.88s(wall), 827.59s(cpu)
        *  Thank you very much for using Q-Chem.  Have a nice day.  *
