 Gaussian 16, Revision A.03,
 Gaussian 16:  ES64L-G16RevA.03 25-Dec-2016

 ----------------------------------------------------------------------
 #P UB3LYP/6-311++G(d,p) nosym opt freq SCRF=(PCM,Solvent=n,n-DiMethylF
 ormamide)
 ----------------------------------------------------------------------

 --------
 Oxidized
 --------
 Symbolic Z-matrix:
 Charge = -2 Multiplicity = 1

 SCF Done:  E(UB3LYP) =  -1935.89496660     A.U. after   16 cycles
 SCF Done:  E(UB3LYP) =  -1935.89585667     A.U. after   12 cycles
 SCF Done:  E(UB3LYP) =  -1935.89630081     A.U. after   11 cycles
 SCF Done:  E(UB3LYP) =  -1935.89631605     A.U. after   11 cycles
 SCF Done:  E(UB3LYP) =  -1935.89631162     A.U. after   11 cycles
 SCF Done:  E(UB3LYP) =  -1935.89631423     A.U. after   11 cycles
 SCF Done:  E(UB3LYP) =  -1935.89632050     A.U. after   11 cycles
 SCF Done:  E(UB3LYP) =  -1935.89632183     A.U. after   10 cycles
 SCF Done:  E(UB3LYP) =  -1935.89632247     A.U. after   10 cycles
 SCF Done:  E(UB3LYP) =  -1935.89632277     A.U. after    9 cycles
 SCF Done:  E(UB3LYP) =  -1935.89632284     A.U. after    9 cycles
 Optimization completed.
    -- Stationary point found.
 Normal termination of Gaussian 16 at Sun Feb 11 00:54:15 2024.

 ----------------------------------------------------------------------
 #P Geom=AllCheck Guess=TCheck SCRF=Check GenChk UB3LYP/6-311++G(d,p) F
 req
 ----------------------------------------------------------------------

 Structure from the checkpoint file:  "225.chk"
 --------
 Oxidized
 --------
 Charge = -2 Multiplicity = 1

                          Input orientation:
 ---------------------------------------------------------------------
 Center     Atomic      Atomic             Coordinates (Angstroms)
 Number     Number       Type             X           Y           Z
 ---------------------------------------------------------------------
      1          8           0        5.501460   -2.220005    0.722785
      2         16           0        5.423317   -0.910685    0.015592
      3          8           0        6.302884    0.130432    0.610627
      4          8           0        5.558279   -1.034910   -1.460530
      5          6           0        3.724189   -0.326046    0.298493
      6          6           0        3.459483    0.569508    1.336229
      7          6           0        2.152260    0.975724    1.577886
      8          6           0        1.102898    0.492561    0.791544
      9          6           0       -0.287740    0.944343    1.075844
     10          8           0       -0.527352    1.725216    1.986795
     11          6           0       -1.377112    0.409775    0.209980
     12          6           0       -2.691835    0.814168    0.450765
     13          6           0       -3.724168    0.326135   -0.342167
     14          6           0       -3.459452   -0.569351   -1.379975
     15          6           0       -2.152257   -0.975684   -1.621539
     16          6           0       -1.102912   -0.492684   -0.835057
     17          6           0        0.287697   -0.944647   -1.119215
     18          8           0        0.527265   -1.725768   -2.029966
     19          6           0        1.377094   -0.409952   -0.253459
     20          6           0        2.691823   -0.814257   -0.494308
     21         16           0       -5.423296    0.910873   -0.059454
     22          8           0       -5.501414    2.220005   -0.767013
     23          8           0       -6.302862   -0.130412   -0.654205
     24          8           0       -5.558275    1.035518    1.416624
     25          1           0        4.274882    0.949194    1.938439
     26          1           0        1.931408    1.672392    2.376425
     27          1           0       -2.892471    1.500585    1.262829
     28          1           0       -4.274828   -0.948932   -1.982282
     29          1           0       -1.931401   -1.672337   -2.420089
     30          1           0        2.892436   -1.500761   -1.306304
 ---------------------------------------------------------------------

 SCF Done:  E(UB3LYP) =  -1935.89632284     A.U. after    2 cycles

 Alpha  occ. eigenvalues --  -89.04856 -89.04856 -19.13280 -19.13279 -19.09232
 Alpha  occ. eigenvalues --  -19.09231 -19.09217 -19.09217 -19.09181 -19.09181
 Alpha  occ. eigenvalues --  -10.28533 -10.28532 -10.21819 -10.21819 -10.21277
 Alpha  occ. eigenvalues --  -10.21276 -10.21192 -10.21192 -10.20375 -10.20374
 Alpha  occ. eigenvalues --  -10.20313 -10.20313 -10.20103 -10.20103  -8.10747
 Alpha  occ. eigenvalues --   -8.10747  -6.07011  -6.07011  -6.07002  -6.07002
 Alpha  occ. eigenvalues --   -6.06938  -6.06938  -1.11135  -1.11135  -1.06667
 Alpha  occ. eigenvalues --   -1.06482  -0.97488  -0.97487  -0.97259  -0.97259
 Alpha  occ. eigenvalues --   -0.89972  -0.88882  -0.82121  -0.78682  -0.78336
 Alpha  occ. eigenvalues --   -0.77977  -0.69914  -0.68779  -0.65802  -0.63500
 Alpha  occ. eigenvalues --   -0.61200  -0.59573  -0.58130  -0.56449  -0.53402
 Alpha  occ. eigenvalues --   -0.51202  -0.50259  -0.49866  -0.49202  -0.46761
 Alpha  occ. eigenvalues --   -0.46025  -0.45981  -0.45886  -0.45498  -0.45441
 Alpha  occ. eigenvalues --   -0.45398  -0.45163  -0.44466  -0.44449  -0.42562
 Alpha  occ. eigenvalues --   -0.42043  -0.40320  -0.39889  -0.38476  -0.37686
 Alpha  occ. eigenvalues --   -0.37212  -0.33615  -0.33609  -0.33562  -0.33551
 Alpha  occ. eigenvalues --   -0.31421  -0.31326  -0.29986  -0.29955  -0.29730
 Alpha  occ. eigenvalues --   -0.29688  -0.28844  -0.28681  -0.27995  -0.27645
 Alpha  occ. eigenvalues --   -0.27359  -0.26720  -0.25646  -0.25644
 Alpha virt. eigenvalues --   -0.12158  -0.07965  -0.04390  -0.03234  -0.00290
 Alpha virt. eigenvalues --    0.00703   0.01421   0.02163   0.02275   0.02681
 Alpha virt. eigenvalues --    0.03220   0.03985   0.04358   0.04495   0.04704

  Beta  occ. eigenvalues --  -89.04856 -89.04856 -19.13280 -19.13279 -19.09232
  Beta  occ. eigenvalues --  -19.09231 -19.09217 -19.09217 -19.09181 -19.09181
  Beta  occ. eigenvalues --  -10.28533 -10.28532 -10.21819 -10.21819 -10.21277
  Beta  occ. eigenvalues --  -10.21276 -10.21192 -10.21192 -10.20375 -10.20374
  Beta  occ. eigenvalues --  -10.20313 -10.20313 -10.20103 -10.20103  -8.10747
  Beta  occ. eigenvalues --   -8.10747  -6.07011  -6.07011  -6.07002  -6.07002
  Beta  occ. eigenvalues --   -6.06938  -6.06938  -1.11135  -1.11135  -1.06667
  Beta  occ. eigenvalues --   -1.06482  -0.97488  -0.97487  -0.97259  -0.97259
  Beta  occ. eigenvalues --   -0.89972  -0.88882  -0.82121  -0.78682  -0.78336
  Beta  occ. eigenvalues --   -0.77977  -0.69914  -0.68779  -0.65802  -0.63500
  Beta  occ. eigenvalues --   -0.61200  -0.59573  -0.58130  -0.56449  -0.53402
  Beta  occ. eigenvalues --   -0.51202  -0.50259  -0.49866  -0.49202  -0.46761
  Beta  occ. eigenvalues --   -0.46025  -0.45981  -0.45886  -0.45498  -0.45441
  Beta  occ. eigenvalues --   -0.45398  -0.45163  -0.44466  -0.44449  -0.42562
  Beta  occ. eigenvalues --   -0.42043  -0.40320  -0.39889  -0.38476  -0.37686
  Beta  occ. eigenvalues --   -0.37212  -0.33615  -0.33609  -0.33562  -0.33551
  Beta  occ. eigenvalues --   -0.31421  -0.31326  -0.29986  -0.29955  -0.29730
  Beta  occ. eigenvalues --   -0.29688  -0.28844  -0.28681  -0.27995  -0.27645
  Beta  occ. eigenvalues --   -0.27359  -0.26720  -0.25646  -0.25644
  Beta virt. eigenvalues --   -0.12158  -0.07965  -0.04390  -0.03234  -0.00290
  Beta virt. eigenvalues --    0.00703   0.01421   0.02163   0.02275   0.02681
  Beta virt. eigenvalues --    0.03220   0.03985   0.04358   0.04495   0.04704

 Mulliken charges and spin densities:
               1          2
     1  O   -0.359121   0.000000
     2  S    0.689057  -0.000000
     3  O   -0.413894   0.000000
     4  O   -0.411352  -0.000000
     5  C   -0.758639  -0.000000
     6  C   -0.222037  -0.000000
     7  C    0.093481   0.000000
     8  C    0.418011  -0.000000
     9  C   -0.647820   0.000000
    10  O   -0.261841   0.000000
    11  C    0.213541   0.000000
    12  C    0.026282   0.000000
    13  C   -0.758592  -0.000000
    14  C   -0.222187  -0.000000
    15  C    0.093151   0.000000
    16  C    0.418128   0.000000
    17  C   -0.647789   0.000000
    18  O   -0.261845   0.000000
    19  C    0.213162  -0.000000
    20  C    0.026012   0.000000
    21  S    0.689085  -0.000000
    22  O   -0.359124   0.000000
    23  O   -0.413880  -0.000000
    24  O   -0.411366   0.000000
    25  H    0.236330   0.000000
    26  H    0.189175  -0.000000
    27  H    0.209292  -0.000000
    28  H    0.236323   0.000000
    29  H    0.189169  -0.000000
    30  H    0.209288  -0.000000
 Sum of Mulliken charges =  -2.00000   0.00000

 Dipole moment (field-independent basis, Debye):
    X=              0.0000    Y=             -0.0003    Z=              0.2105  Tot=              0.2105
 Quadrupole moment (field-independent basis, Debye-Ang):
   XX=           -494.4968   YY=           -187.3200   ZZ=           -174.9962
   XY=             67.5693   XZ=             11.5982   YZ=             -3.7266

  Exact polarizability: 483.132 -37.196 262.850  17.199  81.194 290.671
 Approx polarizability: 477.964 -31.891 327.454  14.562 114.020 368.218

                      1                      2                      3
                      A                      A                      A
 Frequencies --     19.5876                25.6564                27.3025
 Red. masses --     14.9734                12.3272                15.9055
 Frc consts  --      0.0034                 0.0048                 0.0070
 IR Inten    --      7.0293                 0.0001                 0.6454

                      4                      5                      6
                      A                      A                      A
 Frequencies --     67.1778                67.6137                79.7414
 Red. masses --      7.6825                10.1937                13.3405
 Frc consts  --      0.0204                 0.0275                 0.0500
 IR Inten    --     24.2234                 0.0104                18.8995

                      7                      8                      9
                      A                      A                      A
 Frequencies --    119.1711               122.8231               128.5977
 Red. masses --     12.2831                 5.2421                 6.2793
 Frc consts  --      0.1028                 0.0466                 0.0612
 IR Inten    --      0.0000                 2.9448                 0.0000

                     10                     11                     12
                      A                      A                      A
 Frequencies --    172.5667               187.8131               221.0864
 Red. masses --     11.4901                14.2724                10.5189
 Frc consts  --      0.2016                 0.2966                 0.3029
 IR Inten    --      1.4521                 0.0000                 3.6539

                     13                     14                     15
                      A                      A                      A
 Frequencies --    222.1625               264.4142               270.3113
 Red. masses --      9.1464                13.2736                13.4845
 Frc consts  --      0.2660                 0.5468                 0.5805
 IR Inten    --      0.0001                 6.9859                 0.0000

                     16                     17                     18
                      A                      A                      A
 Frequencies --    319.0709               332.3030               374.8740
 Red. masses --      7.5082                 6.6847                 7.2717
 Frc consts  --      0.4504                 0.4349                 0.6021
 IR Inten    --      2.9844                 0.0000                22.7208

                     19                     20                     21
                      A                      A                      A
 Frequencies --    380.5970               401.6917               412.3748
 Red. masses --      7.2592                 7.9160                10.8511
 Frc consts  --      0.6195                 0.7526                 1.0872
 IR Inten    --      0.0000                 0.0000               130.3592

                     22                     23                     24
                      A                      A                      A
 Frequencies --    418.2385               438.3953               462.0291
 Red. masses --      3.4315                 3.3428                10.6033
 Frc consts  --      0.3537                 0.3785                 1.3336
 IR Inten    --      3.4708                 0.0000                 0.0000

                     25                     26                     27
                      A                      A                      A
 Frequencies --    464.4708               483.5960               497.1203
 Red. masses --     10.6476                11.1868                11.4382
 Frc consts  --      1.3534                 1.5414                 1.6654
 IR Inten    --      0.0000                51.7623                 0.0000

                     28                     29                     30
                      A                      A                      A
 Frequencies --    513.3002               524.4140               539.9564
 Red. masses --     15.1078                11.5977                 9.5696
 Frc consts  --      2.3453                 1.8792                 1.6438
 IR Inten    --     66.6623                 0.0000                 0.0000

                     31                     32                     33
                      A                      A                      A
 Frequencies --    583.4677               591.6343               613.8515
 Red. masses --      5.4399                14.3107                13.7493
 Frc consts  --      1.0911                 2.9513                 3.0525
 IR Inten    --    136.6268               588.9153                 0.0000

                     34                     35                     36
                      A                      A                      A
 Frequencies --    655.2792               675.6884               685.4031
 Red. masses --      7.5036                 4.3383                 7.6796
 Frc consts  --      1.8983                 1.1670                 2.1256
 IR Inten    --     32.7442                 0.0001               108.0844

                     37                     38                     39
                      A                      A                      A
 Frequencies --    698.8214               716.8454               733.1793
 Red. masses --      7.0247                 4.2784                 8.3924
 Frc consts  --      2.0212                 1.2953                 2.6580
 IR Inten    --      0.0000                30.9777                 0.0000

                     40                     41                     42
                      A                      A                      A
 Frequencies --    755.7694               802.0300               842.7852
 Red. masses --      5.0579                 4.2552                 7.5146
 Frc consts  --      1.7022                 1.6127                 3.1448
 IR Inten    --     45.4825                 0.0000                 9.5189

                     43                     44                     45
                      A                      A                      A
 Frequencies --    867.9586               874.6009               936.0610
 Red. masses --      1.5183                 1.4981                 1.4286
 Frc consts  --      0.6739                 0.6752                 0.7375
 IR Inten    --      0.0000                36.5013                 0.0139

                     46                     47                     48
                      A                      A                      A
 Frequencies --    936.5828               948.4703               965.0811
 Red. masses --      1.4288                 9.7668                 7.4385
 Frc consts  --      0.7384                 5.1767                 4.0819
 IR Inten    --     17.4283                 0.0000                32.8111

                     49                     50                     51
                      A                      A                      A
 Frequencies --    979.8656               994.7779              1006.7919
 Red. masses --      9.2749                 8.3937                 1.3483
 Frc consts  --      5.2468                 4.8939                 0.8052
 IR Inten    --   1062.1436                 0.0000                 0.0000

                     52                     53                     54
                      A                      A                      A
 Frequencies --   1008.8431              1087.1535              1097.0033
 Red. masses --      1.3693                 2.0925                 2.1250
 Frc consts  --      0.8211                 1.4571                 1.5067
 IR Inten    --      1.7997               110.3385                 0.0000

                     55                     56                     57
                      A                      A                      A
 Frequencies --   1121.7779              1121.9749              1126.0453
 Red. masses --     19.9625                17.5315                 2.6486
 Frc consts  --     14.8006                13.0028                 1.9787
 IR Inten    --   1141.1816                 0.6646                 0.0007

                     58                     59                     60
                      A                      A                      A
 Frequencies --   1128.8361              1140.2941              1141.7038
 Red. masses --      3.2270                 4.9268                 3.9861
 Frc consts  --      2.4228                 3.7744                 3.0613
 IR Inten    --    562.6508               619.3829                 0.0038

                     61                     62                     63
                      A                      A                      A
 Frequencies --   1183.2404              1187.4377              1229.3747
 Red. masses --      2.0192                 3.8813                 1.8227
 Frc consts  --      1.6656                 3.2244                 1.6231
 IR Inten    --     41.2402                 0.0000                 0.0000

                     64                     65                     66
                      A                      A                      A
 Frequencies --   1271.1782              1291.8293              1295.2126
 Red. masses --      1.4283                 1.8320                 5.3965
 Frc consts  --      1.3599                 1.8013                 5.3339
 IR Inten    --     62.0331                 0.0004              1240.9946

                     67                     68                     69
                      A                      A                      A
 Frequencies --   1344.5971              1358.9270              1416.6014
 Red. masses --     10.7405                 9.5639                 3.8583
 Frc consts  --     11.4409                10.4059                 4.5619
 IR Inten    --     70.9771                 0.0000                24.1898

                     70                     71                     72
                      A                      A                      A
 Frequencies --   1434.9022              1494.6119              1503.3907
 Red. masses --      4.9857                 2.6863                 2.6523
 Frc consts  --      6.0481                 3.5356                 3.5320
 IR Inten    --      0.0000                37.4040                 0.0000

                     73                     74                     75
                      A                      A                      A
 Frequencies --   1592.7267              1605.5700              1609.5972
 Red. masses --      7.8095                 8.6121                 6.4343
 Frc consts  --     11.6722                13.0803                 9.8218
 IR Inten    --     27.1449                 0.0000               485.7572

                     76                     77                     78
                      A                      A                      A
 Frequencies --   1620.5277              1696.2236              1704.8277
 Red. masses --      6.1980                12.6238                11.8065
 Frc consts  --      9.5900                21.3996                20.2178
 IR Inten    --      0.0000                 0.0000               756.3895

                     79                     80                     81
                      A                      A                      A
 Frequencies --   3198.2060              3198.2306              3209.4957
 Red. masses --      1.0883                 1.0883                 1.0933
 Frc consts  --      6.5585                 6.5588                 6.6352
 IR Inten    --      3.4178                 0.0031                 0.0000

                     82                     83                     84
                      A                      A                      A
 Frequencies --   3209.6101              3210.7635              3211.0299
 Red. masses --      1.0939                 1.0911                 1.0917
 Frc consts  --      6.6395                 6.6271                 6.6318
 IR Inten    --      1.2437                 7.7088                 0.0017

 - Thermochemistry -
 -------------------
 Temperature   298.150 Kelvin.  Pressure   1.00000 Atm.
 Atom     1 has atomic number  8 and mass  15.99491

 Molecular mass:   365.95041 amu.
 Principal axes and moments of inertia in atomic units:
                           1         2         3
     Eigenvalues --  2516.98855********************
           X            0.98872   0.07143   0.13163
           Y           -0.14709   0.62831   0.76393
           Z            0.02813   0.77468  -0.63173
 This molecule is an asymmetric top.
 Rotational symmetry number  1.
 Warning -- assumption of classical behavior for rotation
           may cause significant error
 Rotational temperatures (Kelvin)      0.03441     0.00379     0.00351
 Rotational constants (GHZ):           0.71702     0.07902     0.07322
 Zero-point vibrational energy     481348.3 (Joules/Mol)
                                  115.04500 (Kcal/Mol)
 Warning -- explicit consideration of  33 degrees of freedom as
           vibrations may cause significant error
 Vibrational temperatures:     28.18    36.91    39.28    96.65    97.28
          (Kelvin)            114.73   171.46   176.71   185.02   248.29
                              270.22   318.09   319.64   380.43   388.92
                              459.07   478.11   539.36   547.59   577.94
                              593.32   601.75   630.75   664.76   668.27
                              695.79   715.25   738.52   754.51   776.88
                              839.48   851.23   883.20   942.80   972.16
                              986.14  1005.45  1031.38  1054.88  1087.38
                             1153.94  1212.58  1248.80  1258.36  1346.78
                             1347.53  1364.64  1388.54  1409.81  1431.26
                             1448.55  1451.50  1564.17  1578.34  1613.99
                             1614.27  1620.13  1624.14  1640.63  1642.66
                             1702.42  1708.46  1768.80  1828.94  1858.65
                             1863.52  1934.58  1955.19  2038.17  2064.50
                             2150.41  2163.04  2291.58  2310.06  2315.85
                             2331.58  2440.49  2452.87  4601.51  4601.54
                             4617.75  4617.91  4619.57  4619.96

 Zero-point correction=                           0.183336 (Hartree/Particle)
 Thermal correction to Energy=                    0.202841
 Thermal correction to Enthalpy=                  0.203785
 Thermal correction to Gibbs Free Energy=         0.132482
 Sum of electronic and zero-point Energies=          -1935.712987
 Sum of electronic and thermal Energies=             -1935.693482
 Sum of electronic and thermal Enthalpies=           -1935.692537
 Sum of electronic and thermal Free Energies=        -1935.763840

                     E (Thermal)             CV                S
                      KCal/Mol        Cal/Mol-Kelvin    Cal/Mol-Kelvin
 Total                  127.285             73.758            150.070
 Electronic               0.000              0.000              0.000
 Translational            0.889              2.981             43.585
 Rotational               0.889              2.981             35.603
 Vibrational            125.507             67.796             70.881
 Vibration     1          0.593              1.986              6.676
 Vibration     2          0.593              1.985              6.140
 Vibration     3          0.593              1.984              6.016
 Vibration     4          0.598              1.970              4.234
 Vibration     5          0.598              1.970              4.222
 Vibration     6          0.600              1.963              3.897
 Vibration     7          0.609              1.933              3.114
 Vibration     8          0.610              1.930              3.055
 Vibration     9          0.611              1.925              2.967
 Vibration    10          0.626              1.876              2.407
 Vibration    11          0.632              1.857              2.249
 Vibration    12          0.648              1.809              1.950
 Vibration    13          0.648              1.807              1.941
 Vibration    14          0.671              1.738              1.632
 Vibration    15          0.674              1.728              1.594
 Vibration    16          0.705              1.637              1.315
 Vibration    17          0.714              1.611              1.249
 Vibration    18          0.746              1.524              1.060
 Vibration    19          0.750              1.512              1.037
 Vibration    20          0.767              1.466              0.956
 Vibration    21          0.776              1.443              0.918
 Vibration    22          0.781              1.431              0.898
 Vibration    23          0.799              1.386              0.832
 Vibration    24          0.820              1.334              0.760
 Vibration    25          0.822              1.329              0.753
 Vibration    26          0.840              1.286              0.700
 Vibration    27          0.853              1.256              0.665
 Vibration    28          0.868              1.221              0.626
 Vibration    29          0.879              1.196              0.600
 Vibration    30          0.895              1.162              0.565
 Vibration    31          0.940              1.067              0.479
 Vibration    32          0.949              1.050              0.464
 Vibration    33          0.973              1.003              0.426

 Optimization completed.
    -- Stationary point found.
 Normal termination of Gaussian 16 at Sun Feb 11 03:12:36 2024.
