 Gaussian 16, Revision A.03,
 Gaussian 16:  ES64L-G16RevA.03 25-Dec-2016

 ----------------------------------------------------------------------
 #P UB3LYP/6-311++G(d,p) nosym opt freq SCRF=(PCM,Solvent=n,n-DiMethylF
 ormamide)
 ----------------------------------------------------------------------

 --------
 Oxidized
 --------
 Symbolic Z-matrix:
 Charge =  0 Multiplicity = 1

 SCF Done:  E(UB3LYP) =  -648.808564849     A.U. after   14 cycles
 SCF Done:  E(UB3LYP) =  -648.808726822     A.U. after   10 cycles
 SCF Done:  E(UB3LYP) =  -648.808754544     A.U. after   10 cycles
 SCF Done:  E(UB3LYP) =  -648.808755806     A.U. after    9 cycles
 SCF Done:  E(UB3LYP) =  -648.808756616     A.U. after    9 cycles
 SCF Done:  E(UB3LYP) =  -648.808757065     A.U. after    9 cycles
 SCF Done:  E(UB3LYP) =  -648.808757475     A.U. after    8 cycles
 SCF Done:  E(UB3LYP) =  -648.808758200     A.U. after    9 cycles
 SCF Done:  E(UB3LYP) =  -648.808758575     A.U. after    9 cycles
 SCF Done:  E(UB3LYP) =  -648.808758716     A.U. after    8 cycles
 SCF Done:  E(UB3LYP) =  -648.808758859     A.U. after    8 cycles
 SCF Done:  E(UB3LYP) =  -648.808759014     A.U. after    8 cycles
 SCF Done:  E(UB3LYP) =  -648.808759189     A.U. after    8 cycles
 SCF Done:  E(UB3LYP) =  -648.808759373     A.U. after    8 cycles
 SCF Done:  E(UB3LYP) =  -648.808759552     A.U. after    8 cycles
 SCF Done:  E(UB3LYP) =  -648.808759634     A.U. after    8 cycles
 Optimization completed.
    -- Stationary point found.
 Normal termination of Gaussian 16 at Sat Feb 10 10:31:52 2024.

 ----------------------------------------------------------------------
 #P Geom=AllCheck Guess=TCheck SCRF=Check GenChk UB3LYP/6-311++G(d,p) F
 req
 ----------------------------------------------------------------------

 Structure from the checkpoint file:  "044.chk"
 --------
 Oxidized
 --------
 Charge =  0 Multiplicity = 1

                          Input orientation:
 ---------------------------------------------------------------------
 Center     Atomic      Atomic             Coordinates (Angstroms)
 Number     Number       Type             X           Y           Z
 ---------------------------------------------------------------------
      1          6           0       -0.926686    2.089334    0.027918
      2          6           0       -2.125043    1.254392   -0.008297
      3          6           0       -2.083720   -0.081293   -0.079310
      4          6           0       -0.836222   -0.840218   -0.126706
      5          6           0        0.421952   -0.014020   -0.057541
      6          6           0        0.380164    1.339288    0.012506
      7          8           0       -0.987020    3.309828    0.062952
      8          8           0       -0.821524   -2.059012   -0.220549
      9          6           0        1.627085    2.174247    0.080190
     10          6           0        1.718273   -0.772918   -0.075890
     11          8           0       -3.336514   -0.608393   -0.161780
     12          8           0       -3.408242    1.708948   -0.039124
     13          6           0       -4.218869    0.514370    0.083118
     14          1           0        2.194878    1.950475    0.989049
     15          1           0        1.383501    3.234957    0.078456
     16          1           0        2.284521    1.964004   -0.768333
     17          1           0        1.538760   -1.846153   -0.094852
     18          1           0        2.322459   -0.533585    0.804083
     19          1           0        2.312779   -0.505882   -0.955386
     20          1           0       -5.005005    0.529792   -0.667499
     21          1           0       -4.608551    0.448432    1.101894
 ---------------------------------------------------------------------

 SCF Done:  E(UB3LYP) =  -648.808759634     A.U. after    1 cycles

 Alpha  occ. eigenvalues --  -19.19516 -19.19515 -19.14739 -19.14738 -10.30737
 Alpha  occ. eigenvalues --  -10.29701 -10.29700 -10.26501 -10.26419 -10.21788
 Alpha  occ. eigenvalues --  -10.21716 -10.17642 -10.17639  -1.15828  -1.08157
 Alpha  occ. eigenvalues --   -1.07690  -1.05988  -0.87502  -0.82028  -0.75575
 Alpha  occ. eigenvalues --   -0.72691  -0.70879  -0.67713  -0.62178  -0.61964
 Alpha  occ. eigenvalues --   -0.55994  -0.54331  -0.53807  -0.49754  -0.48752
 Alpha  occ. eigenvalues --   -0.47324  -0.46907  -0.44156  -0.43821  -0.43016
 Alpha  occ. eigenvalues --   -0.42105  -0.41837  -0.41143  -0.40439  -0.39083
 Alpha  occ. eigenvalues --   -0.38790  -0.38291  -0.37890  -0.30069  -0.29130
 Alpha  occ. eigenvalues --   -0.29017  -0.23929
 Alpha virt. eigenvalues --   -0.13792  -0.01473  -0.01166   0.00065   0.00482
 Alpha virt. eigenvalues --    0.01281   0.02615   0.02742   0.02787   0.03446
 Alpha virt. eigenvalues --    0.03764   0.05368   0.05446   0.06082   0.07150

  Beta  occ. eigenvalues --  -19.19516 -19.19515 -19.14739 -19.14738 -10.30737
  Beta  occ. eigenvalues --  -10.29701 -10.29700 -10.26501 -10.26419 -10.21788
  Beta  occ. eigenvalues --  -10.21716 -10.17642 -10.17639  -1.15828  -1.08157
  Beta  occ. eigenvalues --   -1.07690  -1.05988  -0.87502  -0.82028  -0.75575
  Beta  occ. eigenvalues --   -0.72691  -0.70879  -0.67713  -0.62178  -0.61964
  Beta  occ. eigenvalues --   -0.55994  -0.54331  -0.53807  -0.49754  -0.48752
  Beta  occ. eigenvalues --   -0.47324  -0.46907  -0.44156  -0.43821  -0.43016
  Beta  occ. eigenvalues --   -0.42105  -0.41837  -0.41143  -0.40439  -0.39083
  Beta  occ. eigenvalues --   -0.38790  -0.38291  -0.37890  -0.30069  -0.29130
  Beta  occ. eigenvalues --   -0.29017  -0.23929
  Beta virt. eigenvalues --   -0.13792  -0.01473  -0.01166   0.00065   0.00482
  Beta virt. eigenvalues --    0.01281   0.02615   0.02742   0.02787   0.03446
  Beta virt. eigenvalues --    0.03764   0.05368   0.05446   0.06082   0.07150

 Mulliken charges and spin densities:
               1          2
     1  C   -1.021276   0.000000
     2  C    0.422102  -0.000000
     3  C    0.421224  -0.000000
     4  C   -1.018317   0.000000
     5  C    0.746946   0.000000
     6  C    0.749645  -0.000000
     7  O   -0.305393   0.000000
     8  O   -0.305765  -0.000000
     9  C   -0.443506   0.000000
    10  C   -0.442858   0.000000
    11  O   -0.168087   0.000000
    12  O   -0.168027   0.000000
    13  C   -0.023652  -0.000000
    14  H    0.180587   0.000000
    15  H    0.195956  -0.000000
    16  H    0.172823   0.000000
    17  H    0.195328  -0.000000
    18  H    0.173761   0.000000
    19  H    0.180080   0.000000
    20  H    0.217943  -0.000000
    21  H    0.240484   0.000000
 Sum of Mulliken charges =  -0.00000   0.00000

 Dipole moment (field-independent basis, Debye):
    X=              0.7382    Y=             -0.0080    Z=              0.6226  Tot=              0.9657
 Quadrupole moment (field-independent basis, Debye-Ang):
   XX=            -56.1857   YY=           -100.3413   ZZ=            -72.5051
   XY=              1.9372   XZ=             -1.7471   YZ=             -1.1050

  Exact polarizability: 167.046  -1.857 228.447  -0.831   7.466  91.145
 Approx polarizability: 166.813  -5.108 332.745  -0.347  12.261 106.769

                      1                      2                      3
                      A                      A                      A
 Frequencies --     52.3416                65.3210                88.7139
 Red. masses --      1.0639                 3.4770                 1.1554
 Frc consts  --      0.0017                 0.0087                 0.0054
 IR Inten    --      0.0054                21.7083                 1.3840

                      4                      5                      6
                      A                      A                      A
 Frequencies --    109.3409               117.0587               137.2222
 Red. masses --      2.8600                 3.2444                 9.7378
 Frc consts  --      0.0201                 0.0262                 0.1080
 IR Inten    --      4.1784                 0.0033                 0.0886

                      7                      8                      9
                      A                      A                      A
 Frequencies --    177.2673               255.8458               287.4118
 Red. masses --      5.4971                 6.7284                 4.7234
 Frc consts  --      0.1018                 0.2595                 0.2299
 IR Inten    --      9.1036                 3.1770                 1.9104

                     10                     11                     12
                      A                      A                      A
 Frequencies --    308.8522               326.4097               374.9256
 Red. masses --      2.5865                 3.8910                11.9733
 Frc consts  --      0.1454                 0.2443                 0.9916
 IR Inten    --      0.1940                 0.0111                17.1607

                     13                     14                     15
                      A                      A                      A
 Frequencies --    420.5099               426.3598               447.7329
 Red. masses --      7.1244                 7.2364                 4.7689
 Frc consts  --      0.7422                 0.7750                 0.5633
 IR Inten    --     17.4257                13.0811                 0.0411

                     16                     17                     18
                      A                      A                      A
 Frequencies --    529.3015               585.9539               637.5980
 Red. masses --      8.6900                 7.6761                 6.9060
 Frc consts  --      1.4344                 1.5528                 1.6541
 IR Inten    --      2.6339                 1.6269                 8.6439

                     19                     20                     21
                      A                      A                      A
 Frequencies --    721.0560               732.4321               742.2752
 Red. masses --      7.0622                 3.6489                 9.1979
 Frc consts  --      2.1634                 1.1533                 2.9858
 IR Inten    --     27.9740                 2.3074                 0.7895

                     22                     23                     24
                      A                      A                      A
 Frequencies --    746.9654               862.0162               907.8419
 Red. masses --     10.4414                 6.5941                 4.2179
 Frc consts  --      3.4325                 2.8869                 2.0482
 IR Inten    --      3.7257                10.3169                73.5381

                     25                     26                     27
                      A                      A                      A
 Frequencies --    960.7006              1008.0556              1019.5689
 Red. masses --      5.5987                 2.0951                 1.4390
 Frc consts  --      3.0445                 1.2544                 0.8813
 IR Inten    --      6.4075                 8.1618                 1.3545

                     28                     29                     30
                      A                      A                      A
 Frequencies --   1048.2073              1049.6932              1069.9556
 Red. masses --      3.0398                 1.5705                 4.4861
 Frc consts  --      1.9678                 1.0196                 3.0259
 IR Inten    --    496.9524                42.4588               169.4982

                     31                     32                     33
                      A                      A                      A
 Frequencies --   1125.7936              1130.1557              1188.1756
 Red. masses --      2.3147                 1.5210                 6.4929
 Frc consts  --      1.7284                 1.1446                 5.4007
 IR Inten    --     56.4679                17.7261               313.1581

                     34                     35                     36
                      A                      A                      A
 Frequencies --   1209.5761              1254.6764              1312.1260
 Red. masses --      1.1126                 4.2606                 4.7066
 Frc consts  --      0.9590                 3.9517                 4.7743
 IR Inten    --     66.3335               393.0065                23.2701

                     37                     38                     39
                      A                      A                      A
 Frequencies --   1397.4740              1401.2713              1407.1909
 Red. masses --      1.2794                 1.5844                 3.3664
 Frc consts  --      1.4721                 1.8330                 3.9275
 IR Inten    --     12.4515                35.4831                 0.5344

                     40                     41                     42
                      A                      A                      A
 Frequencies --   1446.6273              1470.3115              1473.7884
 Red. masses --      1.4426                 1.0701                 1.0505
 Frc consts  --      1.7787                 1.3630                 1.3443
 IR Inten    --     88.4974                 0.2922                 5.0756

                     43                     44                     45
                      A                      A                      A
 Frequencies --   1475.1448              1486.2474              1526.9304
 Red. masses --      1.0896                 1.0429                 1.1066
 Frc consts  --      1.3970                 1.3574                 1.5201
 IR Inten    --     34.7336                34.0799                 1.8291

                     46                     47                     48
                      A                      A                      A
 Frequencies --   1631.9626              1677.2597              1695.7256
 Red. masses --      9.2374                12.8889                12.7529
 Frc consts  --     14.4951                21.3632                21.6057
 IR Inten    --    147.9526              1551.1856                48.2217

                     49                     50                     51
                      A                      A                      A
 Frequencies --   1721.3928              3025.8825              3030.8280
 Red. masses --     11.7232                 1.0399                 1.0408
 Frc consts  --     20.4672                 5.6098                 5.6330
 IR Inten    --    145.1546                32.5940                 1.3896

                     52                     53                     54
                      A                      A                      A
 Frequencies --   3051.6737              3069.8583              3079.1542
 Red. masses --      1.0623                 1.0991                 1.0995
 Frc consts  --      5.8285                 6.1029                 6.1421
 IR Inten    --     96.3745                29.0297                 0.5600

                     55                     56                     57
                      A                      A                      A
 Frequencies --   3138.8183              3139.3994              3154.2608
 Red. masses --      1.0973                 1.0976                 1.1105
 Frc consts  --      6.3693                 6.3738                 6.5096
 IR Inten    --      3.5878                15.2325                20.4303

 - Thermochemistry -
 -------------------
 Temperature   298.150 Kelvin.  Pressure   1.00000 Atm.
 Atom     1 has atomic number  6 and mass  12.00000

 Molecular mass:   180.04226 amu.
 Principal axes and moments of inertia in atomic units:
                           1         2         3
     Eigenvalues --  1516.858892283.733663763.15738
           X            0.99952  -0.03085  -0.00209
           Y            0.03069   0.99813  -0.05287
           Z            0.00371   0.05278   0.99860
 This molecule is an asymmetric top.
 Rotational symmetry number  1.
 Warning -- assumption of classical behavior for rotation
           may cause significant error
 Rotational temperatures (Kelvin)      0.05710     0.03793     0.02302
 Rotational constants (GHZ):           1.18979     0.79026     0.47958
 Zero-point vibrational energy     406363.3 (Joules/Mol)
                                   97.12316 (Kcal/Mol)
 Warning -- explicit consideration of  17 degrees of freedom as
           vibrations may cause significant error
 Vibrational temperatures:     75.31    93.98   127.64   157.32   168.42
          (Kelvin)            197.43   255.05   368.10   413.52   444.37
                              469.63   539.43   605.02   613.44   644.19
                              761.55   843.06   917.36  1037.44  1053.81
                             1067.97  1074.72  1240.25  1306.18  1382.23
                             1450.37  1466.93  1508.14  1510.27  1539.43
                             1619.77  1626.04  1709.52  1740.31  1805.20
                             1887.86  2010.65  2016.12  2024.63  2081.37
                             2115.45  2120.45  2122.40  2138.38  2196.91
                             2348.03  2413.20  2439.77  2476.70  4353.57
                             4360.69  4390.68  4416.84  4430.22  4516.06
                             4516.90  4538.28

 Zero-point correction=                           0.154776 (Hartree/Particle)
 Thermal correction to Energy=                    0.166958
 Thermal correction to Enthalpy=                  0.167902
 Thermal correction to Gibbs Free Energy=         0.115670
 Sum of electronic and zero-point Energies=           -648.653984
 Sum of electronic and thermal Energies=              -648.641802
 Sum of electronic and thermal Enthalpies=            -648.640858
 Sum of electronic and thermal Free Energies=         -648.693089

                     E (Thermal)             CV                S
                      KCal/Mol        Cal/Mol-Kelvin    Cal/Mol-Kelvin
 Total                  104.767             43.585            109.931
 Electronic               0.000              0.000              0.000
 Translational            0.889              2.981             41.471
 Rotational               0.889              2.981             30.945
 Vibrational            102.990             37.624             37.515
 Vibration     1          0.596              1.977              4.727
 Vibration     2          0.597              1.971              4.290
 Vibration     3          0.602              1.957              3.688
 Vibration     4          0.606              1.942              3.281
 Vibration     5          0.608              1.935              3.148
 Vibration     6          0.614              1.916              2.842
 Vibration     7          0.628              1.870              2.357
 Vibration     8          0.666              1.753              1.690
 Vibration     9          0.685              1.697              1.489
 Vibration    10          0.698              1.657              1.368
 Vibration    11          0.710              1.623              1.278
 Vibration    12          0.746              1.524              1.060
 Vibration    13          0.783              1.426              0.890
 Vibration    14          0.788              1.413              0.871
 Vibration    15          0.807              1.366              0.803
 Vibration    16          0.884              1.185              0.589
 Vibration    17          0.943              1.062              0.474

 Optimization completed.
    -- Stationary point found.
 Normal termination of Gaussian 16 at Sat Feb 10 10:48:06 2024.
