 Q-Chem 5.4, Q-Chem, Inc., Pleasanton, CA (2021)
 Q-Chem 5.4.0 for Intel X86 EM64T Linux

User input:
--------------------------------------------------------------
$molecule
-2 1
O                  5.4952910000     -2.2488770000      0.6732510000
S                  5.4592980000     -0.9147240000      0.0207750000
O                  6.2930100000      0.1125920000      0.6985360000
O                  5.6098550000     -0.9549950000     -1.4543360000
C                  3.7383470000     -0.3396550000      0.2906880000
C                  3.4659590000      0.5658130000      1.3185730000
C                  2.1602050000      0.9773470000      1.5595490000
C                  1.1047470000      0.4926160000      0.7810560000
C                 -0.2824460000      0.9560780000      1.0702060000
O                 -0.5083420000      1.7477390000      1.9769460000
C                 -1.3808530000      0.4201110000      0.2146460000
C                 -2.6976780000      0.8276290000      0.4523800000
C                 -3.7383340000      0.3394970000     -0.3339310000
C                 -3.4659450000     -0.5661370000     -1.3617410000
C                 -2.1602260000     -0.9775260000     -1.6028020000
C                 -1.1047200000     -0.4925880000     -0.8244150000
C                  0.2824830000     -0.9559940000     -1.1136410000
O                  0.5083610000     -1.7476340000     -2.0204090000
C                  1.3808970000     -0.4200720000     -0.2580680000
C                  2.6976480000     -0.8276570000     -0.4957420000
S                 -5.4592710000      0.9150930000     -0.0651250000
O                 -5.4988070000      2.2421030000     -0.7318690000
O                 -6.2934310000     -0.1204310000     -0.7296940000
O                 -5.6058200000      0.9709730000      1.4098570000
H                  4.2945600000      0.9432940000      1.9057120000
H                  1.9319170000      1.6815890000      2.3507820000
H                 -2.9011350000      1.5184080000      1.2606380000
H                 -4.2944820000     -0.9441470000     -1.9486430000
H                 -1.9319320000     -1.6818820000     -2.3939250000
H                  2.9008430000     -1.5185630000     -1.3039610000
$end
$rem
MAX_SCF_CYCLES=200
BASIS  =  6-311++G(d,p)
GUI  =  2
JOB_TYPE  =  SP
METHOD  =  B3LYP
SOLVENT_METHOD = COSMO
$end
$solvent
dielectric 37.219
opticaldielectric 1.43
$end

--------------------------------------------------------------

             Standard Nuclear Orientation (Angstroms)
    I     Atom           X                Y                Z
 ----------------------------------------------------------------
    1      O      -5.7812261399     0.5216166096     1.4298662884
    2      S      -5.5326992507     0.1780838714     0.0060670409
    3      O      -6.2308342937    -1.0526025605    -0.4498191334
    4      O      -5.6405364784     1.3280222251    -0.9246609221
    5      C      -3.7563111874    -0.2781967706    -0.0324446585
    6      C      -3.3891268135    -1.6257005952    -0.0275280579
    7      C      -2.0460319680    -1.9839722395    -0.0148458241
    8      C      -1.0472128769    -1.0055625103    -0.0057954978
    9      C       0.3823797470    -1.4283600460     0.0089130244
   10      O       0.6910356389    -2.6135198638     0.0167434832
   11      C       1.4187459418    -0.3552022492     0.0132638353
   12      C       2.7723151459    -0.7076771679     0.0283733408
   13      C       3.7562526753     0.2779026547     0.0330744129
   14      C       3.3890410156     1.6254542147     0.0283314754
   15      C       2.0460043764     1.9837014667     0.0154895793
   16      C       1.0471709987     1.0052384665     0.0062082831
   17      C      -0.3824210336     1.4280581917    -0.0085925391
   18      O      -0.6910552075     2.6132274216    -0.0164544421
   19      C      -1.4188010475     0.3549185174    -0.0129018337
   20      C      -2.7723086196     0.7073948852    -0.0279125241
   21      S       5.5327379865    -0.1778623970    -0.0065454757
   22      O       5.7841934987    -0.5056415318    -1.4335693582
   23      O       6.2297145113     1.0479239399     0.4640460627
   24      O       5.6388637528    -1.3378925547     0.9117346771
   25      H      -4.1729405074    -2.3733870954    -0.0476456799
   26      H      -1.7439331714    -3.0245767036    -0.0141163877
   27      H       3.0473741810    -1.7545055034     0.0469296188
   28      H       4.1727076724     2.3732902525     0.0489932707
   29      H       1.7438797276     3.0242933626     0.0149160457
   30      H      -3.0471280558     1.7542917051    -0.0463132507
 ----------------------------------------------------------------

   10   -1935.6739486145      4.31e-06  Convergence criterion met
 Total energy in the final basis set =    -1935.6739486145
    5   -1935.9114296570      5.93e-06  Convergence criterion met
 Total energy in the final basis set =    -1935.9114296570

                    Orbital Energies (a.u.)
 --------------------------------------------------------------

 Alpha MOs
 -- Occupied --
-89.0568 -89.0566 -19.1328 -19.1328 -19.1020 -19.1018 -19.1015 -19.1013
-19.1012 -19.1011 -10.2858 -10.2858 -10.2169 -10.2168 -10.2120 -10.2120
-10.2106 -10.2106 -10.2030 -10.2029 -10.2002 -10.2002 -10.1985 -10.1984
 -8.1156  -8.1154  -6.0782  -6.0782  -6.0781  -6.0780  -6.0774  -6.0772
 -1.1212  -1.1211  -1.0661  -1.0644  -0.9860  -0.9858  -0.9845  -0.9843
 -0.8970  -0.8859  -0.8187  -0.7842  -0.7802  -0.7770  -0.6968  -0.6858
 -0.6553  -0.6349  -0.6106  -0.5943  -0.5838  -0.5618  -0.5391  -0.5145
 -0.5050  -0.4991  -0.4911  -0.4711  -0.4652  -0.4648  -0.4630  -0.4609
 -0.4551  -0.4535  -0.4523  -0.4488  -0.4477  -0.4258  -0.4200  -0.4038
 -0.3974  -0.3799  -0.3764  -0.3684  -0.3468  -0.3466  -0.3461  -0.3460
 -0.3209  -0.3205  -0.3087  -0.3082  -0.3023  -0.3019  -0.2891  -0.2860
 -0.2779  -0.2770  -0.2758  -0.2694  -0.2678  -0.2676

          Ground-State Mulliken Net Atomic Charges

     Atom                 Charge (a.u.)
  ----------------------------------------
      1 O                    -0.376613
      2 S                     0.700569
      3 O                    -0.434370
      4 O                    -0.420495
      5 C                    -0.720294
      6 C                    -0.231820
      7 C                     0.097531
      8 C                     0.421041
      9 C                    -0.619290
     10 O                    -0.284320
     11 C                     0.183701
     12 C                     0.013776
     13 C                    -0.712867
     14 C                    -0.238239
     15 C                     0.089564
     16 C                     0.419037
     17 C                    -0.617218
     18 O                    -0.284370
     19 C                     0.178894
     20 C                     0.007481
     21 S                     0.699417
     22 O                    -0.377012
     23 O                    -0.434322
     24 O                    -0.420655
     25 H                     0.254604
     26 H                     0.204887
     27 H                     0.220969
     28 H                     0.254279
     29 H                     0.204675
     30 H                     0.221455
  ----------------------------------------
  Sum of atomic charges =    -2.000006

                    Cartesian Multipole Moments
 -----------------------------------------------------------------
    Charge (ESU x 10^10)
                -9.6064
    Dipole Moment (Debye)
         X       0.0047      Y      -0.0058      Z       0.0074
       Tot       0.0105
    Quadrupole Moments (Debye-Ang)
        XX    -505.1696     XY      29.6783     YY    -178.6786
        XZ       1.7901     YZ       0.2371     ZZ    -172.5953

 Total job time:  129.82s(wall), 692.45s(cpu)
        *  Thank you very much for using Q-Chem.  Have a nice day.  *
