 Q-Chem 5.4, Q-Chem, Inc., Pleasanton, CA (2021)
 Q-Chem 5.4.0 for Intel X86 EM64T Linux

User input:
--------------------------------------------------------------
$molecule
0 1
N                 -2.8958530000     -2.5429540000     -0.0840230000
C                 -2.5707520000     -1.2409180000      0.1266480000
C                 -3.6012020000     -0.3338530000      0.5059790000
C                 -3.3473460000      0.9863870000      0.7251790000
C                 -2.0380050000      1.5315910000      0.5892900000
N                 -1.8673730000      2.8636990000      0.7921810000
C                 -0.9843960000      0.6547310000      0.2393950000
C                  0.3711350000      1.1858330000      0.1268480000
O                  0.6353760000      2.3877760000      0.2568590000
C                  1.4778460000      0.2379720000     -0.1710250000
C                  1.2090380000     -1.1082480000     -0.4684100000
C                  2.2432020000     -1.9803420000     -0.8258790000
C                  3.5508590000     -1.5247170000     -0.8947330000
C                  3.8427510000     -0.1944620000     -0.5912700000
C                  2.8140220000      0.6570090000     -0.2248220000
N                  3.2346990000      2.0349280000      0.1473980000
O                  3.3319790000      2.2755020000      1.3383670000
O                  3.5438050000      2.7825270000     -0.7655740000
C                 -0.1786870000     -1.6462260000     -0.3885720000
O                 -0.3655920000     -2.8465460000     -0.6395870000
C                 -1.2541500000     -0.7400660000     -0.0012010000
H                 -3.8552340000     -2.8381950000     -0.0281840000
H                 -2.1646140000     -3.1740370000     -0.3908260000
H                 -4.6122200000     -0.7127700000      0.6161710000
H                 -4.1588000000      1.6506820000      1.0046480000
H                 -2.6315790000      3.4209870000      1.1335530000
H                 -0.9299010000      3.2430680000      0.7258230000
H                  1.9901110000     -3.0093200000     -1.0456190000
H                  4.3515310000     -2.1974000000     -1.1783450000
H                  4.8593470000      0.1773610000     -0.6302660000
$end
$rem
MAX_SCF_CYCLES=200
BASIS  =  6-311++G(d,p)
GUI  =  2
JOB_TYPE  =  SP
METHOD  =  B3LYP
SOLVENT_METHOD = COSMO
$end
$solvent
dielectric 37.219
opticaldielectric 1.43
$end

--------------------------------------------------------------

             Standard Nuclear Orientation (Angstroms)
    I     Atom           X                Y                Z
 ----------------------------------------------------------------
    1      N       3.8089652836    -1.8485111873    -0.1009816521
    2      C       3.1763162458    -0.6472493575    -0.0552007926
    3      C       3.9638263681     0.5392280698    -0.0793926543
    4      C       3.3957697105     1.7762474387    -0.0282078807
    5      C       1.9839051992     1.9511601554     0.0500942232
    6      N       1.4917793554     3.2145226006     0.1308360763
    7      C       1.1684834242     0.7950940061     0.0495625494
    8      C      -0.2825350493     0.9519104538     0.0959785472
    9      O      -0.8367488964     2.0529540036     0.2052637457
   10      C      -1.1270157078    -0.2701296329     0.0221647217
   11      C      -0.5436405811    -1.5477287695     0.0426042727
   12      C      -1.3421119412    -2.6967115365     0.0530588351
   13      C      -2.7243603777    -2.5887702134     0.0467521636
   14      C      -3.3254215612    -1.3299984177     0.0137655413
   15      C      -2.5262186503    -0.1994031839    -0.0107187485
   16      N      -3.2585529180     1.0915856617    -0.1166052831
   17      O      -3.3262560347     1.5941214831    -1.2250368069
   18      O      -3.8161045025     1.4933986049     0.8911899571
   19      C       0.9377517395    -1.7117592239     0.0305248329
   20      O       1.4081008068    -2.8595726475     0.0280325961
   21      C       1.7694590707    -0.5136843973     0.0043996204
   22      H       4.8134222980    -1.8896812321    -0.0927185514
   23      H       3.2441059150    -2.6880752337    -0.0446752186
   24      H       5.0435753284     0.4450251034    -0.1354796388
   25      H       4.0273558690     2.6587496028    -0.0399218900
   26      H       2.1099393398     4.0010478929     0.0289942084
   27      H       0.4860129125     3.3371950549     0.1545701111
   28      H      -0.8497618784    -3.6603046668     0.0677605777
   29      H      -3.3437058287    -3.4776975594     0.0620237892
   30      H      -4.4034643258    -1.2258823864    -0.0012047003
 ----------------------------------------------------------------

   10   -1004.2667332642      4.24e-06  Convergence criterion met
 Total energy in the final basis set =    -1004.2667332642
    5   -1004.2944380298      8.14e-06  Convergence criterion met
 Total energy in the final basis set =    -1004.2944380298

                    Orbital Energies (a.u.)
 --------------------------------------------------------------

 Alpha MOs
 -- Occupied --
-19.1874 -19.1864 -19.1209 -19.1178 -14.5773 -14.3359 -14.3356 -10.2763
-10.2720 -10.2574 -10.2467 -10.2463 -10.2233 -10.2128 -10.2127 -10.2040
-10.2005 -10.2003 -10.1998 -10.1991 -10.1977  -1.2639  -1.0923  -1.0586
 -1.0522  -0.9492  -0.9388  -0.9093  -0.8560  -0.8268  -0.8122  -0.7778
 -0.7474  -0.7229  -0.6896  -0.6686  -0.6610  -0.6133  -0.6000  -0.5920
 -0.5707  -0.5603  -0.5530  -0.5471  -0.5360  -0.5254  -0.5078  -0.5001
 -0.4911  -0.4789  -0.4724  -0.4586  -0.4508  -0.4494  -0.4282  -0.4194
 -0.4179  -0.4150  -0.4012  -0.3961  -0.3828  -0.3815  -0.3686  -0.3454
 -0.3388  -0.3357  -0.2987  -0.2854  -0.2840  -0.2821  -0.2793  -0.2729
 -0.2044

          Ground-State Mulliken Net Atomic Charges

     Atom                 Charge (a.u.)
  ----------------------------------------
      1 N                    -0.460904
      2 C                     0.064077
      3 C                    -0.410571
      4 C                    -0.307857
      5 C                     0.040310
      6 N                    -0.457160
      7 C                     0.361415
      8 C                    -0.468887
      9 O                    -0.323229
     10 C                     0.344043
     11 C                     0.449653
     12 C                    -0.255855
     13 C                    -0.357458
     14 C                     0.016365
     15 C                    -0.269541
     16 N                    -0.120069
     17 O                    -0.026018
     18 O                    -0.025577
     19 C                    -0.373382
     20 O                    -0.374143
     21 C                     0.414028
     22 H                     0.331612
     23 H                     0.355993
     24 H                     0.225955
     25 H                     0.227623
     26 H                     0.330403
     27 H                     0.360707
     28 H                     0.203961
     29 H                     0.246605
     30 H                     0.257901
  ----------------------------------------
  Sum of atomic charges =     0.000000

                    Cartesian Multipole Moments
 -----------------------------------------------------------------
    Charge (ESU x 10^10)
                 0.0000
    Dipole Moment (Debye)
         X       8.7721      Y      -1.8351      Z      -0.1864
       Tot       8.9639
    Quadrupole Moments (Debye-Ang)
        XX     -89.2197     XY      30.9288     YY    -111.0667
        XZ      -0.3517     YZ      -0.6216     ZZ    -128.0674

 Total job time:  121.32s(wall), 703.54s(cpu)
        *  Thank you very much for using Q-Chem.  Have a nice day.  *
