 Gaussian 16, Revision A.03,
 Gaussian 16:  ES64L-G16RevA.03 25-Dec-2016

 ----------------------------------------------------------------------
 #P UB3LYP/6-311++G(d,p) nosym opt freq SCRF=(PCM,Solvent=n,n-DiMethylF
 ormamide)
 ----------------------------------------------------------------------

 -------
 Reduced
 -------
 Symbolic Z-matrix:
 Charge = -2 Multiplicity = 1

 SCF Done:  E(UB3LYP) =  -914.948629921     A.U. after   16 cycles
 SCF Done:  E(UB3LYP) =  -914.949933062     A.U. after   13 cycles
 SCF Done:  E(UB3LYP) =  -914.949616411     A.U. after   13 cycles
 SCF Done:  E(UB3LYP) =  -914.950536911     A.U. after   13 cycles
 SCF Done:  E(UB3LYP) =  -914.950627750     A.U. after   12 cycles
 SCF Done:  E(UB3LYP) =  -914.950551447     A.U. after   13 cycles
 SCF Done:  E(UB3LYP) =  -914.950654513     A.U. after   12 cycles
 SCF Done:  E(UB3LYP) =  -914.950746301     A.U. after   12 cycles
 SCF Done:  E(UB3LYP) =  -914.950760827     A.U. after   11 cycles
 SCF Done:  E(UB3LYP) =  -914.950761712     A.U. after    9 cycles
 Optimization completed.
    -- Stationary point found.
 Normal termination of Gaussian 16 at Sat Feb 10 22:52:29 2024.

 ----------------------------------------------------------------------
 #P Geom=AllCheck Guess=TCheck SCRF=Check GenChk UB3LYP/6-311++G(d,p) F
 req
 ----------------------------------------------------------------------

 Structure from the checkpoint file:  "202-an.chk"
 -------
 Reduced
 -------
 Charge = -2 Multiplicity = 1

                          Input orientation:
 ---------------------------------------------------------------------
 Center     Atomic      Atomic             Coordinates (Angstroms)
 Number     Number       Type             X           Y           Z
 ---------------------------------------------------------------------
      1          8           0        4.873860    0.909805   -0.635082
      2          6           0        3.637519    0.313327   -0.461934
      3          6           0        3.522118   -1.100496   -0.383579
      4          6           0        2.275182   -1.661572   -0.211950
      5          6           0        1.098337   -0.883722   -0.107578
      6          6           0       -0.184757   -1.544668    0.071609
      7          8           0       -0.239516   -2.824658    0.111625
      8          6           0       -1.345723   -0.677600    0.192889
      9          6           0       -2.677678   -1.180053    0.401366
     10          8           0       -2.896761   -2.551955    0.521518
     11          6           0       -3.752610   -0.328428    0.493779
     12          6           0       -3.602007    1.077197    0.394634
     13          6           0       -2.356844    1.660579    0.204703
     14          8           0       -2.197257    2.973001    0.116365
     15          6           0       -1.193164    0.770016    0.102355
     16          6           0        0.083045    1.347866   -0.086938
     17          8           0        0.229819    2.718333   -0.173780
     18          6           0        1.228190    0.547689   -0.187374
     19          6           0        2.530234    1.115758   -0.368797
     20          1           0        5.553767    0.227736   -0.674415
     21          1           0        4.409476   -1.722343   -0.458340
     22          1           0        2.167908   -2.738297   -0.150923
     23          1           0       -3.842957   -2.667981    0.669168
     24          1           0       -4.745200   -0.746182    0.651298
     25          1           0       -4.473340    1.720789    0.470902
     26          1           0       -0.738729    3.054317   -0.069794
     27          1           0        2.637089    2.191543   -0.431728
 ---------------------------------------------------------------------

 SCF Done:  E(UB3LYP) =  -914.950761712     A.U. after    1 cycles

 Alpha  occ. eigenvalues --  -19.14554 -19.12426 -19.08490 -19.04099 -19.02612
 Alpha  occ. eigenvalues --  -10.21925 -10.19912 -10.19268 -10.18856 -10.18154
 Alpha  occ. eigenvalues --  -10.15772 -10.15572 -10.15241 -10.15052 -10.14734
 Alpha  occ. eigenvalues --  -10.14699 -10.14122 -10.13939 -10.12740  -1.05145
 Alpha  occ. eigenvalues --   -1.02999  -1.00166  -0.94650  -0.94195  -0.83660
 Alpha  occ. eigenvalues --   -0.80805  -0.76127  -0.73589  -0.71129  -0.69621
 Alpha  occ. eigenvalues --   -0.65128  -0.61371  -0.61108  -0.56829  -0.56364
 Alpha  occ. eigenvalues --   -0.52514  -0.52248  -0.49699  -0.47222  -0.46136
 Alpha  occ. eigenvalues --   -0.44399  -0.43142  -0.42560  -0.40990  -0.40656
 Alpha  occ. eigenvalues --   -0.40102  -0.39323  -0.39090  -0.37047  -0.36794
 Alpha  occ. eigenvalues --   -0.36696  -0.36241  -0.35298  -0.34781  -0.33065
 Alpha  occ. eigenvalues --   -0.32709  -0.32223  -0.31428  -0.30088  -0.26644
 Alpha  occ. eigenvalues --   -0.24714  -0.22819  -0.21935  -0.21050  -0.19750
 Alpha  occ. eigenvalues --   -0.17512  -0.11649
 Alpha virt. eigenvalues --   -0.02374  -0.00090   0.00327   0.00416   0.01381
 Alpha virt. eigenvalues --    0.01938   0.02412   0.03348   0.04251   0.04493
 Alpha virt. eigenvalues --    0.05113   0.05413   0.06440   0.06525   0.06776

  Beta  occ. eigenvalues --  -19.14554 -19.12426 -19.08490 -19.04099 -19.02612
  Beta  occ. eigenvalues --  -10.21925 -10.19912 -10.19268 -10.18856 -10.18154
  Beta  occ. eigenvalues --  -10.15772 -10.15572 -10.15241 -10.15052 -10.14734
  Beta  occ. eigenvalues --  -10.14699 -10.14122 -10.13939 -10.12740  -1.05145
  Beta  occ. eigenvalues --   -1.02999  -1.00166  -0.94650  -0.94195  -0.83660
  Beta  occ. eigenvalues --   -0.80805  -0.76127  -0.73589  -0.71129  -0.69621
  Beta  occ. eigenvalues --   -0.65128  -0.61371  -0.61108  -0.56829  -0.56364
  Beta  occ. eigenvalues --   -0.52514  -0.52248  -0.49699  -0.47222  -0.46136
  Beta  occ. eigenvalues --   -0.44399  -0.43142  -0.42560  -0.40990  -0.40656
  Beta  occ. eigenvalues --   -0.40102  -0.39323  -0.39090  -0.37047  -0.36794
  Beta  occ. eigenvalues --   -0.36696  -0.36241  -0.35298  -0.34781  -0.33065
  Beta  occ. eigenvalues --   -0.32709  -0.32223  -0.31428  -0.30088  -0.26644
  Beta  occ. eigenvalues --   -0.24714  -0.22819  -0.21935  -0.21050  -0.19750
  Beta  occ. eigenvalues --   -0.17512  -0.11649
  Beta virt. eigenvalues --   -0.02374  -0.00090   0.00327   0.00416   0.01381
  Beta virt. eigenvalues --    0.01938   0.02412   0.03348   0.04251   0.04493
  Beta virt. eigenvalues --    0.05113   0.05413   0.06440   0.06525   0.06776

 Mulliken charges and spin densities:
               1          2
     1  O   -0.302615  -0.000000
     2  C   -0.611907   0.000000
     3  C   -0.093137  -0.000000
     4  C   -0.057610   0.000000
     5  C   -0.194270   0.000000
     6  C   -0.315154   0.000000
     7  O   -0.607895  -0.000000
     8  C    0.364326  -0.000000
     9  C   -0.374650  -0.000000
    10  O   -0.288309   0.000000
    11  C   -0.225396  -0.000000
    12  C   -0.135249   0.000000
    13  C   -0.579805  -0.000000
    14  O   -0.681938   0.000000
    15  C    0.812983  -0.000000
    16  C   -0.072737  -0.000000
    17  O   -0.544863  -0.000000
    18  C    0.680357   0.000000
    19  C   -0.524192   0.000000
    20  H    0.291680   0.000000
    21  H    0.167079  -0.000000
    22  H    0.156085  -0.000000
    23  H    0.277812  -0.000000
    24  H    0.131951   0.000000
    25  H    0.145174  -0.000000
    26  H    0.421343   0.000000
    27  H    0.160938   0.000000
 Sum of Mulliken charges =  -2.00000   0.00000

 Dipole moment (field-independent basis, Debye):
    X=              6.2918    Y=             -3.9288    Z=             -0.3166  Tot=              7.4244
 Quadrupole moment (field-independent basis, Debye-Ang):
   XX=           -132.1015   YY=           -182.6414   ZZ=           -121.4489
   XY=              6.0937   XZ=              0.8550   YZ=              1.7338

  Exact polarizability: 547.369 -13.160 361.443 -48.546  -8.034 157.648
 Approx polarizability: 599.230  -2.892 441.050 -53.223 -12.142 176.240

                      1                      2                      3
                      A                      A                      A
 Frequencies --     56.4552                71.3263               101.1085
 Red. masses --      6.9900                 7.2445                 7.1082
 Frc consts  --      0.0131                 0.0217                 0.0428
 IR Inten    --     14.5139                 1.7512                 6.8644

                      4                      5                      6
                      A                      A                      A
 Frequencies --    108.8290               166.2986               179.1554
 Red. masses --      8.2214                 6.4279                 7.0994
 Frc consts  --      0.0574                 0.1047                 0.1343
 IR Inten    --      6.7161                 0.3380                18.1585

                      7                      8                      9
                      A                      A                      A
 Frequencies --    223.3024               259.5062               283.8956
 Red. masses --      6.1855                 1.0922                 7.8515
 Frc consts  --      0.1817                 0.0433                 0.3728
 IR Inten    --      4.5903               147.0558                17.1463

                     10                     11                     12
                      A                      A                      A
 Frequencies --    296.4056               322.0513               334.4121
 Red. masses --      1.5850                 3.1235                 9.2042
 Frc consts  --      0.0820                 0.1909                 0.6065
 IR Inten    --    101.3119                18.7377                40.3539

                     13                     14                     15
                      A                      A                      A
 Frequencies --    362.4252               371.4012               386.3187
 Red. masses --     10.4526                 4.7439                 6.2188
 Frc consts  --      0.8089                 0.3855                 0.5468
 IR Inten    --      5.2237                20.4863                 5.1842

                     16                     17                     18
                      A                      A                      A
 Frequencies --    399.4099               406.9012               434.4040
 Red. masses --      6.6440                 6.3817                 6.3383
 Frc consts  --      0.6245                 0.6225                 0.7047
 IR Inten    --     65.1642                16.6355                27.1425

                     19                     20                     21
                      A                      A                      A
 Frequencies --    445.4320               478.2946               488.8129
 Red. masses --      3.3275                10.3424                 7.9503
 Frc consts  --      0.3890                 1.3940                 1.1192
 IR Inten    --      3.7057                 9.4498                 1.4527

                     22                     23                     24
                      A                      A                      A
 Frequencies --    523.1648               541.9446               584.1557
 Red. masses --      4.1197                 8.1802                 4.9308
 Frc consts  --      0.6643                 1.4155                 0.9913
 IR Inten    --      7.9714                 8.0723                57.7116

                     25                     26                     27
                      A                      A                      A
 Frequencies --    592.4383               640.2040               662.4884
 Red. masses --      3.4901                 4.0392                 6.5966
 Frc consts  --      0.7217                 0.9754                 1.7058
 IR Inten    --     41.2662                 3.3386                26.8947

                     28                     29                     30
                      A                      A                      A
 Frequencies --    681.6635               708.1788               720.4535
 Red. masses --      6.9364                 4.9189                 3.1788
 Frc consts  --      1.8990                 1.4535                 0.9721
 IR Inten    --     10.0992                 0.6506                 2.0224

                     31                     32                     33
                      A                      A                      A
 Frequencies --    735.0925               756.7442               779.5618
 Red. masses --      7.0222                 1.8415                 2.3275
 Frc consts  --      2.2357                 0.6213                 0.8334
 IR Inten    --     68.1105                60.0608                82.4572

                     34                     35                     36
                      A                      A                      A
 Frequencies --    792.5340               798.3227               824.8670
 Red. masses --      3.8903                 7.6750                 1.3898
 Frc consts  --      1.4397                 2.8819                 0.5572
 IR Inten    --      5.6427               247.0349                 1.3622

                     37                     38                     39
                      A                      A                      A
 Frequencies --    859.7545               873.2345               905.2261
 Red. masses --      1.4549                 6.4251                 8.6037
 Frc consts  --      0.6336                 2.8866                 4.1538
 IR Inten    --     47.2056                31.7793               391.1230

                     40                     41                     42
                      A                      A                      A
 Frequencies --    968.5043               980.1062               992.3699
 Red. masses --      1.3077                 3.5538                 1.0498
 Frc consts  --      0.7227                 2.0113                 0.6091
 IR Inten    --      4.5406               125.1114               132.2099

                     43                     44                     45
                      A                      A                      A
 Frequencies --   1056.5550              1084.0777              1119.7407
 Red. masses --      2.6857                 3.1554                 1.6666
 Frc consts  --      1.7664                 2.1848                 1.2311
 IR Inten    --    206.0213                92.5892               285.2003

                     46                     47                     48
                      A                      A                      A
 Frequencies --   1157.7141              1173.2665              1198.0511
 Red. masses --      1.9396                 1.7474                 2.1751
 Frc consts  --      1.5317                 1.4172                 1.8394
 IR Inten    --     32.9632              1005.4108               129.4160

                     49                     50                     51
                      A                      A                      A
 Frequencies --   1202.8203              1221.1957              1226.9230
 Red. masses --      4.6300                 1.8255                 1.7166
 Frc consts  --      3.9466                 1.6040                 1.5225
 IR Inten    --     15.1099               158.9332                10.4510

                     52                     53                     54
                      A                      A                      A
 Frequencies --   1257.3420              1271.0656              1291.0825
 Red. masses --      2.3530                 3.8375                 6.1619
 Frc consts  --      2.1917                 3.6529                 6.0517
 IR Inten    --     96.6018               645.5010                84.8839

                     55                     56                     57
                      A                      A                      A
 Frequencies --   1339.7413              1351.9545              1388.6146
 Red. masses --      3.3805                 4.6491                 4.0843
 Frc consts  --      3.5749                 5.0066                 4.6402
 IR Inten    --     93.5690               529.2618               636.2430

                     58                     59                     60
                      A                      A                      A
 Frequencies --   1406.9019              1443.4631              1453.4600
 Red. masses --      4.0009                 2.5510                 4.4062
 Frc consts  --      4.6659                 3.1316                 5.4843
 IR Inten    --    754.2353               260.7356               795.9101

                     61                     62                     63
                      A                      A                      A
 Frequencies --   1494.7888              1508.8853              1534.7422
 Red. masses --      3.1724                 3.2412                 4.8524
 Frc consts  --      4.1763                 4.3477                 6.7341
 IR Inten    --    247.8413               447.1371               207.0595

                     64                     65                     66
                      A                      A                      A
 Frequencies --   1574.8956              1597.9480              1646.1394
 Red. masses --      5.8607                 5.9026                 3.5926
 Frc consts  --      8.5645                 8.8802                 5.7357
 IR Inten    --    104.8886               210.9582               533.1729

                     67                     68                     69
                      A                      A                      A
 Frequencies --   1655.8012              2527.2239              3116.7834
 Red. masses --      2.4894                 1.0820                 1.0873
 Frc consts  --      4.0212                 4.0716                 6.2230
 IR Inten    --     49.3641              1651.7105                80.2777

                     70                     71                     72
                      A                      A                      A
 Frequencies --   3148.2511              3151.5623              3179.7492
 Red. masses --      1.0884                 1.0910                 1.0916
 Frc consts  --      6.3557                 6.3845                 6.5029
 IR Inten    --     21.2756                81.7909                29.3742

                     73                     74                     75
                      A                      A                      A
 Frequencies --   3189.5403              3795.3013              3821.4769
 Red. masses --      1.0897                 1.0657                 1.0664
 Frc consts  --      6.5317                 9.0441                 9.1751
 IR Inten    --     24.9531                47.4100               160.6483

 - Thermochemistry -
 -------------------
 Temperature   298.150 Kelvin.  Pressure   1.00000 Atm.
 Atom     1 has atomic number  8 and mass  15.99491

 Molecular mass:   256.03717 amu.
 Principal axes and moments of inertia in atomic units:
                           1         2         3
     Eigenvalues --  2662.645126202.088198864.03039
           X            0.99187  -0.02997   0.12371
           Y            0.02419   0.99856   0.04798
           Z           -0.12497  -0.04460   0.99116
 This molecule is an asymmetric top.
 Rotational symmetry number  1.
 Warning -- assumption of classical behavior for rotation
           may cause significant error
 Rotational temperatures (Kelvin)      0.03253     0.01397     0.00977
 Rotational constants (GHZ):           0.67780     0.29099     0.20360
 Zero-point vibrational energy     488580.1 (Joules/Mol)
                                  116.77345 (Kcal/Mol)
 Warning -- explicit consideration of  25 degrees of freedom as
           vibrations may cause significant error
 Vibrational temperatures:     81.23   102.62   145.47   156.58   239.27
          (Kelvin)            257.76   321.28   373.37   408.46   426.46
                              463.36   481.14   521.45   534.36   555.83
                              574.66   585.44   625.01   640.88   688.16
                              703.29   752.72   779.74   840.47   852.39
                              921.11   953.17   980.76  1018.91  1036.57
                             1057.63  1088.79  1121.62  1140.28  1148.61
                             1186.80  1236.99  1256.39  1302.42  1393.46
                             1410.15  1427.80  1520.15  1559.75  1611.06
                             1665.69  1688.07  1723.73  1730.59  1757.03
                             1765.27  1809.03  1828.78  1857.58  1927.59
                             1945.16  1997.91  2024.22  2076.82  2091.20
                             2150.67  2170.95  2208.15  2265.92  2299.09
                             2368.43  2382.33  3636.11  4484.36  4529.63
                             4534.40  4574.95  4589.04  5460.59  5498.25

 Zero-point correction=                           0.186090 (Hartree/Particle)
 Thermal correction to Energy=                    0.200901
 Thermal correction to Enthalpy=                  0.201845
 Thermal correction to Gibbs Free Energy=         0.144870
 Sum of electronic and zero-point Energies=           -914.764671
 Sum of electronic and thermal Energies=              -914.749861
 Sum of electronic and thermal Enthalpies=            -914.748917
 Sum of electronic and thermal Free Energies=         -914.805892

                     E (Thermal)             CV                S
                      KCal/Mol        Cal/Mol-Kelvin    Cal/Mol-Kelvin
 Total                  126.067             59.912            119.914
 Electronic               0.000              0.000              0.000
 Translational            0.889              2.981             42.520
 Rotational               0.889              2.981             33.348
 Vibrational            124.290             53.951             44.046
 Vibration     1          0.596              1.975              4.577
 Vibration     2          0.598              1.968              4.116
 Vibration     3          0.604              1.948              3.433
 Vibration     4          0.606              1.942              3.290
 Vibration     5          0.624              1.884              2.477
 Vibration     6          0.629              1.868              2.337
 Vibration     7          0.649              1.806              1.932
 Vibration     8          0.668              1.747              1.665
 Vibration     9          0.682              1.704              1.510
 Vibration    10          0.690              1.680              1.437
 Vibration    11          0.707              1.631              1.300
 Vibration    12          0.716              1.607              1.239
 Vibration    13          0.736              1.550              1.112
 Vibration    14          0.743              1.531              1.074
 Vibration    15          0.755              1.499              1.014
 Vibration    16          0.765              1.471              0.965
 Vibration    17          0.772              1.455              0.938
 Vibration    18          0.795              1.395              0.844
 Vibration    19          0.805              1.371              0.810
 Vibration    20          0.835              1.298              0.715
 Vibration    21          0.845              1.275              0.687
 Vibration    22          0.878              1.199              0.603
 Vibration    23          0.897              1.157              0.561
 Vibration    24          0.941              1.066              0.478
 Vibration    25          0.950              1.048              0.463

                           ! Non-Optimized Parameters !
 Normal termination of Gaussian 16 at Sat Feb 10 23:45:42 2024.
