 Gaussian 16, Revision A.03,
 Gaussian 16:  ES64L-G16RevA.03 25-Dec-2016

 ----------------------------------------------------------------
 #P UB3LYP/6-311++G(d,p) SCRF=(PCM,Solvent=n,n-DiMethylFormamide)
 ----------------------------------------------------------------

 -------
 Reduced
 -------
 Symbolic Z-matrix:
 Charge = -2 Multiplicity = 1

                         Standard orientation:
 ---------------------------------------------------------------------
 Center     Atomic      Atomic             Coordinates (Angstroms)
 Number     Number       Type             X           Y           Z
 ---------------------------------------------------------------------
      1          6           0        0.149130   -1.513676   -0.000238
      2          6           0       -1.060337   -0.688033   -0.000034
      3          6           0       -1.060334    0.688036    0.000057
      4          6           0        0.149138    1.513670    0.000308
      5          6           0        1.347532    0.724294    0.000090
      6          6           0        1.347529   -0.724308   -0.000056
      7          8           0        0.105346   -2.776843    0.000391
      8          8           0        0.105360    2.776836   -0.000399
      9          6           0        2.571273   -1.435259   -0.000148
     10          6           0        2.571270    1.435249    0.000145
     11          7           0        3.580595   -2.017069   -0.000170
     12          7           0        3.580581    2.017081    0.000126
     13         17           0       -2.585447   -1.595601   -0.000101
     14         17           0       -2.585441    1.595609    0.000079
 ---------------------------------------------------------------------

 SCF Done:  E(UB3LYP) =  -1485.66221543     A.U. after   15 cycles

 The electronic state is 1-A.
 Alpha  occ. eigenvalues -- -101.54938-101.54938 -19.05405 -19.05405 -14.29745
 Alpha  occ. eigenvalues --  -14.29744 -10.23102 -10.23041 -10.22728 -10.22727
 Alpha  occ. eigenvalues --  -10.20330 -10.20328 -10.18492 -10.18456  -9.46372
 Alpha  occ. eigenvalues --   -9.46371  -7.22818  -7.22818  -7.21897  -7.21897
 Alpha  occ. eigenvalues --   -7.21801  -7.21801  -0.98586  -0.98170  -0.90070
 Alpha  occ. eigenvalues --   -0.89462  -0.88356  -0.83774  -0.81637  -0.73779
 Alpha  occ. eigenvalues --   -0.71046  -0.62888  -0.59827  -0.50305  -0.50244
 Alpha  occ. eigenvalues --   -0.49611  -0.44262  -0.42388  -0.40474  -0.39724
 Alpha  occ. eigenvalues --   -0.39222  -0.37449  -0.37301  -0.36673  -0.36518
 Alpha  occ. eigenvalues --   -0.34231  -0.33035  -0.32889  -0.32665  -0.32154
 Alpha  occ. eigenvalues --   -0.31995  -0.29942  -0.25721  -0.23886  -0.23585
 Alpha  occ. eigenvalues --   -0.23279  -0.15907
 Alpha virt. eigenvalues --   -0.05131  -0.01189   0.01081   0.01769   0.02338
 Alpha virt. eigenvalues --    0.02498   0.03109   0.03368   0.04641   0.05033
 Alpha virt. eigenvalues --    0.05569   0.06018   0.06244   0.06718   0.07262

  Beta  occ. eigenvalues -- -101.54938-101.54938 -19.05405 -19.05405 -14.29745
  Beta  occ. eigenvalues --  -14.29744 -10.23102 -10.23041 -10.22728 -10.22727
  Beta  occ. eigenvalues --  -10.20330 -10.20328 -10.18492 -10.18456  -9.46372
  Beta  occ. eigenvalues --   -9.46371  -7.22818  -7.22818  -7.21897  -7.21897
  Beta  occ. eigenvalues --   -7.21801  -7.21801  -0.98586  -0.98170  -0.90070
  Beta  occ. eigenvalues --   -0.89462  -0.88356  -0.83774  -0.81637  -0.73779
  Beta  occ. eigenvalues --   -0.71046  -0.62888  -0.59827  -0.50305  -0.50244
  Beta  occ. eigenvalues --   -0.49611  -0.44262  -0.42388  -0.40474  -0.39724
  Beta  occ. eigenvalues --   -0.39222  -0.37449  -0.37301  -0.36673  -0.36518
  Beta  occ. eigenvalues --   -0.34231  -0.33035  -0.32889  -0.32665  -0.32154
  Beta  occ. eigenvalues --   -0.31995  -0.29942  -0.25721  -0.23886  -0.23585
  Beta  occ. eigenvalues --   -0.23279  -0.15907
  Beta virt. eigenvalues --   -0.05131  -0.01189   0.01081   0.01769   0.02338
  Beta virt. eigenvalues --    0.02498   0.03109   0.03368   0.04641   0.05033
  Beta virt. eigenvalues --    0.05569   0.06018   0.06244   0.06718   0.07262

 Mulliken charges and spin densities:
               1          2
     1  C   -1.550793  -0.000000
     2  C    0.754365   0.000000
     3  C    0.754400   0.000000
     4  C   -1.550780  -0.000000
     5  C    1.794921   0.000000
     6  C    1.794860  -0.000000
     7  O   -0.538077   0.000000
     8  O   -0.538075   0.000000
     9  C   -1.438925   0.000000
    10  C   -1.438905  -0.000000
    11  N   -0.376978  -0.000000
    12  N   -0.376981   0.000000
    13  Cl   0.355486  -0.000000
    14  Cl   0.355483  -0.000000
 Sum of Mulliken charges =  -2.00000   0.00000

 Dipole moment (field-independent basis, Debye):
    X=            -10.9706    Y=             -0.0000    Z=              0.0002  Tot=             10.9706
 Quadrupole moment (field-independent basis, Debye-Ang):
   XX=           -161.8400   YY=           -166.2230   ZZ=            -97.4248
   XY=             -0.0002   XZ=              0.0004   YZ=              0.0055

 Normal termination of Gaussian 16 at Sun Jan 21 07:26:41 2024.
