 Q-Chem 5.4, Q-Chem, Inc., Pleasanton, CA (2021)
 Q-Chem 5.4.0 for Intel X86 EM64T Linux

User input:
--------------------------------------------------------------
$molecule
-2 1
C                 -3.1564300000     -3.2101950000     -0.9354310000
C                 -2.1401340000     -2.1708650000     -0.9729510000
C                 -2.4889360000     -0.8292320000     -0.7311020000
C                 -3.8066580000     -0.3631610000     -0.4247160000
C                 -4.7957540000     -1.4125850000     -0.3901270000
C                 -4.4842130000     -2.7350020000     -0.6335800000
O                 -2.9241790000     -4.4575380000     -1.1309870000
O                 -4.0972020000      0.8742870000     -0.2147860000
C                 -0.7160980000     -2.4917090000     -1.1973390000
C                 -0.0820070000     -3.4721540000     -2.0676890000
C                  0.3308540000     -1.7961350000     -0.6257490000
C                  1.3294160000     -3.2784220000     -1.9887170000
N                  1.5539110000     -2.2553440000     -1.1000520000
C                 -0.5643760000     -4.4781000000     -2.9222710000
C                  0.3386260000     -5.2310120000     -3.6650480000
C                  1.7301060000     -5.0187410000     -3.5681140000
C                  2.2427000000     -4.0421450000     -2.7235990000
H                 -1.7222390000     -0.0615620000     -0.8120900000
H                 -5.8215490000     -1.1165910000     -0.1703940000
H                 -5.2582200000     -3.5006780000     -0.5955180000
H                  0.2938130000     -0.9891670000      0.0888570000
H                  2.4599030000     -1.9009310000     -0.8339520000
H                 -1.6294410000     -4.6750900000     -2.9306060000
H                 -0.0318290000     -6.0146800000     -4.3207530000
H                  2.4129640000     -5.6277680000     -4.1546440000
H                  3.3140100000     -3.8716020000     -2.6423940000
$end
$rem
MAX_SCF_CYCLES=200
BASIS  =  6-311++G(d,p)
GUI  =  2
JOB_TYPE  =  SP
METHOD  =  B3LYP
SOLVENT_METHOD = COSMO
$end
$solvent
dielectric 37.219
opticaldielectric 1.43
$end

--------------------------------------------------------------

             Standard Nuclear Orientation (Angstroms)
    I     Atom           X                Y                Z
 ----------------------------------------------------------------
    1      C       1.4591706718    -1.3119367875    -0.4458034659
    2      C       1.1306903061     0.0633174988    -0.1063208356
    3      C       2.1420667111     0.9551005450     0.2961386615
    4      C       3.5322635462     0.6320054642     0.3983548820
    5      C       3.8330094573    -0.7360012383     0.0535250882
    6      C       2.8602525163    -1.6351452833    -0.3342864638
    7      O       0.6030554997    -2.1863461572    -0.8337755038
    8      O       4.4354624805     1.4689877766     0.7771110930
    9      C      -0.2461541816     0.5820493670    -0.2343281858
   10      C      -1.5329452252    -0.0418684276     0.0408959274
   11      C      -0.5513382237     1.8808015892    -0.5903509009
   12      C      -2.5453485341     0.9476297063    -0.1374759666
   13      N      -1.9210802505     2.1076416735    -0.5266718393
   14      C      -1.9299230407    -1.3289988260     0.4416721161
   15      C      -3.2782965321    -1.5872462363     0.6634917865
   16      C      -4.2594538878    -0.5901498267     0.4796419522
   17      C      -3.9044203386     0.6892624995     0.0712876700
   18      H       1.8678848743     1.9654298540     0.5923811001
   19      H       4.8764404024    -1.0438866404     0.1214136981
   20      H       3.1262154379    -2.6600934760    -0.5902946970
   21      H       0.1177961058     2.6752803307    -0.8806850228
   22      H      -2.3845639543     2.9786651297    -0.7358136182
   23      H      -1.1724666638    -2.1003583832     0.5087709781
   24      H      -3.5883131021    -2.5840891713     0.9660068731
   25      H      -5.3069277026    -0.8226962409     0.6526943962
   26      H      -4.6540869572     1.4642036622    -0.0731091383
 ----------------------------------------------------------------

   30    -744.2652842993      7.83e-06  Convergence criterion met
 Total energy in the final basis set =     -744.2652842993
    6    -744.5582549490      4.83e-06  Convergence criterion met
 Total energy in the final basis set =     -744.5582549490

                    Orbital Energies (a.u.)
 --------------------------------------------------------------

 Alpha MOs
 -- Occupied --
-19.0191 -19.0145 -14.3421 -10.1953 -10.1845 -10.1706 -10.1685 -10.1658
-10.1623 -10.1594 -10.1559 -10.1546 -10.1546 -10.1352 -10.1225 -10.1214
-10.1181  -0.9671  -0.9365  -0.9337  -0.8319  -0.7922  -0.7646  -0.7262
 -0.7194  -0.6882  -0.6420  -0.6129  -0.5888  -0.5794  -0.5439  -0.5315
 -0.5074  -0.4689  -0.4607  -0.4354  -0.4303  -0.4208  -0.4167  -0.4127
 -0.4048  -0.3828  -0.3720  -0.3604  -0.3578  -0.3474  -0.3342  -0.3311
 -0.3255  -0.3181  -0.3122  -0.2773  -0.2329  -0.2264  -0.2197  -0.2003
 -0.1952  -0.1836  -0.1167

          Ground-State Mulliken Net Atomic Charges

     Atom                 Charge (a.u.)
  ----------------------------------------
      1 C                    -1.108943
      2 C                     1.056601
      3 C                    -0.629175
      4 C                    -0.329204
      5 C                    -0.163242
      6 C                    -0.022385
      7 O                    -0.713908
      8 O                    -0.792968
      9 C                     0.446125
     10 C                     1.167526
     11 C                    -0.274005
     12 C                     0.077015
     13 N                    -0.146849
     14 C                    -0.858081
     15 C                    -0.614931
     16 C                    -0.306819
     17 C                    -0.542218
     18 H                     0.125423
     19 H                     0.147870
     20 H                     0.147046
     21 H                     0.213419
     22 H                     0.356654
     23 H                     0.184080
     24 H                     0.195263
     25 H                     0.191618
     26 H                     0.194091
  ----------------------------------------
  Sum of atomic charges =    -2.000000

                    Cartesian Multipole Moments
 -----------------------------------------------------------------
    Charge (ESU x 10^10)
                -9.6064
    Dipole Moment (Debye)
         X     -23.0218      Y       5.3876      Z      -0.8334
       Tot      23.6585
    Quadrupole Moments (Debye-Ang)
        XX    -197.7123     XY     -28.7186     YY    -122.6466
        XZ     -10.7721     YZ     -16.4273     ZZ    -117.4245

 Total job time:  129.33s(wall), 981.52s(cpu)
        *  Thank you very much for using Q-Chem.  Have a nice day.  *
