 Gaussian 16, Revision A.03,
 Gaussian 16:  ES64L-G16RevA.03 25-Dec-2016

 ----------------------------------------------------------------------
 #P UB3LYP/6-311++G(d,p) nosym opt freq SCRF=(PCM,Solvent=n,n-DiMethylF
 ormamide)
 ----------------------------------------------------------------------

 -------
 Reduced
 -------
 Symbolic Z-matrix:
 Charge = -2 Multiplicity = 1

 SCF Done:  E(UB3LYP) =  -1011.15640741     A.U. after   18 cycles
 SCF Done:  E(UB3LYP) =  -1011.15795059     A.U. after   17 cycles
 SCF Done:  E(UB3LYP) =  -1011.15838856     A.U. after   14 cycles
 SCF Done:  E(UB3LYP) =  -1011.15848371     A.U. after   14 cycles
 SCF Done:  E(UB3LYP) =  -1011.15853316     A.U. after   14 cycles
 SCF Done:  E(UB3LYP) =  -1011.15854762     A.U. after   14 cycles
 SCF Done:  E(UB3LYP) =  -1011.15855230     A.U. after   12 cycles
 SCF Done:  E(UB3LYP) =  -1011.15855273     A.U. after   12 cycles
 SCF Done:  E(UB3LYP) =  -1011.15855331     A.U. after   12 cycles
 Optimization completed.
    -- Stationary point found.
 Normal termination of Gaussian 16 at Sat Feb 10 13:07:48 2024.

 ----------------------------------------------------------------------
 #P Geom=AllCheck Guess=TCheck SCRF=Check GenChk UB3LYP/6-311++G(d,p) F
 req
 ----------------------------------------------------------------------

 Structure from the checkpoint file:  "102-an.chk"
 -------
 Reduced
 -------
 Charge = -2 Multiplicity = 1

                          Input orientation:
 ---------------------------------------------------------------------
 Center     Atomic      Atomic             Coordinates (Angstroms)
 Number     Number       Type             X           Y           Z
 ---------------------------------------------------------------------
      1          6           0        2.065737    3.599380    3.973355
      2          6           0        3.026731    3.570208    2.912151
      3          6           0        3.322448    2.438609    2.159399
      4          6           0        2.691863    1.173129    2.368913
      5          6           0        1.430510    2.331441    4.179110
      6          6           0        1.737638    1.182361    3.415379
      7          8           0        1.812388    4.682817    4.651156
      8          8           0        2.975636    0.106673    1.652699
      9         16           0        0.221359    2.149570    5.489071
     10          6           0       -1.333285    2.698218    4.781947
     11          6           0       -2.478941    2.630403    5.589898
     12          6           0       -1.451042    3.178629    3.473214
     13          6           0       -2.693403    3.582480    2.983552
     14          6           0       -3.716032    3.033748    5.092865
     15          6           0       -3.832683    3.512844    3.785845
     16          1           0        3.545609    4.502629    2.696319
     17          1           0        4.069161    2.507183    1.369212
     18          1           0        1.211454    0.256925    3.635889
     19          1           0       -2.401580    2.259698    6.607042
     20          1           0       -0.567490    3.235591    2.848821
     21          1           0       -2.767757    3.954600    1.967012
     22          1           0       -4.592011    2.972697    5.729888
     23          1           0       -4.795959    3.827180    3.400756
 ---------------------------------------------------------------------

 SCF Done:  E(UB3LYP) =  -1011.15855331     A.U. after    1 cycles

 Alpha  occ. eigenvalues --  -88.83305 -19.01684 -19.01214 -10.20031 -10.17687
 Alpha  occ. eigenvalues --  -10.17429 -10.17341 -10.17241 -10.16895 -10.16850
 Alpha  occ. eigenvalues --  -10.16818 -10.15569 -10.12948 -10.12819 -10.12690
 Alpha  occ. eigenvalues --   -7.91883  -5.88274  -5.87864  -5.87328  -0.92705
 Alpha  occ. eigenvalues --   -0.91600  -0.85946  -0.79664  -0.76860  -0.74586
 Alpha  occ. eigenvalues --   -0.72146  -0.67287  -0.64411  -0.60515  -0.58775
 Alpha  occ. eigenvalues --   -0.55694  -0.52793  -0.50339  -0.45456  -0.44893
 Alpha  occ. eigenvalues --   -0.43140  -0.42930  -0.42049  -0.41480  -0.39254
 Alpha  occ. eigenvalues --   -0.37525  -0.36080  -0.35638  -0.35420  -0.34362
 Alpha  occ. eigenvalues --   -0.33033  -0.32439  -0.31045  -0.30272  -0.28402
 Alpha  occ. eigenvalues --   -0.25641  -0.22433  -0.22081  -0.20523  -0.19591
 Alpha  occ. eigenvalues --   -0.19154  -0.12391
 Alpha virt. eigenvalues --   -0.01440  -0.00965  -0.00038   0.00460   0.01088
 Alpha virt. eigenvalues --    0.01675   0.02148   0.02581   0.03048   0.03903
 Alpha virt. eigenvalues --    0.04627   0.04921   0.05709   0.05960   0.06653

  Beta  occ. eigenvalues --  -88.83305 -19.01684 -19.01214 -10.20031 -10.17687
  Beta  occ. eigenvalues --  -10.17429 -10.17341 -10.17241 -10.16895 -10.16850
  Beta  occ. eigenvalues --  -10.16818 -10.15569 -10.12948 -10.12819 -10.12690
  Beta  occ. eigenvalues --   -7.91883  -5.88274  -5.87864  -5.87328  -0.92705
  Beta  occ. eigenvalues --   -0.91600  -0.85946  -0.79664  -0.76860  -0.74586
  Beta  occ. eigenvalues --   -0.72146  -0.67287  -0.64411  -0.60515  -0.58775
  Beta  occ. eigenvalues --   -0.55694  -0.52793  -0.50339  -0.45456  -0.44893
  Beta  occ. eigenvalues --   -0.43140  -0.42930  -0.42049  -0.41480  -0.39254
  Beta  occ. eigenvalues --   -0.37525  -0.36080  -0.35638  -0.35420  -0.34362
  Beta  occ. eigenvalues --   -0.33033  -0.32439  -0.31045  -0.30272  -0.28402
  Beta  occ. eigenvalues --   -0.25641  -0.22433  -0.22081  -0.20523  -0.19591
  Beta  occ. eigenvalues --   -0.19154  -0.12391
  Beta virt. eigenvalues --   -0.01440  -0.00965  -0.00038   0.00460   0.01088
  Beta virt. eigenvalues --    0.01675   0.02148   0.02581   0.03048   0.03903
  Beta virt. eigenvalues --    0.04627   0.04921   0.05709   0.05960   0.06653

 Mulliken charges and spin densities:
               1          2
     1  C   -0.593466   0.000000
     2  C   -0.204796   0.000000
     3  C    0.054390  -0.000000
     4  C   -0.716583   0.000000
     5  C    1.504517   0.000000
     6  C   -0.446297  -0.000000
     7  O   -0.686472  -0.000000
     8  O   -0.753753  -0.000000
     9  S   -0.381874   0.000000
    10  C    0.314304  -0.000000
    11  C   -0.183761  -0.000000
    12  C   -0.204982   0.000000
    13  C   -0.278823   0.000000
    14  C   -0.458596  -0.000000
    15  C   -0.355734   0.000000
    16  H    0.153150   0.000000
    17  H    0.141737  -0.000000
    18  H    0.156166   0.000000
    19  H    0.182891   0.000000
    20  H    0.193923  -0.000000
    21  H    0.204883   0.000000
    22  H    0.189936  -0.000000
    23  H    0.169240  -0.000000
 Sum of Mulliken charges =  -2.00000   0.00000

 Dipole moment (field-independent basis, Debye):
    X=            -20.3202    Y=            -21.9083    Z=            -32.9587  Tot=             44.4878
 Quadrupole moment (field-independent basis, Debye-Ang):
   XX=           -152.9141   YY=           -198.2041   ZZ=           -238.1319
   XY=            -36.7963   XZ=            -58.0047   YZ=           -104.5726

  Exact polarizability: 319.889 -11.885 255.897 -49.341   7.271 264.949
 Approx polarizability: 330.844  -8.545 290.362 -49.028   3.288 302.479

                      1                      2                      3
                      A                      A                      A
 Frequencies --     35.9039                41.1170                67.5088
 Red. masses --      7.9176                 4.2225                 5.1779
 Frc consts  --      0.0060                 0.0042                 0.0139
 IR Inten    --      2.6553                 0.6377                 2.2617

                      4                      5                      6
                      A                      A                      A
 Frequencies --    133.7307               168.4812               204.9373
 Red. masses --      8.3587                 4.9568                 5.8279
 Frc consts  --      0.0881                 0.0829                 0.1442
 IR Inten    --     30.7191                 0.6991                 0.4377

                      7                      8                      9
                      A                      A                      A
 Frequencies --    239.4369               246.3612               349.9599
 Red. masses --     13.3759                 6.6074                 8.3227
 Frc consts  --      0.4518                 0.2363                 0.6006
 IR Inten    --      4.9632                 7.1172                 3.0204

                     10                     11                     12
                      A                      A                      A
 Frequencies --    373.3289               414.0241               415.6421
 Red. masses --      9.0416                 6.8672                 2.9947
 Frc consts  --      0.7425                 0.6936                 0.3048
 IR Inten    --     12.5636                 3.0397                 0.1110

                     13                     14                     15
                      A                      A                      A
 Frequencies --    437.9255               480.2334               483.3835
 Red. masses --      9.1980                 3.7631                 4.2831
 Frc consts  --      1.0393                 0.5113                 0.5896
 IR Inten    --      7.2521                12.1376                10.6106

                     16                     17                     18
                      A                      A                      A
 Frequencies --    491.0420               559.5338               599.4107
 Red. masses --      5.3682                 5.1870                 2.7286
 Frc consts  --      0.7626                 0.9568                 0.5776
 IR Inten    --     14.9802                 3.5915                12.6205

                     19                     20                     21
                      A                      A                      A
 Frequencies --    629.7028               686.7943               696.5565
 Red. masses --      6.4431                 7.7032                 6.8106
 Frc consts  --      1.5053                 2.1408                 1.9469
 IR Inten    --      1.2301                 4.8794                22.7032

                     22                     23                     24
                      A                      A                      A
 Frequencies --    705.4867               726.8109               746.8885
 Red. masses --      2.1751                 2.9412                 1.5966
 Frc consts  --      0.6378                 0.9154                 0.5248
 IR Inten    --     42.1235                 1.6316                99.1472

                     25                     26                     27
                      A                      A                      A
 Frequencies --    800.2669               814.4959               841.2320
 Red. masses --      6.5030                 1.7733                 1.8070
 Frc consts  --      2.4538                 0.6931                 0.7534
 IR Inten    --    263.1528                32.2591                74.7456

                     28                     29                     30
                      A                      A                      A
 Frequencies --    849.2817               891.5794               907.8952
 Red. masses --      1.2547                 7.1820                 1.3709
 Frc consts  --      0.5332                 3.3637                 0.6658
 IR Inten    --      0.1339                17.8993                 2.4919

                     31                     32                     33
                      A                      A                      A
 Frequencies --    925.3330               985.9393               999.5327
 Red. masses --      1.3239                 1.3607                 1.2757
 Frc consts  --      0.6679                 0.7793                 0.7509
 IR Inten    --      0.3520                 0.0011                 0.0825

                     34                     35                     36
                      A                      A                      A
 Frequencies --   1006.6500              1010.2444              1039.2745
 Red. masses --      4.9235                 3.0118                 2.8773
 Frc consts  --      2.9395                 1.8111                 1.8311
 IR Inten    --     25.8444                69.6753                43.6939

                     37                     38                     39
                      A                      A                      A
 Frequencies --   1083.0993              1093.6838              1113.7474
 Red. masses --      2.5292                 1.7310                 1.4191
 Frc consts  --      1.7481                 1.2199                 1.0371
 IR Inten    --     21.8425                19.6241                19.4778

                     40                     41                     42
                      A                      A                      A
 Frequencies --   1171.6364              1185.1891              1193.1022
 Red. masses --      1.1059                 3.4957                 1.2486
 Frc consts  --      0.8945                 2.8930                 1.0472
 IR Inten    --      1.4740               244.1264                13.5892

                     43                     44                     45
                      A                      A                      A
 Frequencies --   1222.7289              1279.9864              1308.9474
 Red. masses --      1.5804                 3.1439                 3.6787
 Frc consts  --      1.3921                 3.0348                 3.7135
 IR Inten    --    138.0824               957.2832                10.9529

                     46                     47                     48
                      A                      A                      A
 Frequencies --   1315.2957              1345.0247              1385.9613
 Red. masses --      5.2920                 1.6711                 4.8525
 Frc consts  --      5.3941                 1.7812                 5.4918
 IR Inten    --     37.3258                 3.2889               256.6653

                     49                     50                     51
                      A                      A                      A
 Frequencies --   1437.1579              1464.6399              1480.2104
 Red. masses --      3.1889                 2.1256                 4.2268
 Frc consts  --      3.8806                 2.6865                 5.4565
 IR Inten    --   1170.5521                10.9225               139.5902

                     52                     53                     54
                      A                      A                      A
 Frequencies --   1499.9332              1601.0664              1603.4077
 Red. masses --      2.0015                 6.4369                 5.6313
 Frc consts  --      2.6531                 9.7218                 8.5299
 IR Inten    --     91.6389                72.5541                11.1546

                     55                     56                     57
                      A                      A                      A
 Frequencies --   1615.7628              3101.6198              3123.6361
 Red. masses --      5.3872                 1.0842                 1.0917
 Frc consts  --      8.2864                 6.1450                 6.2761
 IR Inten    --    101.7265                70.5313               149.8969

                     58                     59                     60
                      A                      A                      A
 Frequencies --   3128.3676              3153.6313              3160.2061
 Red. masses --      1.0895                 1.0859                 1.0874
 Frc consts  --      6.2820                 6.3632                 6.3985
 IR Inten    --     32.9592                 8.6769                 1.7998

                     61                     62                     63
                      A                      A                      A
 Frequencies --   3169.5458              3182.0729              3187.2010
 Red. masses --      1.0921                 1.0924                 1.0967
 Frc consts  --      6.4643                 6.5170                 6.5636
 IR Inten    --     45.0216                14.1215                38.0580

 - Thermochemistry -
 -------------------
 Temperature   298.150 Kelvin.  Pressure   1.00000 Atm.
 Atom     1 has atomic number  6 and mass  12.00000

 Molecular mass:   216.02450 amu.
 Principal axes and moments of inertia in atomic units:
                           1         2         3
     Eigenvalues --  1734.043175764.953476031.65153
           X            0.93084   0.35226   0.09720
           Y           -0.19689   0.70756  -0.67867
           Z           -0.30784   0.61260   0.72798
 This molecule is an asymmetric top.
 Rotational symmetry number  1.
 Warning -- assumption of classical behavior for rotation
           may cause significant error
 Rotational temperatures (Kelvin)      0.04995     0.01502     0.01436
 Rotational constants (GHZ):           1.04077     0.31305     0.29921
 Zero-point vibrational energy     428339.6 (Joules/Mol)
                                  102.37562 (Kcal/Mol)
 Warning -- explicit consideration of  18 degrees of freedom as
           vibrations may cause significant error
 Vibrational temperatures:     51.66    59.16    97.13   192.41   242.41
          (Kelvin)            294.86   344.50   354.46   503.51   537.14
                              595.69   598.02   630.08   690.95   695.48
                              706.50   805.04   862.42   906.00   988.14
                             1002.19  1015.04  1045.72  1074.61  1151.41
                             1171.88  1210.35  1221.93  1282.78  1306.26
                             1331.35  1418.55  1438.10  1448.34  1453.52
                             1495.28  1558.34  1573.57  1602.43  1685.72
                             1705.22  1716.61  1759.23  1841.61  1883.28
                             1892.42  1935.19  1994.09  2067.75  2107.29
                             2129.69  2158.07  2303.58  2306.95  2324.72
                             4462.54  4494.22  4501.02  4537.37  4546.83
                             4560.27  4578.29  4585.67

 Zero-point correction=                           0.163146 (Hartree/Particle)
 Thermal correction to Energy=                    0.175471
 Thermal correction to Enthalpy=                  0.176416
 Thermal correction to Gibbs Free Energy=         0.123028
 Sum of electronic and zero-point Energies=          -1010.995407
 Sum of electronic and thermal Energies=             -1010.983082
 Sum of electronic and thermal Enthalpies=           -1010.982138
 Sum of electronic and thermal Free Energies=        -1011.035525

                     E (Thermal)             CV                S
                      KCal/Mol        Cal/Mol-Kelvin    Cal/Mol-Kelvin
 Total                  110.110             48.047            112.364
 Electronic               0.000              0.000              0.000
 Translational            0.889              2.981             42.014
 Rotational               0.889              2.981             32.467
 Vibrational            108.332             42.086             37.883
 Vibration     1          0.594              1.982              5.473
 Vibration     2          0.594              1.981              5.205
 Vibration     3          0.598              1.970              4.225
 Vibration     4          0.613              1.920              2.892
 Vibration     5          0.625              1.881              2.452
 Vibration     6          0.640              1.833              2.088
 Vibration     7          0.657              1.780              1.807
 Vibration     8          0.661              1.769              1.756
 Vibration     9          0.727              1.575              1.166
 Vibration    10          0.745              1.527              1.066
 Vibration    11          0.778              1.440              0.913
 Vibration    12          0.779              1.436              0.907
 Vibration    13          0.798              1.388              0.833
 Vibration    14          0.837              1.294              0.709
 Vibration    15          0.840              1.287              0.701
 Vibration    16          0.847              1.270              0.681
 Vibration    17          0.915              1.119              0.525
 Vibration    18          0.957              1.033              0.451

 Optimization completed.
    -- Stationary point found.
 Normal termination of Gaussian 16 at Sat Feb 10 13:52:07 2024.
