 Q-Chem 5.4, Q-Chem, Inc., Pleasanton, CA (2021)
 Q-Chem 5.4.0 for Intel X86 EM64T Linux

User input:
--------------------------------------------------------------
$molecule
0 1
C                 -4.6989380000     -0.3684880000     -0.5524400000
C                 -3.9940560000     -0.4286000000      0.8149130000
C                 -2.5692790000      0.0723950000      0.7589180000
C                 -2.2762520000      1.4320170000      0.9481450000
C                 -0.9740700000      1.9052060000      0.8632180000
C                  0.0788840000      1.0281820000      0.5859090000
C                  1.4675440000      1.5588090000      0.5022160000
O                  1.7076400000      2.7445700000      0.6670410000
C                  2.5589520000      0.5828740000      0.2075970000
C                  3.8761320000      1.0436920000      0.1201310000
C                  4.9105380000      0.1564080000     -0.1527210000
C                  4.6382200000     -1.2015600000     -0.3410040000
C                  3.3321320000     -1.6688310000     -0.2558870000
C                  2.2848820000     -0.7835220000      0.0181240000
C                  0.8919790000     -1.3136370000      0.1038290000
O                  0.6554400000     -2.4998710000     -0.0597240000
C                 -0.1982010000     -0.3371470000      0.3959720000
C                 -1.5137130000     -0.7980510000      0.4849190000
H                 -4.1750800000     -0.9811910000     -1.2907090000
H                 -5.7255850000     -0.7357970000     -0.4735440000
H                 -4.7335640000      0.6558310000     -0.9330960000
H                 -4.5587350000      0.1659140000      1.5399270000
H                 -4.0004190000     -1.4598440000      1.1800500000
H                 -3.0825010000      2.1241190000      1.1700640000
H                 -0.7474600000      2.9537610000      1.0126560000
H                  4.0639260000      2.0997400000      0.2696080000
H                  5.9300480000      0.5190070000     -0.2194780000
H                  5.4464800000     -1.8920640000     -0.5536760000
H                  3.0981210000     -2.7166200000     -0.3980570000
H                 -1.6930630000     -1.8573040000      0.3388000000
$end

$rem
BASIS  =  6-311++G(d,p)
GUI  =  2
JOB_TYPE  =  SP
METHOD  =  B3LYP
SCF_CONVERGENCE  = 8
SOLVENT_METHOD = sm12
$end

$smx
solvent dimethylformamide
charges CM5
$end

--------------------------------------------------------------

             Standard Nuclear Orientation (Angstroms)
    I     Atom           X                Y                Z
 ----------------------------------------------------------------
    1      C      -4.6989380000    -0.3684880000    -0.5524400000
    2      C      -3.9940560000    -0.4286000000     0.8149130000
    3      C      -2.5692790000     0.0723950000     0.7589180000
    4      C      -2.2762520000     1.4320170000     0.9481450000
    5      C      -0.9740700000     1.9052060000     0.8632180000
    6      C       0.0788840000     1.0281820000     0.5859090000
    7      C       1.4675440000     1.5588090000     0.5022160000
    8      O       1.7076400000     2.7445700000     0.6670410000
    9      C       2.5589520000     0.5828740000     0.2075970000
   10      C       3.8761320000     1.0436920000     0.1201310000
   11      C       4.9105380000     0.1564080000    -0.1527210000
   12      C       4.6382200000    -1.2015600000    -0.3410040000
   13      C       3.3321320000    -1.6688310000    -0.2558870000
   14      C       2.2848820000    -0.7835220000     0.0181240000
   15      C       0.8919790000    -1.3136370000     0.1038290000
   16      O       0.6554400000    -2.4998710000    -0.0597240000
   17      C      -0.1982010000    -0.3371470000     0.3959720000
   18      C      -1.5137130000    -0.7980510000     0.4849190000
   19      H      -4.1750800000    -0.9811910000    -1.2907090000
   20      H      -5.7255850000    -0.7357970000    -0.4735440000
   21      H      -4.7335640000     0.6558310000    -0.9330960000
   22      H      -4.5587350000     0.1659140000     1.5399270000
   23      H      -4.0004190000    -1.4598440000     1.1800500000
   24      H      -3.0825010000     2.1241190000     1.1700640000
   25      H      -0.7474600000     2.9537610000     1.0126560000
   26      H       4.0639260000     2.0997400000     0.2696080000
   27      H       5.9300480000     0.5190070000    -0.2194780000
   28      H       5.4464800000    -1.8920640000    -0.5536760000
   29      H       3.0981210000    -2.7166200000    -0.3980570000
   30      H      -1.6930630000    -1.8573040000     0.3388000000
 ----------------------------------------------------------------

   15    -767.6052476405      3.03e-09  Convergence criterion met
 Total energy in the final basis set =     -767.6267898216

                    Orbital Energies (a.u.)
 --------------------------------------------------------------

 Alpha MOs
 -- Occupied --
-19.1285 -19.1271 -10.2806 -10.2795 -10.2083 -10.2078 -10.2073 -10.2050
-10.2040 -10.1977 -10.1972 -10.1967 -10.1965 -10.1959 -10.1943 -10.1934
-10.1786 -10.1633  -1.0633  -1.0610  -0.8935  -0.8826  -0.8213  -0.7903
 -0.7776  -0.7734  -0.7446  -0.6877  -0.6689  -0.6470  -0.6212  -0.6076
 -0.5852  -0.5589  -0.5444  -0.5034  -0.4922  -0.4852  -0.4750  -0.4550
 -0.4537  -0.4531  -0.4501  -0.4455  -0.4395  -0.4254  -0.4181  -0.4169
 -0.3958  -0.3846  -0.3795  -0.3737  -0.3654  -0.3581  -0.3505  -0.3458
 -0.2864  -0.2853  -0.2788  -0.2755  -0.2727  -0.2679

          Ground-State Mulliken Net Atomic Charges

     Atom                 Charge (a.u.)
  ----------------------------------------
      1 C                    -0.595054
      2 C                     0.855753
      3 C                     1.321063
      4 C                     0.138233
      5 C                     0.147525
      6 C                    -0.669732
      7 C                    -1.747463
      8 O                    -0.259199
      9 C                    -0.492246
     10 C                     0.164184
     11 C                     0.461943
     12 C                     0.426761
     13 C                     0.115687
     14 C                    -0.111744
     15 C                    -1.394538
     16 O                    -0.254074
     17 C                    -0.454708
     18 C                    -0.267904
     19 H                     0.134901
     20 H                     0.186175
     21 H                     0.140301
     22 H                     0.228765
     23 H                     0.210323
     24 H                     0.303929
     25 H                     0.208641
     26 H                     0.189870
     27 H                     0.329881
     28 H                     0.330159
     29 H                     0.188797
     30 H                     0.163772
  ----------------------------------------
  Sum of atomic charges =     0.000000

                    Cartesian Multipole Moments
 -----------------------------------------------------------------
    Charge (ESU x 10^10)
                 0.0000
    Dipole Moment (Debye)
         X      -0.8928      Y      -0.2750      Z      -0.0688
       Tot       0.9367
    Quadrupole Moments (Debye-Ang)
        XX     -72.1882     XY      -6.7663     YY    -115.3118
        XZ      -5.3529     YZ      -0.4234     ZZ    -107.2236

 Total job time:  681.52s(wall), 5352.16s(cpu)
        *  Thank you very much for using Q-Chem.  Have a nice day.  *
