 Q-Chem 5.4, Q-Chem, Inc., Pleasanton, CA (2021)
 Q-Chem 5.4.0 for Intel X86 EM64T Linux

User input:
--------------------------------------------------------------
$molecule
-2 1
C                 -2.9997690000      3.7070680000      0.2020230000
C                 -4.2588690000      3.1432870000      0.2223720000
C                 -4.3988700000      1.7314080000      0.1277540000
C                 -1.8240900000      2.9231790000      0.0891150000
C                 -1.9664880000      1.4878350000     -0.0076450000
C                 -3.2733520000      0.9407430000      0.0161900000
C                 -0.5320640000      3.5850730000      0.0716780000
C                  0.6042720000      2.6916330000     -0.0475520000
C                  0.4638880000      1.2565490000     -0.1437540000
C                 -0.8272150000      0.5949630000     -0.1300780000
C                  1.9097000000      3.2440070000     -0.0850270000
C                  3.0123010000      2.4401630000     -0.2055830000
C                  2.9020800000      1.0322650000     -0.2991000000
C                  1.6408040000      0.4765990000     -0.2610620000
O                 -0.4057070000      4.8544330000      0.1523910000
O                 -0.9542460000     -0.6736570000     -0.2186700000
H                 -3.3462710000     -0.1397370000     -0.0583450000
H                  1.5061020000     -0.5978650000     -0.3286030000
H                 -2.8596110000      4.7811460000      0.2721650000
H                  2.0033690000      4.3224160000     -0.0257600000
H                  3.7893050000      0.4169290000     -0.3884050000
H                 -5.3884810000      1.2789290000      0.1436150000
O                  4.2767140000      3.0819810000     -0.3493150000
C                  5.3270240000      2.7745100000      0.4377020000
C                  6.5620370000      3.5291270000     -0.0122510000
O                  5.3204480000      1.9776110000      1.3481040000
H                 -5.1412270000      3.7741550000      0.3108520000
H                  6.3106450000      4.4816190000     -0.4784650000
H                  7.1105750000      2.9278270000     -0.7505140000
H                  7.2250940000      3.6836820000      0.8383990000
$end
$rem
MAX_SCF_CYCLES=200
BASIS  =  6-311++G(d,p)
GUI  =  2
JOB_TYPE  =  SP
METHOD  =  B3LYP
SOLVENT_METHOD = COSMO
$end
$solvent
dielectric 37.219
opticaldielectric 1.43
$end

--------------------------------------------------------------

             Standard Nuclear Orientation (Angstroms)
    I     Atom           X                Y                Z
 ----------------------------------------------------------------
    1      C       3.5468168901    -1.7078227766     0.1087592682
    2      C       4.8420249173    -1.2371333249     0.1757183160
    3      C       5.0824749571     0.1643013434     0.1647727390
    4      C       2.4310749954    -0.8371110234     0.0285572783
    5      C       2.6755999062     0.5876425962     0.0168620830
    6      C       4.0172204911     1.0381153968     0.0868602289
    7      C       1.0960763090    -1.4033281000    -0.0415542781
    8      C       0.0273821439    -0.4259601777    -0.1212728913
    9      C       0.2698715335     0.9986459373    -0.1324484176
   10      C       1.6039848691     1.5648367975    -0.0661193710
   11      C      -1.3129714794    -0.8810159775    -0.2051779472
   12      C      -2.3543046502     0.0048053291    -0.2910483777
   13      C      -2.1438542082     1.4043313870    -0.3014551652
   14      C      -0.8473148047     1.8657744583    -0.2172850510
   15      O       0.8794770520    -2.6630146178    -0.0360653603
   16      O       1.8213235607     2.8241885086    -0.0795090267
   17      H       4.1671319278     2.1131586198     0.0759833350
   18      H      -0.6363100396     2.9300317619    -0.2208464432
   19      H       3.3303580809    -2.7714560994     0.1148792115
   20      H      -1.4832021659    -1.9516484684    -0.2096515223
   21      H      -2.9841121968     2.0853230750    -0.3646913098
   22      H       6.1011269234     0.5435819754     0.2178116102
   23      O      -3.6584370421    -0.5361698644    -0.4857635849
   24      C      -4.6962925911    -0.2002131285     0.3061165837
   25      C      -5.9744055042    -0.8381167779    -0.2005074825
   26      O      -4.6474226655     0.5408909987     1.2612602716
   27      H       5.6763477512    -1.9331988469     0.2371754705
   28      H      -5.7836529291    -1.7778904470    -0.7184199727
   29      H      -6.4680195943    -0.1581289129    -0.9086384860
   30      H      -6.6594976475    -0.9934446138     0.6323546155
 ----------------------------------------------------------------

   25    -916.8847052563      1.39e-06  Convergence criterion met
 Total energy in the final basis set =     -916.8847052563
    6    -917.1547281999      3.63e-06  Convergence criterion met
 Total energy in the final basis set =     -917.1547281999

                    Orbital Energies (a.u.)
 --------------------------------------------------------------

 Alpha MOs
 -- Occupied --
-19.1766 -19.1194 -19.0292 -19.0283 -10.3120 -10.2188 -10.1814 -10.1801
-10.1720 -10.1582 -10.1558 -10.1551 -10.1515 -10.1509 -10.1489 -10.1486
-10.1444 -10.1419 -10.1411 -10.1406  -1.1130  -1.0326  -0.9520  -0.9488
 -0.8395  -0.8273  -0.7699  -0.7483  -0.7318  -0.7263  -0.7104  -0.6507
 -0.6274  -0.6100  -0.5716  -0.5670  -0.5304  -0.5112  -0.5023  -0.4885
 -0.4757  -0.4745  -0.4460  -0.4408  -0.4321  -0.4153  -0.4104  -0.4039
 -0.4005  -0.3914  -0.3870  -0.3804  -0.3781  -0.3722  -0.3645  -0.3482
 -0.3361  -0.3343  -0.3270  -0.3206  -0.3070  -0.3040  -0.2902  -0.2414
 -0.2328  -0.2316  -0.2205  -0.2123  -0.2042  -0.1112

          Ground-State Mulliken Net Atomic Charges

     Atom                 Charge (a.u.)
  ----------------------------------------
      1 C                    -0.015374
      2 C                    -0.529882
      3 C                    -0.522654
      4 C                     0.295141
      5 C                     0.170350
      6 C                     0.026085
      7 C                    -0.511897
      8 C                     0.233812
      9 C                     0.252082
     10 C                    -0.341623
     11 C                    -0.041210
     12 C                    -0.674535
     13 C                    -0.043149
     14 C                     0.011812
     15 O                    -0.686817
     16 O                    -0.683725
     17 H                     0.157460
     18 H                     0.163189
     19 H                     0.156078
     20 H                     0.186021
     21 H                     0.224087
     22 H                     0.180696
     23 O                    -0.052056
     24 C                     0.203765
     25 C                    -0.555039
     26 O                    -0.356346
     27 H                     0.181374
     28 H                     0.181788
     29 H                     0.207465
     30 H                     0.183104
  ----------------------------------------
  Sum of atomic charges =    -2.000000

                    Cartesian Multipole Moments
 -----------------------------------------------------------------
    Charge (ESU x 10^10)
                -9.6064
    Dipole Moment (Debye)
         X     -11.4343      Y      -1.8623      Z      -1.7745
       Tot      11.7201
    Quadrupole Moments (Debye-Ang)
        XX    -152.7768     XY      -0.4728     YY    -174.5374
        XZ      11.5038     YZ      -2.4180     ZZ    -131.6462

 Total job time:  150.35s(wall), 1167.26s(cpu)
        *  Thank you very much for using Q-Chem.  Have a nice day.  *
