 Gaussian 16, Revision A.03,
 Gaussian 16:  ES64L-G16RevA.03 25-Dec-2016

 ----------------------------------------------------------------------
 #P UB3LYP/6-311++G(d,p) nosym opt freq SCRF=(PCM,Solvent=n,n-DiMethylF
 ormamide)
 ----------------------------------------------------------------------

 --------
 Oxidized
 --------
 Symbolic Z-matrix:
 Charge =  0 Multiplicity = 1

 SCF Done:  E(UB3LYP) =  -1079.99269507     A.U. after   15 cycles
 SCF Done:  E(UB3LYP) =  -1079.99276578     A.U. after   11 cycles
 SCF Done:  E(UB3LYP) =  -1079.99277060     A.U. after   10 cycles
 SCF Done:  E(UB3LYP) =  -1079.99277551     A.U. after   10 cycles
 SCF Done:  E(UB3LYP) =  -1079.99277593     A.U. after    9 cycles
 SCF Done:  E(UB3LYP) =  -1079.99277620     A.U. after    8 cycles
 SCF Done:  E(UB3LYP) =  -1079.99277624     A.U. after    8 cycles
 Optimization completed.
    -- Stationary point found.
 Normal termination of Gaussian 16 at Sun Feb 11 16:21:42 2024.

 ----------------------------------------------------------------------
 #P Geom=AllCheck Guess=TCheck SCRF=Check GenChk UB3LYP/6-311++G(d,p) F
 req
 ----------------------------------------------------------------------

 Structure from the checkpoint file:  "296.chk"
 --------
 Oxidized
 --------
 Charge =  0 Multiplicity = 1

                          Input orientation:
 ---------------------------------------------------------------------
 Center     Atomic      Atomic             Coordinates (Angstroms)
 Number     Number       Type             X           Y           Z
 ---------------------------------------------------------------------
      1          6           0       -1.651674    3.400637   -0.329006
      2          6           0       -2.657146    3.436598    0.633185
      3          6           0       -2.656109    2.508831    1.675808
      4          6           0       -0.645582    2.435107   -0.245741
      5          6           0       -0.641080    1.499239    0.801924
      6          6           0       -1.652549    1.543905    1.760144
      7          6           0        0.425248    2.382269   -1.251774
      8          6           0        1.480504    1.334411   -1.113836
      9          6           0        1.510311    0.415101   -0.113997
     10          6           0        0.433950    0.456487    0.902055
     11          8           0        0.510973    3.150293   -2.205829
     12          8           0        0.406379   -0.350729    1.826855
     13          8           0        2.407736    1.379785   -2.083438
     14          6           0        2.581081   -0.643338    0.017570
     15          6           0        2.572536   -1.657442   -1.164830
     16          6           0        4.000475   -0.068848    0.207940
     17          6           0        4.986276   -1.186867    0.611225
     18          6           0        4.685169   -2.561968   -0.051363
     19          6           0        3.949796   -2.319456   -1.381300
     20          6           0        5.961928   -3.429292   -0.186009
     21          6           0        5.687521   -4.816634   -0.803130
     22          6           0        6.677304   -3.609106    1.170336
     23          6           0        7.946659   -4.467023    1.066117
     24          6           0        7.656924   -5.836722    0.441799
     25          6           0        6.954247   -5.679279   -0.911433
     26          1           0       -1.636412    4.112543   -1.144703
     27          1           0       -3.438623    4.184424    0.571470
     28          1           0       -3.438585    2.536813    2.425031
     29          1           0       -1.645392    0.821152    2.565807
     30          1           0        2.156024    2.118318   -2.671506
     31          1           0        2.339003   -1.192750    0.929241
     32          1           0        2.265275   -1.162182   -2.088493
     33          1           0        1.822350   -2.426803   -0.954866
     34          1           0        3.992388    0.709690    0.976618
     35          1           0        4.326000    0.410739   -0.717977
     36          1           0        4.978793   -1.297929    1.699354
     37          1           0        5.999860   -0.869458    0.340135
     38          1           0        3.996326   -3.113799    0.605165
     39          1           0        3.802029   -3.250748   -1.931199
     40          1           0        4.574999   -1.682062   -2.018910
     41          1           0        6.651486   -2.894385   -0.858398
     42          1           0        5.242537   -4.715185   -1.796120
     43          1           0        4.947104   -5.338772   -0.180645
     44          1           0        5.978327   -4.084265    1.873415
     45          1           0        6.934341   -2.636763    1.598302
     46          1           0        8.395935   -4.587334    2.057896
     47          1           0        8.687766   -3.940109    0.450546
     48          1           0        7.013474   -6.414112    1.118818
     49          1           0        8.583915   -6.408692    0.326547
     50          1           0        6.699403   -6.660993   -1.325157
     51          1           0        7.646892   -5.211907   -1.623888
 ---------------------------------------------------------------------

 SCF Done:  E(UB3LYP) =  -1079.99277624     A.U. after    1 cycles

 Alpha  occ. eigenvalues --  -19.17900 -19.15065 -19.12998 -10.29448 -10.28248
 Alpha  occ. eigenvalues --  -10.26862 -10.21272 -10.21190 -10.20447 -10.20356
 Alpha  occ. eigenvalues --  -10.20172 -10.20005 -10.19973 -10.18010 -10.16652
 Alpha  occ. eigenvalues --  -10.16554 -10.16448 -10.16310 -10.15990 -10.15889
 Alpha  occ. eigenvalues --  -10.15879 -10.15854 -10.15801 -10.15687 -10.15660
 Alpha  occ. eigenvalues --   -1.10975  -1.06747  -1.06161  -0.89468  -0.85247
 Alpha  occ. eigenvalues --   -0.83612  -0.81727  -0.78606  -0.78182  -0.75624
 Alpha  occ. eigenvalues --   -0.74101  -0.73287  -0.71714  -0.69303  -0.65851
 Alpha  occ. eigenvalues --   -0.64785  -0.62124  -0.61478  -0.60682  -0.59584
 Alpha  occ. eigenvalues --   -0.58534  -0.57306  -0.54970  -0.54458  -0.53629
 Alpha  occ. eigenvalues --   -0.51283  -0.49817  -0.48613  -0.48307  -0.47240
 Alpha  occ. eigenvalues --   -0.47007  -0.46845  -0.45736  -0.45511  -0.44446
 Alpha  occ. eigenvalues --   -0.43870  -0.43414  -0.43185  -0.42433  -0.41828
 Alpha  occ. eigenvalues --   -0.41240  -0.41159  -0.39470  -0.38964  -0.38779
 Alpha  occ. eigenvalues --   -0.37981  -0.37798  -0.37509  -0.37065  -0.36689
 Alpha  occ. eigenvalues --   -0.36305  -0.35317  -0.34561  -0.33736  -0.33107
 Alpha  occ. eigenvalues --   -0.32465  -0.31376  -0.31194  -0.30498  -0.29895
 Alpha  occ. eigenvalues --   -0.29157  -0.28839  -0.28327  -0.28209  -0.27693
 Alpha  occ. eigenvalues --   -0.25587
 Alpha virt. eigenvalues --   -0.12736  -0.05843  -0.02834  -0.01045  -0.00355
 Alpha virt. eigenvalues --   -0.00026   0.00384   0.00727   0.01109   0.01807
 Alpha virt. eigenvalues --    0.02122   0.02172   0.02328   0.02924   0.03308

  Beta  occ. eigenvalues --  -19.17900 -19.15065 -19.12998 -10.29448 -10.28248
  Beta  occ. eigenvalues --  -10.26862 -10.21272 -10.21190 -10.20447 -10.20356
  Beta  occ. eigenvalues --  -10.20172 -10.20005 -10.19973 -10.18010 -10.16652
  Beta  occ. eigenvalues --  -10.16554 -10.16448 -10.16310 -10.15990 -10.15889
  Beta  occ. eigenvalues --  -10.15879 -10.15854 -10.15801 -10.15687 -10.15660
  Beta  occ. eigenvalues --   -1.10975  -1.06747  -1.06161  -0.89468  -0.85247
  Beta  occ. eigenvalues --   -0.83612  -0.81727  -0.78606  -0.78182  -0.75624
  Beta  occ. eigenvalues --   -0.74101  -0.73287  -0.71714  -0.69303  -0.65851
  Beta  occ. eigenvalues --   -0.64785  -0.62124  -0.61478  -0.60682  -0.59584
  Beta  occ. eigenvalues --   -0.58534  -0.57306  -0.54970  -0.54458  -0.53629
  Beta  occ. eigenvalues --   -0.51283  -0.49817  -0.48613  -0.48307  -0.47240
  Beta  occ. eigenvalues --   -0.47007  -0.46845  -0.45736  -0.45511  -0.44446
  Beta  occ. eigenvalues --   -0.43870  -0.43414  -0.43185  -0.42433  -0.41828
  Beta  occ. eigenvalues --   -0.41240  -0.41159  -0.39470  -0.38964  -0.38779
  Beta  occ. eigenvalues --   -0.37981  -0.37798  -0.37509  -0.37065  -0.36689
  Beta  occ. eigenvalues --   -0.36305  -0.35317  -0.34561  -0.33736  -0.33107
  Beta  occ. eigenvalues --   -0.32465  -0.31376  -0.31194  -0.30498  -0.29895
  Beta  occ. eigenvalues --   -0.29157  -0.28839  -0.28327  -0.28209  -0.27693
  Beta  occ. eigenvalues --   -0.25587
  Beta virt. eigenvalues --   -0.12736  -0.05843  -0.02834  -0.01045  -0.00355
  Beta virt. eigenvalues --   -0.00026   0.00384   0.00727   0.01109   0.01807
  Beta virt. eigenvalues --    0.02122   0.02172   0.02328   0.02924   0.03308

 Mulliken charges and spin densities:
               1          2
     1  C    0.135084   0.000000
     2  C   -0.401730  -0.000000
     3  C   -0.470690   0.000000
     4  C    0.495199   0.000000
     5  C    0.220815  -0.000000
     6  C    0.103315  -0.000000
     7  C   -0.516075   0.000000
     8  C   -0.434794  -0.000000
     9  C    0.880871   0.000000
    10  C   -0.590876  -0.000000
    11  O   -0.309535   0.000000
    12  O   -0.270694  -0.000000
    13  O   -0.179008   0.000000
    14  C    0.840347   0.000000
    15  C   -0.896243  -0.000000
    16  C   -1.153667  -0.000000
    17  C   -0.341610   0.000000
    18  C    0.516355  -0.000000
    19  C   -0.610439   0.000000
    20  C    0.146895  -0.000000
    21  C   -0.312487  -0.000000
    22  C   -0.258170   0.000000
    23  C   -0.373332   0.000000
    24  C   -0.402357  -0.000000
    25  C   -0.480420   0.000000
    26  H    0.193352  -0.000000
    27  H    0.205919  -0.000000
    28  H    0.212227   0.000000
    29  H    0.195083  -0.000000
    30  H    0.307736  -0.000000
    31  H    0.271980  -0.000000
    32  H    0.190673  -0.000000
    33  H    0.192050  -0.000000
    34  H    0.199142   0.000000
    35  H    0.187021   0.000000
    36  H    0.151635   0.000000
    37  H    0.171439  -0.000000
    38  H    0.165799  -0.000000
    39  H    0.136936   0.000000
    40  H    0.177909   0.000000
    41  H    0.161680  -0.000000
    42  H    0.136994  -0.000000
    43  H    0.165166   0.000000
    44  H    0.166318  -0.000000
    45  H    0.159318   0.000000
    46  H    0.171587   0.000000
    47  H    0.140545   0.000000
    48  H    0.123021   0.000000
    49  H    0.173315   0.000000
    50  H    0.171908   0.000000
    51  H    0.134493  -0.000000
 Sum of Mulliken charges =  -0.00000  -0.00000

 Dipole moment (field-independent basis, Debye):
    X=             -2.0448    Y=              1.9528    Z=             -0.1018  Tot=              2.8293
 Quadrupole moment (field-independent basis, Debye-Ang):
   XX=           -141.1048   YY=           -147.8160   ZZ=           -155.6423
   XY=             -8.8088   XZ=             -5.4633   YZ=              7.1050

  Exact polarizability: 377.652 -72.629 366.259 -40.286 -51.556 358.163
 Approx polarizability: 393.803 -48.871 409.623 -54.144 -92.484 439.271

                      1                      2                      3
                      A                      A                      A
 Frequencies --     15.5360                29.4328                32.1489
 Red. masses --      4.2422                 4.1479                 5.2469
 Frc consts  --      0.0006                 0.0021                 0.0032
 IR Inten    --      0.1561                 1.0439                 2.1995

                      4                      5                      6
                      A                      A                      A
 Frequencies --     56.9549                65.7342                79.9446
 Red. masses --      2.9170                 6.4470                 3.8594
 Frc consts  --      0.0056                 0.0164                 0.0145
 IR Inten    --      0.0979                 4.9386                 0.6753

                      7                      8                      9
                      A                      A                      A
 Frequencies --    109.9709               121.9371               134.3369
 Red. masses --      4.4728                 5.7645                 4.0366
 Frc consts  --      0.0319                 0.0505                 0.0429
 IR Inten    --      0.0876                 0.0495                 0.2059

                     10                     11                     12
                      A                      A                      A
 Frequencies --    155.8026               163.8347               191.4410
 Red. masses --      3.4273                 5.2775                 2.8852
 Frc consts  --      0.0490                 0.0835                 0.0623
 IR Inten    --      0.2919                 1.3259                 0.1097

                     13                     14                     15
                      A                      A                      A
 Frequencies --    203.8561               214.9402               229.4469
 Red. masses --      2.7477                 2.3303                 1.8254
 Frc consts  --      0.0673                 0.0634                 0.0566
 IR Inten    --      0.1826                 1.0308                 0.0482

                     16                     17                     18
                      A                      A                      A
 Frequencies --    271.4352               304.9475               322.1111
 Red. masses --      5.4718                 2.2792                 3.1519
 Frc consts  --      0.2375                 0.1249                 0.1927
 IR Inten    --      2.9528                 0.0194                 1.0088

                     19                     20                     21
                      A                      A                      A
 Frequencies --    348.5532               358.4885               380.9915
 Red. masses --      4.6086                 5.1005                 3.0338
 Frc consts  --      0.3299                 0.3862                 0.2595
 IR Inten    --      1.1249                22.4469                 0.7420

                     22                     23                     24
                      A                      A                      A
 Frequencies --    391.5564               393.7841               411.3773
 Red. masses --      3.9037                 2.8973                 7.3724
 Frc consts  --      0.3526                 0.2647                 0.7351
 IR Inten    --     25.3042                17.0354                14.9648

                     25                     26                     27
                      A                      A                      A
 Frequencies --    435.5584               443.0539               447.0736
 Red. masses --      3.1252                 3.4345                 3.3689
 Frc consts  --      0.3493                 0.3972                 0.3967
 IR Inten    --      1.9800                 3.4318                 3.0715

                     28                     29                     30
                      A                      A                      A
 Frequencies --    454.2870               467.5737               480.4745
 Red. masses --      3.5276                 3.9768                 3.7122
 Frc consts  --      0.4289                 0.5123                 0.5049
 IR Inten    --      1.4780                10.7015                 2.7806

                     31                     32                     33
                      A                      A                      A
 Frequencies --    504.3185               505.3194               550.1286
 Red. masses --      2.0810                 3.9066                 4.8469
 Frc consts  --      0.3118                 0.5877                 0.8643
 IR Inten    --      1.3678                 0.9563                 3.0189

                     34                     35                     36
                      A                      A                      A
 Frequencies --    587.0635               606.0149               624.7209
 Red. masses --      3.7701                 2.4531                 1.2345
 Frc consts  --      0.7655                 0.5308                 0.2839
 IR Inten    --     41.7544                 1.7325                98.4709

                     37                     38                     39
                      A                      A                      A
 Frequencies --    664.3456               681.2027               707.7673
 Red. masses --      5.2109                 3.0940                 4.5287
 Frc consts  --      1.3550                 0.8459                 1.3366
 IR Inten    --     13.1411                 3.2656                14.2442

                     40                     41                     42
                      A                      A                      A
 Frequencies --    726.7259               734.3427               771.4598
 Red. masses --      6.0869                 2.4490                 7.5551
 Frc consts  --      1.8940                 0.7781                 2.6492
 IR Inten    --      7.3587               110.3960                 1.3322

                     43                     44                     45
                      A                      A                      A
 Frequencies --    780.7444               787.8411               792.2009
 Red. masses --      1.8443                 2.6409                 1.5088
 Frc consts  --      0.6624                 0.9658                 0.5579
 IR Inten    --      5.6691                 4.4291                 0.2124

                     46                     47                     48
                      A                      A                      A
 Frequencies --    805.5289               811.1851               850.4988
 Red. masses --      1.9441                 2.5831                 1.9296
 Frc consts  --      0.7432                 1.0014                 0.8224
 IR Inten    --     18.0561                10.5978                 7.0625

                     49                     50                     51
                      A                      A                      A
 Frequencies --    861.8548               879.3923               897.2051
 Red. masses --      2.6970                 2.2457                 1.8524
 Frc consts  --      1.1803                 1.0232                 0.8786
 IR Inten    --     19.7173                 4.4195                 9.6637

                     52                     53                     54
                      A                      A                      A
 Frequencies --    911.2369               913.7317               920.2064
 Red. masses --      1.3432                 1.7999                 2.4495
 Frc consts  --      0.6571                 0.8854                 1.2221
 IR Inten    --      0.0508                 0.7578                31.2601

                     55                     56                     57
                      A                      A                      A
 Frequencies --    924.9841               932.0690               954.9152
 Red. masses --      1.7163                 1.7404                 2.4305
 Frc consts  --      0.8652                 0.8908                 1.3058
 IR Inten    --      7.4676                 0.4658                 5.9711

                     58                     59                     60
                      A                      A                      A
 Frequencies --    969.7511               985.8405               998.4889
 Red. masses --      4.0496                 2.4804                 1.3871
 Frc consts  --      2.2438                 1.4203                 0.8148
 IR Inten    --     46.2521                18.7615                 1.7058

                     61                     62                     63
                      A                      A                      A
 Frequencies --   1021.9305              1031.4135              1041.5401
 Red. masses --      1.3323                 2.6523                 1.9198
 Frc consts  --      0.8198                 1.6624                 1.2270
 IR Inten    --      0.0758                48.6865                 3.3583

                     64                     65                     66
                      A                      A                      A
 Frequencies --   1053.6265              1054.9188              1067.4758
 Red. masses --      1.9308                 1.7551                 3.2862
 Frc consts  --      1.2629                 1.1508                 2.2063
 IR Inten    --      2.4286                 0.3399                64.8694

                     67                     68                     69
                      A                      A                      A
 Frequencies --   1082.8564              1087.3348              1095.3450
 Red. masses --      3.5136                 1.4091                 2.1210
 Frc consts  --      2.4274                 0.9816                 1.4993
 IR Inten    --      1.3412                 0.0650                 0.0459

                     70                     71                     72
                      A                      A                      A
 Frequencies --   1105.3515              1107.4789              1113.1546
 Red. masses --      2.1903                 2.6674                 2.0534
 Frc consts  --      1.5767                 1.9276                 1.4991
 IR Inten    --      6.4017                10.0332                 3.9714

                     73                     74                     75
                      A                      A                      A
 Frequencies --   1119.6630              1131.9560              1153.4254
 Red. masses --      2.0854                 1.0508                 2.1701
 Frc consts  --      1.5404                 0.7933                 1.7010
 IR Inten    --      1.0500                 0.0999                12.7357

                     76                     77                     78
                      A                      A                      A
 Frequencies --   1170.2988              1181.4317              1203.6216
 Red. masses --      2.2263                 1.2399                 1.4503
 Frc consts  --      1.7965                 1.0196                 1.2379
 IR Inten    --     22.5041                 9.1804                 0.9307

                     79                     80                     81
                      A                      A                      A
 Frequencies --   1222.4561              1229.3366              1257.1509
 Red. masses --      1.7273                 1.9480                 1.3187
 Frc consts  --      1.5208                 1.7345                 1.2279
 IR Inten    --     15.6634               115.2235                 6.9332

                     82                     83                     84
                      A                      A                      A
 Frequencies --   1260.7484              1268.7494              1281.2351
 Red. masses --      1.2906                 2.1181                 1.5987
 Frc consts  --      1.2087                 2.0088                 1.5462
 IR Inten    --     62.3875               456.4204                57.0327

                     85                     86                     87
                      A                      A                      A
 Frequencies --   1285.9185              1288.7302              1298.3153
 Red. masses --      1.2559                 1.2140                 2.0099
 Frc consts  --      1.2236                 1.1879                 1.9962
 IR Inten    --      5.9388                 3.6654               282.1121

                     88                     89                     90
                      A                      A                      A
 Frequencies --   1304.5456              1311.8562              1327.2811
 Red. masses --      1.8430                 1.4406                 1.3767
 Frc consts  --      1.8480                 1.4607                 1.4290
 IR Inten    --    203.3401                77.2052                26.0341

                     91                     92                     93
                      A                      A                      A
 Frequencies --   1334.7291              1341.7874              1347.0301
 Red. masses --      1.2903                 1.4275                 1.3631
 Frc consts  --      1.3543                 1.5142                 1.4572
 IR Inten    --      6.5921                68.1627                41.7465

                     94                     95                     96
                      A                      A                      A
 Frequencies --   1349.6122              1362.6931              1364.8027
 Red. masses --      1.3356                 1.4879                 2.0830
 Frc consts  --      1.4334                 1.6278                 2.2861
 IR Inten    --     22.0130                27.4104                48.8534

                     97                     98                     99
                      A                      A                      A
 Frequencies --   1365.1924              1368.2219              1372.9168
 Red. masses --      1.5246                 1.8775                 1.2712
 Frc consts  --      1.6742                 2.0708                 1.4117
 IR Inten    --     14.4280                45.2438                 4.0976

                    100                    101                    102
                      A                      A                      A
 Frequencies --   1374.6304              1375.2312              1377.4531
 Red. masses --      1.4772                 1.5286                 1.6027
 Frc consts  --      1.6446                 1.7033                 1.7917
 IR Inten    --      3.2318                 0.4891               143.3621

                    103                    104                    105
                      A                      A                      A
 Frequencies --   1389.3400              1403.1004              1408.3676
 Red. masses --      1.4885                 1.4787                 1.5647
 Frc consts  --      1.6928                 1.7152                 1.8286
 IR Inten    --     29.8278                 0.7395               223.6662

                    106                    107                    108
                      A                      A                      A
 Frequencies --   1477.9511              1480.6766              1481.7949
 Red. masses --      1.0881                 1.0918                 1.0950
 Frc consts  --      1.4004                 1.4104                 1.4166
 IR Inten    --      0.0235                 4.1133                 5.6413

                    109                    110                    111
                      A                      A                      A
 Frequencies --   1483.4943              1484.1570              1484.8684
 Red. masses --      2.3661                 1.0847                 1.0831
 Frc consts  --      3.0680                 1.4078                 1.4070
 IR Inten    --      7.5844                 9.3397                 5.3325

                    112                    113                    114
                      A                      A                      A
 Frequencies --   1486.1368              1492.4272              1497.5310
 Red. masses --      1.0828                 1.0932                 1.0994
 Frc consts  --      1.4091                 1.4346                 1.4526
 IR Inten    --      4.6372                 5.0186                 1.0621

                    115                    116                    117
                      A                      A                      A
 Frequencies --   1505.4457              1508.8661              1610.5494
 Red. masses --      2.6563                 1.0986                 6.7758
 Frc consts  --      3.5470                 1.4736                10.3552
 IR Inten    --     10.8220                 5.9377                41.6002

                    118                    119                    120
                      A                      A                      A
 Frequencies --   1618.8878              1669.0394              1680.7657
 Red. masses --      6.0877                 9.7635                 8.0607
 Frc consts  --      9.4002                16.0247                13.4164
 IR Inten    --    301.3518               513.2175               160.7497

                    121                    122                    123
                      A                      A                      A
 Frequencies --   1684.4775              2955.2768              2970.4176
 Red. masses --     10.8411                 1.0792                 1.0826
 Frc consts  --     18.1239                 5.5531                 5.6279
 IR Inten    --    385.5727                10.3989                33.3347

                    124                    125                    126
                      A                      A                      A
 Frequencies --   2983.9344              2991.0832              2993.5779
 Red. masses --      1.0709                 1.0738                 1.0688
 Frc consts  --      5.6181                 5.6601                 5.6434
 IR Inten    --     26.5460                46.4468                52.8414

                    127                    128                    129
                      A                      A                      A
 Frequencies --   2995.9473              2998.6719              3008.6002
 Red. masses --      1.0630                 1.0601                 1.0711
 Frc consts  --      5.6214                 5.6165                 5.7124
 IR Inten    --     25.3087               158.1919                65.5659

                    130                    131                    132
                      A                      A                      A
 Frequencies --   3011.5026              3025.4198              3037.3880
 Red. masses --      1.0632                 1.0662                 1.0981
 Frc consts  --      5.6809                 5.7498                 5.9687
 IR Inten    --     71.9319                73.4799                90.8749

                    133                    134                    135
                      A                      A                      A
 Frequencies --   3037.4635              3039.1371              3043.0315
 Red. masses --      1.0666                 1.0900                 1.1033
 Frc consts  --      5.7977                 5.9318                 6.0196
 IR Inten    --     84.5516               123.7563               145.9349

                    136                    137                    138
                      A                      A                      A
 Frequencies --   3049.9684              3059.9916              3061.6363
 Red. masses --      1.0974                 1.0903                 1.0891
 Frc consts  --      6.0143                 6.0150                 6.0146
 IR Inten    --     35.8258                26.3190                60.3512

                    139                    140                    141
                      A                      A                      A
 Frequencies --   3064.6867              3077.4907              3081.7952
 Red. masses --      1.0907                 1.0958                 1.0924
 Frc consts  --      6.0358                 6.1148                 6.1130
 IR Inten    --     80.8029                19.7175               102.6614

                    142                    143                    144
                      A                      A                      A
 Frequencies --   3088.5100              3180.3160              3192.2802
 Red. masses --      1.0966                 1.0875                 1.0911
 Frc consts  --      6.1633                 6.4808                 6.5514
 IR Inten    --     78.1296                 3.2340                 8.4499

                    145                    146                    147
                      A                      A                      A
 Frequencies --   3203.3951              3207.7292              3601.0071
 Red. masses --      1.0938                 1.0949                 1.0644
 Frc consts  --      6.6132                 6.6375                 8.1320
 IR Inten    --      5.7695                13.1302               299.7491

 - Thermochemistry -
 -------------------
 Temperature   298.150 Kelvin.  Pressure   1.00000 Atm.
 Atom     1 has atomic number  6 and mass  12.00000

 Molecular mass:   338.18819 amu.
 Principal axes and moments of inertia in atomic units:
                           1         2         3
     Eigenvalues --  2713.60242********************
           X            0.74719  -0.31123   0.58724
           Y           -0.66455  -0.36198   0.65372
           Z           -0.00911   0.87870   0.47729
 This molecule is an asymmetric top.
 Rotational symmetry number  1.
 Warning -- assumption of classical behavior for rotation
           may cause significant error
 Rotational temperatures (Kelvin)      0.03192     0.00389     0.00366
 Rotational constants (GHZ):           0.66507     0.08097     0.07631
 Zero-point vibrational energy    1146376.9 (Joules/Mol)
                                  273.99065 (Kcal/Mol)
 Warning -- explicit consideration of  35 degrees of freedom as
           vibrations may cause significant error
 Vibrational temperatures:     22.35    42.35    46.26    81.95    94.58
          (Kelvin)            115.02   158.22   175.44   193.28   224.17
                              235.72   275.44   293.30   309.25   330.12
                              390.53   438.75   463.45   501.49   515.79
                              548.16   563.36   566.57   591.88   626.67
                              637.46   643.24   653.62   672.73   691.30
                              725.60   727.04   791.51   844.65   871.92
                              898.83   955.85   980.10  1018.32  1045.60
                             1056.56  1109.96  1123.32  1133.53  1139.80
                             1158.98  1167.11  1223.68  1240.02  1265.25
                             1290.88  1311.07  1314.66  1323.97  1330.85
                             1341.04  1373.91  1395.26  1418.40  1436.60
                             1470.33  1483.97  1498.54  1515.93  1517.79
                             1535.86  1557.99  1564.43  1575.96  1590.35
                             1593.42  1601.58  1610.95  1628.63  1659.52
                             1683.80  1699.82  1731.74  1758.84  1768.74
                             1808.76  1813.94  1825.45  1843.41  1850.15
                             1854.20  1867.99  1876.95  1887.47  1909.66
                             1920.38  1930.53  1938.08  1941.79  1960.61
                             1963.65  1964.21  1968.57  1975.32  1977.79
                             1978.65  1981.85  1998.95  2018.75  2026.33
                             2126.44  2130.36  2131.97  2134.42  2135.37
                             2136.39  2138.22  2147.27  2154.61  2166.00
                             2170.92  2317.22  2329.22  2401.38  2418.25
                             2423.59  4251.98  4273.77  4293.22  4303.50
                             4307.09  4310.50  4314.42  4328.70  4332.88
                             4352.90  4370.12  4370.23  4372.64  4378.24
                             4388.22  4402.65  4405.01  4409.40  4427.82
                             4434.02  4443.68  4575.77  4592.98  4608.97
                             4615.21  5181.05

 Zero-point correction=                           0.436632 (Hartree/Particle)
 Thermal correction to Energy=                    0.458436
 Thermal correction to Enthalpy=                  0.459380
 Thermal correction to Gibbs Free Energy=         0.384430
 Sum of electronic and zero-point Energies=          -1079.556144
 Sum of electronic and thermal Energies=             -1079.534340
 Sum of electronic and thermal Enthalpies=           -1079.533396
 Sum of electronic and thermal Free Energies=        -1079.608347

                     E (Thermal)             CV                S
                      KCal/Mol        Cal/Mol-Kelvin    Cal/Mol-Kelvin
 Total                  287.673             87.646            157.746
 Electronic               0.000              0.000              0.000
 Translational            0.889              2.981             43.350
 Rotational               0.889              2.981             35.613
 Vibrational            285.895             81.684             78.783
 Vibration     1          0.593              1.986              7.136
 Vibration     2          0.593              1.984              5.867
 Vibration     3          0.594              1.983              5.692
 Vibration     4          0.596              1.975              4.560
 Vibration     5          0.597              1.971              4.277
 Vibration     6          0.600              1.963              3.892
 Vibration     7          0.606              1.941              3.269
 Vibration     8          0.609              1.931              3.069
 Vibration     9          0.613              1.919              2.883
 Vibration    10          0.620              1.896              2.600
 Vibration    11          0.623              1.887              2.505
 Vibration    12          0.634              1.852              2.214
 Vibration    13          0.640              1.834              2.098
 Vibration    14          0.645              1.818              2.001
 Vibration    15          0.652              1.796              1.883
 Vibration    16          0.675              1.726              1.587
 Vibration    17          0.696              1.664              1.390
 Vibration    18          0.707              1.631              1.299
 Vibration    19          0.726              1.578              1.173
 Vibration    20          0.733              1.558              1.129
 Vibration    21          0.751              1.511              1.035
 Vibration    22          0.759              1.488              0.994
 Vibration    23          0.761              1.483              0.986
 Vibration    24          0.775              1.446              0.922
 Vibration    25          0.796              1.393              0.841
 Vibration    26          0.803              1.376              0.817
 Vibration    27          0.806              1.367              0.805
 Vibration    28          0.813              1.351              0.783
 Vibration    29          0.825              1.322              0.744
 Vibration    30          0.837              1.293              0.709
 Vibration    31          0.860              1.240              0.647
 Vibration    32          0.861              1.238              0.645
 Vibration    33          0.905              1.139              0.544
 Vibration    34          0.944              1.059              0.472
 Vibration    35          0.965              1.019              0.439

                           ! Non-Optimized Parameters !
 Normal termination of Gaussian 16 at Sun Feb 11 19:54:28 2024.
