 Gaussian 16, Revision A.03,
 Gaussian 16:  ES64L-G16RevA.03 25-Dec-2016

 ----------------------------------------------------------------
 #P UB3LYP/6-311++G(d,p) SCRF=(PCM,Solvent=n,n-DiMethylFormamide)
 ----------------------------------------------------------------

 ------------------
 Quinone PCM in DMF
 ------------------
 Symbolic Z-matrix:
 Charge =  0 Multiplicity = 1

                         Standard orientation:
 ---------------------------------------------------------------------
 Center     Atomic      Atomic             Coordinates (Angstroms)
 Number     Number       Type             X           Y           Z
 ---------------------------------------------------------------------
      1          6           0        3.565796    0.713490    0.000007
      2          6           0        3.565818   -0.713493   -0.000013
      3          6           0        2.392066   -1.414108    0.000014
      4          6           0        1.143040   -0.722662    0.000018
      5          7           0       -0.000097   -1.419819    0.000011
      6          6           0       -1.142955   -0.722560    0.000008
      7          6           0       -2.392163   -1.414170    0.000008
      8          6           0       -3.565800   -0.713658   -0.000009
      9          6           0       -3.565748    0.713546    0.000013
     10          6           0       -2.392174    1.414175   -0.000014
     11          6           0       -1.142920    0.722743   -0.000017
     12          7           0       -0.000007    1.419860   -0.000011
     13          6           0        1.143070    0.722538   -0.000007
     14          6           0        2.392095    1.414121   -0.000007
     15          1           0        4.512522    1.241781    0.000034
     16          1           0        4.512418   -1.241984   -0.000048
     17          1           0        2.368346   -2.497328   -0.000039
     18          1           0       -2.368205   -2.497369   -0.000044
     19          1           0       -4.512599   -1.241765   -0.000035
     20          1           0       -4.512434    1.241895    0.000049
     21          1           0       -2.368371    2.497395    0.000040
     22          1           0        2.368294    2.497321    0.000044
 ---------------------------------------------------------------------

 SCF Done:  E(UB3LYP) =  -571.752162690     A.U. after   13 cycles

 The electronic state is 1-A.
 Alpha  occ. eigenvalues --  -14.33883 -14.33880 -10.23352 -10.23349 -10.23313
 Alpha  occ. eigenvalues --  -10.23311 -10.19572 -10.19571 -10.19529 -10.19528
 Alpha  occ. eigenvalues --  -10.19153 -10.19152 -10.19152 -10.19151  -0.99878
 Alpha  occ. eigenvalues --   -0.93056  -0.87889  -0.84890  -0.78125  -0.77025
 Alpha  occ. eigenvalues --   -0.75187  -0.69436  -0.66064  -0.62718  -0.61151
 Alpha  occ. eigenvalues --   -0.57444  -0.56922  -0.51373  -0.50335  -0.48851
 Alpha  occ. eigenvalues --   -0.47947  -0.45645  -0.45214  -0.44702  -0.44469
 Alpha  occ. eigenvalues --   -0.40284  -0.38767  -0.38763  -0.37198  -0.36973
 Alpha  occ. eigenvalues --   -0.36775  -0.33873  -0.32789  -0.28189  -0.26753
 Alpha  occ. eigenvalues --   -0.26689  -0.24043
 Alpha virt. eigenvalues --   -0.10837  -0.04399  -0.02316  -0.00958  -0.00466
 Alpha virt. eigenvalues --    0.00139   0.00887   0.01960   0.02162   0.02934
 Alpha virt. eigenvalues --    0.03632   0.04201   0.04292   0.04881   0.06139

  Beta  occ. eigenvalues --  -14.33883 -14.33880 -10.23352 -10.23349 -10.23313
  Beta  occ. eigenvalues --  -10.23311 -10.19572 -10.19571 -10.19529 -10.19528
  Beta  occ. eigenvalues --  -10.19153 -10.19152 -10.19152 -10.19151  -0.99878
  Beta  occ. eigenvalues --   -0.93056  -0.87889  -0.84890  -0.78125  -0.77025
  Beta  occ. eigenvalues --   -0.75187  -0.69436  -0.66064  -0.62718  -0.61151
  Beta  occ. eigenvalues --   -0.57444  -0.56922  -0.51373  -0.50335  -0.48851
  Beta  occ. eigenvalues --   -0.47947  -0.45645  -0.45214  -0.44702  -0.44469
  Beta  occ. eigenvalues --   -0.40284  -0.38767  -0.38763  -0.37198  -0.36973
  Beta  occ. eigenvalues --   -0.36775  -0.33873  -0.32789  -0.28189  -0.26753
  Beta  occ. eigenvalues --   -0.26689  -0.24043
  Beta virt. eigenvalues --   -0.10837  -0.04399  -0.02316  -0.00958  -0.00466
  Beta virt. eigenvalues --    0.00139   0.00887   0.01960   0.02162   0.02934
  Beta virt. eigenvalues --    0.03632   0.04201   0.04292   0.04881   0.06139

 Mulliken charges and spin densities:
               1          2
     1  C   -0.297121  -0.000000
     2  C   -0.296876  -0.000000
     3  C   -0.165730   0.000000
     4  C    0.045334   0.000000
     5  N    0.010689   0.000000
     6  C    0.045349  -0.000000
     7  C   -0.165768   0.000000
     8  C   -0.297081  -0.000000
     9  C   -0.296806  -0.000000
    10  C   -0.165796   0.000000
    11  C    0.045210   0.000000
    12  N    0.010686  -0.000000
    13  C    0.045441   0.000000
    14  C   -0.165624  -0.000000
    15  H    0.206135   0.000000
    16  H    0.206141  -0.000000
    17  H    0.205877   0.000000
    18  H    0.205876   0.000000
    19  H    0.206152  -0.000000
    20  H    0.206157  -0.000000
    21  H    0.205871  -0.000000
    22  H    0.205883  -0.000000
 Sum of Mulliken charges =  -0.00000  -0.00000

 Dipole moment (field-independent basis, Debye):
    X=             -0.0009    Y=             -0.0002    Z=              0.0000  Tot=              0.0009
 Quadrupole moment (field-independent basis, Debye-Ang):
   XX=            -55.2836   YY=            -80.5078   ZZ=            -85.3235
   XY=             -0.0010   XZ=             -0.0001   YZ=              0.0007

 Normal termination of Gaussian 16 at Sat Jan 13 19:17:00 2024.
