 Gaussian 16, Revision A.03,
 Gaussian 16:  ES64L-G16RevA.03 25-Dec-2016

 --------------------------------------
 #P UB3LYP/6-311++G(d,p) nosym opt freq
 --------------------------------------

 -------
 Reduced
 -------
 Symbolic Z-matrix:
 Charge = -2 Multiplicity = 1

 SCF Done:  E(UB3LYP) =  -532.057555012     A.U. after   17 cycles
 Optimization completed.
    -- Stationary point found.
 Normal termination of Gaussian 16 at Wed Jan 10 17:50:12 2024.

 ----------------------------------------------------------------------
 #P Geom=AllCheck Guess=TCheck SCRF=Check GenChk UB3LYP/6-311++G(d,p) F
 req
 ----------------------------------------------------------------------

 Structure from the checkpoint file:  "111-an.chk"
 -------
 Reduced
 -------
 Charge = -2 Multiplicity = 1

                          Input orientation:
 ---------------------------------------------------------------------
 Center     Atomic      Atomic             Coordinates (Angstroms)
 Number     Number       Type             X           Y           Z
 ---------------------------------------------------------------------
      1          8           0       -2.725230   -0.203128    0.448504
      2          6           0       -1.349756   -0.056833    0.227699
      3          6           0       -0.707487    1.182660    0.266344
      4          6           0        0.690259    1.287675    0.036603
      5          8           0        1.422473    2.395425    0.044237
      6          6           0        1.349813    0.056783   -0.227799
      7          6           0        0.707561   -1.182638   -0.266402
      8          6           0       -0.690141   -1.287776   -0.035985
      9          8           0       -1.422110   -2.395617   -0.043111
     10          8           0        2.725111    0.203238   -0.449252
     11          1           0       -2.776938   -1.187298    0.338014
     12          1           0       -1.279214    2.086041    0.475259
     13          1           0        1.279087   -2.086015   -0.475855
     14          1           0        2.776571    1.187483   -0.338256
 ---------------------------------------------------------------------

 SCF Done:  E(UB3LYP) =  -532.057555012     A.U. after    1 cycles

 Alpha  occ. eigenvalues --  -18.83263 -18.83262 -18.74292 -18.74290  -9.89405
 Alpha  occ. eigenvalues --   -9.89403  -9.88657  -9.88655  -9.84836  -9.84835
 Alpha  occ. eigenvalues --   -0.73826  -0.73683  -0.63501  -0.63382  -0.49796
 Alpha  occ. eigenvalues --   -0.41313  -0.36246  -0.28806  -0.26653  -0.22243
 Alpha  occ. eigenvalues --   -0.17120  -0.15771  -0.14222  -0.12309  -0.10640
 Alpha  occ. eigenvalues --   -0.07814  -0.07748  -0.06471  -0.06231  -0.02743
 Alpha  occ. eigenvalues --   -0.01561  -0.01556   0.06324   0.06834   0.07359
 Alpha  occ. eigenvalues --    0.09248   0.16493
 Alpha virt. eigenvalues --    0.21372   0.21421   0.22900   0.23072   0.27893
 Alpha virt. eigenvalues --    0.29305   0.29859   0.30997   0.30997   0.33082
 Alpha virt. eigenvalues --    0.33279   0.34777   0.34820   0.34947   0.35988

  Beta  occ. eigenvalues --  -18.83263 -18.83262 -18.74292 -18.74290  -9.89405
  Beta  occ. eigenvalues --   -9.89403  -9.88657  -9.88655  -9.84836  -9.84835
  Beta  occ. eigenvalues --   -0.73826  -0.73683  -0.63501  -0.63382  -0.49796
  Beta  occ. eigenvalues --   -0.41313  -0.36246  -0.28806  -0.26653  -0.22243
  Beta  occ. eigenvalues --   -0.17120  -0.15771  -0.14222  -0.12309  -0.10640
  Beta  occ. eigenvalues --   -0.07814  -0.07748  -0.06471  -0.06231  -0.02743
  Beta  occ. eigenvalues --   -0.01561  -0.01556   0.06324   0.06834   0.07359
  Beta  occ. eigenvalues --    0.09248   0.16493
  Beta virt. eigenvalues --    0.21372   0.21421   0.22900   0.23072   0.27893
  Beta virt. eigenvalues --    0.29305   0.29859   0.30997   0.30997   0.33082
  Beta virt. eigenvalues --    0.33279   0.34777   0.34820   0.34947   0.35988

 Mulliken charges and spin densities:
               1          2
     1  O   -0.360985  -0.000000
     2  C   -0.110367   0.000000
     3  C    0.473706  -0.000000
     4  C   -0.622097   0.000000
     5  O   -0.656703  -0.000000
     6  C   -0.110526   0.000000
     7  C    0.473819   0.000000
     8  C   -0.622185  -0.000000
     9  O   -0.656712   0.000000
    10  O   -0.360989  -0.000000
    11  H    0.216413   0.000000
    12  H    0.060100  -0.000000
    13  H    0.060089   0.000000
    14  H    0.216436   0.000000
 Sum of Mulliken charges =  -2.00000  -0.00000

 Dipole moment (field-independent basis, Debye):
    X=             -0.0013    Y=              0.0005    Z=             -0.0023  Tot=              0.0028
 Quadrupole moment (field-independent basis, Debye-Ang):
   XX=            -99.1752   YY=           -106.2700   ZZ=            -67.8427
   XY=            -17.1805   XZ=              3.5030   YZ=             -1.7780

  Exact polarizability: 136.628  12.296 136.767 -10.277   6.114  71.340
 Approx polarizability: 212.616  21.824 209.750 -17.530   9.960 100.702

                      1                      2                      3
                      A                      A                      A
 Frequencies --    145.6431               181.3594               299.6294
 Red. masses --     14.2997                 8.2196                 6.6308
 Frc consts  --      0.1787                 0.1593                 0.3507
 IR Inten    --      4.4282                 0.1543                 0.0001

                      4                      5                      6
                      A                      A                      A
 Frequencies --    314.9456               317.3541               317.9164
 Red. masses --      6.6725                 5.6548                 8.1054
 Frc consts  --      0.3900                 0.3355                 0.4827
 IR Inten    --      0.0030                37.0131                 0.1208

                      7                      8                      9
                      A                      A                      A
 Frequencies --    366.9548               413.2675               443.1810
 Red. masses --     12.5718                 2.7975                 9.6140
 Frc consts  --      0.9974                 0.2815                 1.1125
 IR Inten    --      0.8180                 7.1573                 0.0000

                     10                     11                     12
                      A                      A                      A
 Frequencies --    499.2501               669.7916               674.2979
 Red. masses --     11.0561                 3.1195                 4.3278
 Frc consts  --      1.6236                 0.8245                 1.1594
 IR Inten    --      0.0000                 0.0000                 0.0000

                     13                     14                     15
                      A                      A                      A
 Frequencies --    677.7569               716.7684               748.7470
 Red. masses --      7.3772                 9.3212                 1.4655
 Frc consts  --      1.9966                 2.8215                 0.4841
 IR Inten    --      1.2965                50.6600                 0.1555

                     16                     17                     18
                      A                      A                      A
 Frequencies --    752.1858               753.5518               761.3259
 Red. masses --      1.1234                 7.6102                 1.1770
 Frc consts  --      0.3745                 2.5461                 0.4019
 IR Inten    --     35.0863                 0.0038                 0.0209

                     19                     20                     21
                      A                      A                      A
 Frequencies --    796.5806               859.3942              1091.9221
 Red. masses --      1.4632                 2.8894                11.2937
 Frc consts  --      0.5470                 1.2573                 7.9336
 IR Inten    --    140.9165               190.3874                 0.0015

                     22                     23                     24
                      A                      A                      A
 Frequencies --   1118.0380              1183.9644              1189.1080
 Red. masses --      2.9192                 1.2711                 3.1199
 Frc consts  --      2.1499                 1.0498                 2.5992
 IR Inten    --    597.8191                 0.0046               201.2208

                     25                     26                     27
                      A                      A                      A
 Frequencies --   1200.2530              1314.5735              1383.1005
 Red. masses --      4.5080                 3.0866                 4.6899
 Frc consts  --      3.8263                 3.1427                 5.2860
 IR Inten    --     37.2892                 0.0004               186.4878

                     28                     29                     30
                      A                      A                      A
 Frequencies --   1411.0515              1465.8908              1523.8811
 Red. masses --      2.6867                 2.7619                 2.0439
 Frc consts  --      3.1518                 3.4967                 2.7964
 IR Inten    --      0.0022               885.2339               164.4175

                     31                     32                     33
                      A                      A                      A
 Frequencies --   1560.3052              1639.8653              3104.1833
 Red. masses --      3.7410                 4.9025                 1.0873
 Frc consts  --      5.3660                 7.7675                 6.1732
 IR Inten    --      0.0009                 0.0003               158.9504

                     34                     35                     36
                      A                      A                      A
 Frequencies --   3107.9246              3312.9391              3315.8928
 Red. masses --      1.0880                 1.0639                 1.0638
 Frc consts  --      6.1916                 6.8796                 6.8912
 IR Inten    --      0.0057               378.4004                39.1489

 - Thermochemistry -
 -------------------
 Temperature   298.150 Kelvin.  Pressure   1.00000 Atm.
 Atom     1 has atomic number  8 and mass  15.99491

 Molecular mass:   140.01096 amu.
 Principal axes and moments of inertia in atomic units:
                           1         2         3
     Eigenvalues --   687.008241699.973082386.98119
           X            0.84278  -0.51071   0.16998
           Y            0.53200   0.83838  -0.11874
           Z           -0.08187   0.19050   0.97827
 This molecule is an asymmetric top.
 Rotational symmetry number  1.
 Warning -- assumption of classical behavior for rotation
           may cause significant error
 Rotational temperatures (Kelvin)      0.12607     0.05095     0.03629
 Rotational constants (GHZ):           2.62696     1.06163     0.75608
 Zero-point vibrational energy     237056.8 (Joules/Mol)
                                   56.65792 (Kcal/Mol)
 Warning -- explicit consideration of  10 degrees of freedom as
           vibrations may cause significant error
 Vibrational temperatures:    209.55   260.94   431.10   453.14   456.60
          (Kelvin)            457.41   527.97   594.60   637.64   718.31
                              963.68   970.16   975.14  1031.27  1077.28
                             1082.23  1084.19  1095.38  1146.10  1236.48
                             1571.03  1608.61  1703.46  1710.86  1726.90
                             1891.38  1989.97  2030.19  2109.09  2192.52
                             2244.93  2359.40  4466.23  4471.61  4766.58
                             4770.83

 Zero-point correction=                           0.090290 (Hartree/Particle)
 Thermal correction to Energy=                    0.098251
 Thermal correction to Enthalpy=                  0.099195
 Thermal correction to Gibbs Free Energy=         0.057820
 Sum of electronic and zero-point Energies=           -531.967265
 Sum of electronic and thermal Energies=              -531.959304
 Sum of electronic and thermal Enthalpies=            -531.958360
 Sum of electronic and thermal Free Energies=         -531.999735

                     E (Thermal)             CV                S
                      KCal/Mol        Cal/Mol-Kelvin    Cal/Mol-Kelvin
 Total                   61.654             31.312             87.083
 Electronic               0.000              0.000              0.000
 Translational            0.889              2.981             40.721
 Rotational               0.889              2.981             29.412
 Vibrational             59.876             25.350             16.949
 Vibration     1          0.617              1.907              2.728
 Vibration     2          0.630              1.865              2.314
 Vibration     3          0.692              1.674              1.419
 Vibration     4          0.702              1.645              1.336
 Vibration     5          0.704              1.640              1.324
 Vibration     6          0.704              1.639              1.321
 Vibration     7          0.740              1.540              1.092
 Vibration     8          0.777              1.441              0.915
 Vibration     9          0.803              1.376              0.817
 Vibration    10          0.855              1.252              0.660

 Optimization completed.
    -- Stationary point found.
 Normal termination of Gaussian 16 at Wed Jan 10 17:53:51 2024.
