 Q-Chem 5.4, Q-Chem, Inc., Pleasanton, CA (2021)
 Q-Chem 5.4.0 for Intel X86 EM64T Linux

User input:
--------------------------------------------------------------
$molecule
-2 1
O                 -2.7252300000     -0.2031280000      0.4485040000
C                 -1.3497560000     -0.0568330000      0.2276990000
C                 -0.7074870000      1.1826600000      0.2663440000
C                  0.6902590000      1.2876750000      0.0366030000
O                  1.4224730000      2.3954250000      0.0442370000
C                  1.3498130000      0.0567830000     -0.2277990000
C                  0.7075610000     -1.1826380000     -0.2664020000
C                 -0.6901410000     -1.2877760000     -0.0359850000
O                 -1.4221100000     -2.3956170000     -0.0431110000
O                  2.7251110000      0.2032380000     -0.4492520000
H                 -2.7769380000     -1.1872980000      0.3380140000
H                 -1.2792140000      2.0860410000      0.4752590000
H                  1.2790870000     -2.0860150000     -0.4758550000
H                  2.7765710000      1.1874830000     -0.3382560000
$end
$rem
MAX_SCF_CYCLES=200
BASIS  =  6-311++G(d,p)
GUI  =  2
JOB_TYPE  =  SP
METHOD  =  B3LYP
SOLVENT_METHOD = PCM
$end
$pcm
theory = CPCM
$end
$solvent
dielectric 37.219
opticaldielectric 1.43
$end

--------------------------------------------------------------

             Standard Nuclear Orientation (Angstroms)
    I     Atom           X                Y                Z
 ----------------------------------------------------------------
    1      O      -2.7252300000    -0.2031280000     0.4485040000
    2      C      -1.3497560000    -0.0568330000     0.2276990000
    3      C      -0.7074870000     1.1826600000     0.2663440000
    4      C       0.6902590000     1.2876750000     0.0366030000
    5      O       1.4224730000     2.3954250000     0.0442370000
    6      C       1.3498130000     0.0567830000    -0.2277990000
    7      C       0.7075610000    -1.1826380000    -0.2664020000
    8      C      -0.6901410000    -1.2877760000    -0.0359850000
    9      O      -1.4221100000    -2.3956170000    -0.0431110000
   10      O       2.7251110000     0.2032380000    -0.4492520000
   11      H      -2.7769380000    -1.1872980000     0.3380140000
   12      H      -1.2792140000     2.0860410000     0.4752590000
   13      H       1.2790870000    -2.0860150000    -0.4758550000
   14      H       2.7765710000     1.1874830000    -0.3382560000
 ----------------------------------------------------------------

    9    -532.3533151452      2.64e-06  Convergence criterion met
 Total energy in the final basis set =     -532.3533151452

                    Orbital Energies (a.u.)
 --------------------------------------------------------------

 Alpha MOs
 -- Occupied --
-19.1100 -19.1100 -19.0310 -19.0310 -10.1770 -10.1769 -10.1717 -10.1717
-10.1289 -10.1289  -1.0176  -1.0160  -0.9239  -0.9231  -0.7822  -0.6950
 -0.6471  -0.5701  -0.5466  -0.5032  -0.4553  -0.4375  -0.4208  -0.4018
 -0.3910  -0.3667  -0.3600  -0.3502  -0.3428  -0.3093  -0.3047  -0.2994
 -0.2253  -0.2217  -0.2159  -0.1904  -0.1233

          Ground-State Mulliken Net Atomic Charges

     Atom                 Charge (a.u.)
  ----------------------------------------
      1 O                    -0.385859
      2 C                    -0.193924
      3 C                     0.132499
      4 C                    -0.225375
      5 O                    -0.774846
      6 C                    -0.194334
      7 C                     0.133050
      8 C                    -0.225919
      9 O                    -0.774854
     10 O                    -0.385846
     11 H                     0.277815
     12 H                     0.169891
     13 H                     0.169881
     14 H                     0.277821
  ----------------------------------------
  Sum of atomic charges =    -2.000000

                    Cartesian Multipole Moments
 -----------------------------------------------------------------
    Charge (ESU x 10^10)
                -9.6064
    Dipole Moment (Debye)
         X      -0.0018      Y       0.0007      Z      -0.0030
       Tot       0.0035
    Quadrupole Moments (Debye-Ang)
        XX     -95.3544     XY     -18.7262     YY    -105.4890
        XZ       2.7716     YZ      -1.4972     ZZ     -67.0100

 Total job time:  51.25s(wall), 73.13s(cpu)
        *  Thank you very much for using Q-Chem.  Have a nice day.  *
