 Q-Chem 5.4, Q-Chem, Inc., Pleasanton, CA (2021)
 Q-Chem 5.4.0 for Intel X86 EM64T Linux

User input:
--------------------------------------------------------------
$molecule
-1 2
N                 -5.0515430000     -0.6631730000     -0.5892000000
C                 -3.7398880000     -0.2164920000     -0.2825240000
C                 -3.5660600000      1.0212930000      0.3847940000
C                 -2.2979560000      1.4922360000      0.6504320000
C                 -1.1438530000      0.7765410000      0.2651760000
C                  0.1761470000      1.3224860000      0.5723890000
O                  0.3264250000      2.4170330000      1.1765100000
C                  1.3180200000      0.5166470000      0.1372850000
C                  2.6241600000      0.9801340000      0.4047490000
C                  3.7404280000      0.2587790000      0.0241990000
N                  5.0524370000      0.7520600000      0.2449700000
C                  3.5666550000     -0.9741610000     -0.6521150000
C                  2.2985350000     -1.4465310000     -0.9150260000
C                  1.1444130000     -0.7274310000     -0.5363340000
C                 -0.1756030000     -1.2753100000     -0.8400910000
O                 -0.3259940000     -2.3770370000     -1.4307670000
C                 -1.3173770000     -0.4650670000     -0.4129680000
C                 -2.6237040000     -0.9345540000     -0.6691470000
H                 -5.7268860000     -0.4318350000      0.1285500000
H                 -5.0878610000     -1.6543250000     -0.7897430000
H                 -4.4395130000      1.5985460000      0.6778880000
H                 -2.1494240000      2.4355640000      1.1637850000
H                  2.7169770000      1.9284050000      0.9252120000
H                  5.7221510000      0.0209550000      0.4488250000
H                  5.0854850000      1.4615580000      0.9655700000
H                  4.4402730000     -1.5391330000     -0.9677550000
H                  2.1500400000     -2.3901340000     -1.4279500000
H                 -2.7164840000     -1.8870520000     -1.1819060000
$end
$rem
MAX_SCF_CYCLES=200
BASIS  =  6-311++G(d,p)
GUI  =  2
JOB_TYPE  =  SP
METHOD  =  B3LYP
SOLVENT_METHOD = COSMO
$end
$solvent
dielectric 37.219
opticaldielectric 1.43
$end

--------------------------------------------------------------

             Standard Nuclear Orientation (Angstroms)
    I     Atom           X                Y                Z
 ----------------------------------------------------------------
    1      N       5.0812742232    -0.6153672020     0.0516596703
    2      C       3.7485484067    -0.1301202432     0.0027698888
    3      C       3.5178763703     1.2678802591     0.0078885096
    4      C       2.2288666350     1.7566442817     0.0063905648
    5      C       1.1086689068     0.8977271450     0.0100858271
    6      C      -0.2356743043     1.4700673302     0.0081329729
    7      O      -0.4365629194     2.7131125483     0.0003134444
    8      C      -1.3394714581     0.5087254480     0.0125558445
    9      C      -2.6662844481     0.9902694986     0.0061132627
   10      C      -3.7486073293     0.1301581711     0.0027559281
   11      N      -5.0811270345     0.6153791360     0.0515969564
   12      C      -3.5179304722    -1.2678764892     0.0078551288
   13      C      -2.2289242419    -1.7565935735     0.0062755911
   14      C      -1.1086596306    -0.8978132997     0.0099733848
   15      C       0.2356789954    -1.4702044106     0.0079661969
   16      O       0.4365891687    -2.7131436610     0.0005436291
   17      C       1.3394267861    -0.5088020829     0.0126589870
   18      C       2.6663490755    -0.9902301804     0.0063203012
   19      H       5.7309496316    -0.0427879371    -0.4725972796
   20      H       5.1550624028    -1.5799102686    -0.2452085768
   21      H       4.3644605799     1.9499178900     0.0207379437
   22      H       2.0369101501     2.8237025915     0.0061795475
   23      H      -2.8029085514     2.0673158954     0.0016936558
   24      H      -5.7311894392     0.0432992648    -0.4725516053
   25      H      -5.1550519993     1.5805256903    -0.2429725100
   26      H      -4.3645342871    -1.9498793361     0.0206800147
   27      H      -2.0370061301    -2.8236904607     0.0059785983
   28      H       2.8028875812    -2.0673190916     0.0019529074
 ----------------------------------------------------------------

   10    -799.7675969036      8.85e-06  Convergence criterion met
 Total energy in the final basis set =     -799.7675969036
    4    -799.8661427701      8.61e-06  Convergence criterion met
 Total energy in the final basis set =     -799.8661427701

                    Orbital Energies (a.u.)
 --------------------------------------------------------------

 Alpha MOs
 -- Occupied --
-19.0751 -19.0751 -14.3139 -14.3139 -10.2215 -10.2215 -10.2119 -10.2119
-10.1709 -10.1708 -10.1701 -10.1701 -10.1688 -10.1688 -10.1647 -10.1647
-10.1609 -10.1608  -1.0018  -0.9994  -0.9136  -0.9135  -0.8491  -0.8341
 -0.7710  -0.7492  -0.7419  -0.7225  -0.6623  -0.6386  -0.6091  -0.5949
 -0.5580  -0.5373  -0.5283  -0.5054  -0.4910  -0.4861  -0.4664  -0.4490
 -0.4436  -0.4223  -0.4220  -0.4203  -0.4188  -0.4063  -0.4031  -0.3925
 -0.3820  -0.3791  -0.3697  -0.3540  -0.3471  -0.3326  -0.3106  -0.3031
 -0.2616  -0.2536  -0.2472  -0.2378  -0.2279  -0.2134  -0.1369

 Beta MOs
 -- Occupied --
-19.0699 -19.0699 -14.3137 -14.3137 -10.2195 -10.2195 -10.2113 -10.2113
-10.1700 -10.1700 -10.1698 -10.1698 -10.1686 -10.1686 -10.1644 -10.1644
-10.1606 -10.1605  -0.9926  -0.9900  -0.9127  -0.9127  -0.8463  -0.8332
 -0.7678  -0.7463  -0.7403  -0.7209  -0.6548  -0.6370  -0.6068  -0.5941
 -0.5554  -0.5350  -0.5273  -0.5048  -0.4906  -0.4842  -0.4638  -0.4480
 -0.4422  -0.4218  -0.4199  -0.4149  -0.4103  -0.4035  -0.4009  -0.3909
 -0.3782  -0.3635  -0.3572  -0.3504  -0.3467  -0.3311  -0.3077  -0.2915
 -0.2515  -0.2449  -0.2424  -0.2329  -0.2191  -0.2079

          Ground-State Mulliken Net Atomic Charges

     Atom                 Charge (a.u.)    Spin (a.u.)
  --------------------------------------------------------
      1 N                    -0.403962       0.010125
      2 C                    -0.575231       0.034482
      3 C                    -0.166311       0.010785
      4 C                     0.124752       0.034981
      5 C                     0.170135      -0.000887
      6 C                    -0.692503       0.118349
      7 O                    -0.511248       0.188833
      8 C                     0.456869       0.059215
      9 C                    -0.035581       0.050127
     10 C                    -0.573707       0.034362
     11 N                    -0.403522       0.010157
     12 C                    -0.167379       0.010783
     13 C                     0.124795       0.034895
     14 C                     0.170739      -0.000936
     15 C                    -0.692971       0.118197
     16 O                    -0.511113       0.188754
     17 C                     0.457591       0.059330
     18 C                    -0.035915       0.049922
     19 H                     0.282342       0.000737
     20 H                     0.288800      -0.000194
     21 H                     0.217237      -0.001558
     22 H                     0.179711      -0.001597
     23 H                     0.164212      -0.003132
     24 H                     0.282258       0.000737
     25 H                     0.288803      -0.000196
     26 H                     0.217197      -0.001559
     27 H                     0.179699      -0.001593
     28 H                     0.164305      -0.003120
  --------------------------------------------------------
  Sum of atomic charges =    -1.000000

                    Cartesian Multipole Moments
 -----------------------------------------------------------------
    Charge (ESU x 10^10)
                -4.8032
    Dipole Moment (Debye)
         X      -0.0081      Y       0.0008      Z      -3.1368
       Tot       3.1368
    Quadrupole Moments (Debye-Ang)
        XX     -83.0190     XY       3.4008     YY    -138.5604
        XZ      -0.0259     YZ       0.0099     ZZ    -113.4953

 Total job time:  83.92s(wall), 641.79s(cpu)
        *  Thank you very much for using Q-Chem.  Have a nice day.  *
