 Gaussian 16, Revision A.03,
 Gaussian 16:  ES64L-G16RevA.03 25-Dec-2016

 ----------------------------------------------------------------
 #P UB3LYP/6-311++G(d,p) SCRF=(PCM,Solvent=n,n-DiMethylFormamide)
 ----------------------------------------------------------------

 ------------------
 Quinone PCM in DMF
 ------------------
 Symbolic Z-matrix:
 Charge =  0 Multiplicity = 1

                         Standard orientation:
 ---------------------------------------------------------------------
 Center     Atomic      Atomic             Coordinates (Angstroms)
 Number     Number       Type             X           Y           Z
 ---------------------------------------------------------------------
      1          6           0       -2.136808   -0.427544    0.723761
      2          6           0       -2.812347   -1.501202    0.261879
      3          6           0       -2.322941   -2.920269    0.312699
      4          6           0       -4.154235   -1.332701   -0.384909
      5          8           0       -4.725716   -2.306125   -0.858954
      6          6           0       -4.776571    0.009554   -0.469159
      7          6           0       -4.097618    1.101549   -0.027050
      8          8           0       -4.453758    2.388422   -0.068559
      9          6           0       -5.786491    2.815944   -0.385727
     10          6           0       -2.732825    0.938674    0.591375
     11          8           0       -2.136157    1.920121    0.991045
     12          8           0       -5.959091    0.130399   -1.140027
     13          6           0       -7.101407   -0.567049   -0.611754
     14          1           0       -2.314709   -3.351467   -0.691489
     15          1           0       -3.006627   -3.539858    0.900554
     16          1           0       -1.324223   -2.997328    0.736609
     17          1           0       -6.511797    2.353833    0.287860
     18          1           0       -5.772339    3.892923   -0.226511
     19          1           0       -6.042586    2.585249   -1.418141
     20          1           0       -6.947199   -1.644479   -0.634658
     21          1           0       -7.934726   -0.295130   -1.258331
     22          1           0       -7.308509   -0.232821    0.411167
     23          6           0       -0.769803   -0.471962    1.358277
     24          6           0        0.372281   -0.291335    0.336320
     25          6           0        1.757424   -0.296640    0.991289
     26          6           0        2.903829   -0.121609   -0.011122
     27          6           0        4.292201   -0.127385    0.638756
     28          6           0        5.439060    0.050406   -0.362657
     29          6           0        6.827958    0.045998    0.286023
     30          6           0        7.974732    0.224332   -0.715128
     31          6           0        9.364345    0.220757   -0.067900
     32          6           0       10.503120    0.399784   -1.076195
     33          1           0       -0.635488   -1.415089    1.892911
     34          1           0       -0.705941    0.331147    2.095679
     35          1           0        0.224537    0.652762   -0.198362
     36          1           0        0.316715   -1.088306   -0.414832
     37          1           0        1.897031   -1.237065    1.540621
     38          1           0        1.804336    0.504098    1.739855
     39          1           0        2.764052    0.819648   -0.557791
     40          1           0        2.853101   -0.920047   -0.762794
     41          1           0        4.432107   -1.069096    1.185412
     42          1           0        4.342136    0.670345    1.391069
     43          1           0        5.298459    0.991845   -0.909332
     44          1           0        5.388987   -0.747294   -1.115201
     45          1           0        6.968748   -0.895496    0.832852
     46          1           0        6.877892    0.843754    1.038491
     47          1           0        7.834716    1.165777   -1.262411
     48          1           0        7.925928   -0.573390   -1.467980
     49          1           0        9.505121   -0.719984    0.478362
     50          1           0        9.413816    1.018084    0.683749
     51          1           0       10.501887   -0.402536   -1.820936
     52          1           0       11.479252    0.392939   -0.583087
     53          1           0       10.409663    1.348634   -1.614037
 ---------------------------------------------------------------------

 SCF Done:  E(UB3LYP) =  -1043.25677674     A.U. after   16 cycles

 The electronic state is 1-A.
 Alpha  occ. eigenvalues --  -19.18027 -19.16039 -19.13990 -19.13322 -10.28712
 Alpha  occ. eigenvalues --  -10.28154 -10.26732 -10.25163 -10.22797 -10.22070
 Alpha  occ. eigenvalues --  -10.21304 -10.20901 -10.17755 -10.17517 -10.16987
 Alpha  occ. eigenvalues --  -10.16336 -10.16164 -10.16109 -10.16001 -10.15955
 Alpha  occ. eigenvalues --  -10.15935 -10.15915 -10.15525  -1.10504  -1.08147
 Alpha  occ. eigenvalues --   -1.06770  -1.05525  -0.86400  -0.81815  -0.80948
 Alpha  occ. eigenvalues --   -0.79596  -0.77475  -0.74945  -0.74467  -0.72709
 Alpha  occ. eigenvalues --   -0.70670  -0.68184  -0.66721  -0.64992  -0.61437
 Alpha  occ. eigenvalues --   -0.59882  -0.58773  -0.58149  -0.57459  -0.57245
 Alpha  occ. eigenvalues --   -0.55637  -0.53413  -0.51568  -0.49744  -0.48740
 Alpha  occ. eigenvalues --   -0.47944  -0.46950  -0.46708  -0.46614  -0.45719
 Alpha  occ. eigenvalues --   -0.45232  -0.44694  -0.44335  -0.43384  -0.42857
 Alpha  occ. eigenvalues --   -0.42630  -0.42257  -0.41961  -0.40867  -0.40250
 Alpha  occ. eigenvalues --   -0.40065  -0.39671  -0.38932  -0.38500  -0.37293
 Alpha  occ. eigenvalues --   -0.36721  -0.36104  -0.36042  -0.35693  -0.34692
 Alpha  occ. eigenvalues --   -0.34426  -0.33991  -0.33035  -0.32767  -0.32355
 Alpha  occ. eigenvalues --   -0.32149  -0.31990  -0.31763  -0.30454  -0.28619
 Alpha  occ. eigenvalues --   -0.28454  -0.27272  -0.24428
 Alpha virt. eigenvalues --   -0.12475  -0.01113  -0.00933  -0.00386  -0.00054
 Alpha virt. eigenvalues --    0.00311   0.00553   0.00673   0.01035   0.01295
 Alpha virt. eigenvalues --    0.01609   0.02030   0.02238   0.02633   0.02984

  Beta  occ. eigenvalues --  -19.18027 -19.16039 -19.13990 -19.13322 -10.28712
  Beta  occ. eigenvalues --  -10.28154 -10.26732 -10.25163 -10.22797 -10.22070
  Beta  occ. eigenvalues --  -10.21304 -10.20901 -10.17755 -10.17517 -10.16987
  Beta  occ. eigenvalues --  -10.16336 -10.16164 -10.16109 -10.16001 -10.15955
  Beta  occ. eigenvalues --  -10.15935 -10.15915 -10.15525  -1.10504  -1.08147
  Beta  occ. eigenvalues --   -1.06770  -1.05525  -0.86400  -0.81815  -0.80948
  Beta  occ. eigenvalues --   -0.79596  -0.77475  -0.74945  -0.74467  -0.72709
  Beta  occ. eigenvalues --   -0.70670  -0.68184  -0.66721  -0.64992  -0.61437
  Beta  occ. eigenvalues --   -0.59882  -0.58773  -0.58149  -0.57459  -0.57245
  Beta  occ. eigenvalues --   -0.55637  -0.53413  -0.51568  -0.49744  -0.48740
  Beta  occ. eigenvalues --   -0.47944  -0.46950  -0.46708  -0.46614  -0.45719
  Beta  occ. eigenvalues --   -0.45232  -0.44694  -0.44335  -0.43384  -0.42857
  Beta  occ. eigenvalues --   -0.42630  -0.42257  -0.41961  -0.40867  -0.40250
  Beta  occ. eigenvalues --   -0.40065  -0.39671  -0.38932  -0.38500  -0.37293
  Beta  occ. eigenvalues --   -0.36721  -0.36104  -0.36042  -0.35693  -0.34692
  Beta  occ. eigenvalues --   -0.34426  -0.33991  -0.33035  -0.32767  -0.32355
  Beta  occ. eigenvalues --   -0.32149  -0.31990  -0.31763  -0.30454  -0.28619
  Beta  occ. eigenvalues --   -0.28454  -0.27272  -0.24428
  Beta virt. eigenvalues --   -0.12475  -0.01113  -0.00933  -0.00386  -0.00054
  Beta virt. eigenvalues --    0.00311   0.00553   0.00673   0.01035   0.01295
  Beta virt. eigenvalues --    0.01609   0.02030   0.02238   0.02633   0.02984

 Mulliken charges and spin densities:
               1          2
     1  C    1.279291   0.000000
     2  C    0.853261  -0.000000
     3  C   -0.570460  -0.000000
     4  C   -0.486511  -0.000000
     5  O   -0.301900   0.000000
     6  C    0.142214   0.000000
     7  C   -0.127100   0.000000
     8  O   -0.201777   0.000000
     9  C   -0.286823   0.000000
    10  C   -0.905913  -0.000000
    11  O   -0.256655  -0.000000
    12  O   -0.220304  -0.000000
    13  C   -0.309033  -0.000000
    14  H    0.190659  -0.000000
    15  H    0.199814   0.000000
    16  H    0.139367  -0.000000
    17  H    0.185193   0.000000
    18  H    0.194676  -0.000000
    19  H    0.196559   0.000000
    20  H    0.171151   0.000000
    21  H    0.168900  -0.000000
    22  H    0.148798  -0.000000
    23  C   -0.436846   0.000000
    24  C   -0.891208   0.000000
    25  C   -0.281128  -0.000000
    26  C    0.009115   0.000000
    27  C    0.064039  -0.000000
    28  C   -0.011398  -0.000000
    29  C   -0.237617   0.000000
    30  C   -0.451895   0.000000
    31  C   -0.279083  -0.000000
    32  C   -0.691493   0.000000
    33  H    0.202626  -0.000000
    34  H    0.219783  -0.000000
    35  H    0.209355   0.000000
    36  H    0.147588   0.000000
    37  H    0.131722   0.000000
    38  H    0.123506   0.000000
    39  H    0.124695  -0.000000
    40  H    0.131845  -0.000000
    41  H    0.130306  -0.000000
    42  H    0.132301  -0.000000
    43  H    0.130093  -0.000000
    44  H    0.130320  -0.000000
    45  H    0.126496  -0.000000
    46  H    0.126774  -0.000000
    47  H    0.123753  -0.000000
    48  H    0.123383  -0.000000
    49  H    0.131022   0.000000
    50  H    0.131035  -0.000000
    51  H    0.140026   0.000000
    52  H    0.147467  -0.000000
    53  H    0.140011   0.000000
 Sum of Mulliken charges =  -0.00000  -0.00000

 Dipole moment (field-independent basis, Debye):
    X=             -1.5970    Y=             -1.0381    Z=              1.1981  Tot=              2.2502
 Quadrupole moment (field-independent basis, Debye-Ang):
   XX=           -118.0388   YY=           -148.4406   ZZ=           -147.5898
   XY=            -11.5180   XZ=             -5.7415   YZ=             -7.8407

 Normal termination of Gaussian 16 at Wed Jan 24 23:03:22 2024.
