 Q-Chem 5.4, Q-Chem, Inc., Pleasanton, CA (2021)
 Q-Chem 5.4.0 for Intel X86 EM64T Linux

User input:
--------------------------------------------------------------
$molecule
0 1
C                 -3.0683270000     -1.7240670000     -0.0188160000
O                 -2.3146120000     -0.5301640000      0.2744040000
C                 -0.9848730000     -0.4815580000      0.0982350000
C                 -0.4143650000      0.6999640000     -0.2760500000
O                 -1.2040520000      1.7447690000     -0.6103960000
C                 -1.0186590000      2.9877730000      0.0917310000
C                  1.0533570000      0.8119590000     -0.4729690000
O                  1.5545200000      1.8378040000     -0.9076650000
C                  1.9213050000     -0.3748150000     -0.1616870000
C                  1.3430760000     -1.5168220000      0.2352680000
C                 -0.1158850000     -1.6503840000      0.4328180000
O                 -0.5857700000     -2.6809590000      0.8919360000
C                  3.3966650000     -0.1968560000     -0.3421870000
H                 -3.0239060000     -2.4280530000      0.8092520000
H                 -4.0883330000     -1.3759160000     -0.1761260000
H                 -2.7002130000     -2.2022420000     -0.9288240000
H                 -1.1746170000      2.8378350000      1.1645150000
H                 -1.7870310000      3.6549640000     -0.2949090000
H                 -0.0302480000      3.4042790000     -0.0986940000
H                  1.9158640000     -2.4086130000      0.4662330000
H                  3.7709620000      0.6007720000      0.3057790000
H                  3.9317620000     -1.1198760000     -0.1163360000
H                  3.6233790000      0.1102050000     -1.3665920000
$end
$rem
MAX_SCF_CYCLES=200
BASIS  =  6-311++G(d,p)
GUI  =  2
JOB_TYPE  =  SP
METHOD  =  B3LYP
SOLVENT_METHOD = PCM
$end
$pcm
theory = CPCM
$end
$solvent
dielectric 37.219
opticaldielectric 1.43
$end

--------------------------------------------------------------

             Standard Nuclear Orientation (Angstroms)
    I     Atom           X                Y                Z
 ----------------------------------------------------------------
    1      C      -3.0683270000    -1.7240670000    -0.0188160000
    2      O      -2.3146120000    -0.5301640000     0.2744040000
    3      C      -0.9848730000    -0.4815580000     0.0982350000
    4      C      -0.4143650000     0.6999640000    -0.2760500000
    5      O      -1.2040520000     1.7447690000    -0.6103960000
    6      C      -1.0186590000     2.9877730000     0.0917310000
    7      C       1.0533570000     0.8119590000    -0.4729690000
    8      O       1.5545200000     1.8378040000    -0.9076650000
    9      C       1.9213050000    -0.3748150000    -0.1616870000
   10      C       1.3430760000    -1.5168220000     0.2352680000
   11      C      -0.1158850000    -1.6503840000     0.4328180000
   12      O      -0.5857700000    -2.6809590000     0.8919360000
   13      C       3.3966650000    -0.1968560000    -0.3421870000
   14      H      -3.0239060000    -2.4280530000     0.8092520000
   15      H      -4.0883330000    -1.3759160000    -0.1761260000
   16      H      -2.7002130000    -2.2022420000    -0.9288240000
   17      H      -1.1746170000     2.8378350000     1.1645150000
   18      H      -1.7870310000     3.6549640000    -0.2949090000
   19      H      -0.0302480000     3.4042790000    -0.0986940000
   20      H       1.9158640000    -2.4086130000     0.4662330000
   21      H       3.7709620000     0.6007720000     0.3057790000
   22      H       3.9317620000    -1.1198760000    -0.1163360000
   23      H       3.6233790000     0.1102050000    -1.3665920000
 ----------------------------------------------------------------

    8    -650.0130668285      9.92e-06  Convergence criterion met
 Total energy in the final basis set =     -650.0130668285

                    Orbital Energies (a.u.)
 --------------------------------------------------------------

 Alpha MOs
 -- Occupied --
-19.1730 -19.1622 -19.1422 -19.1405 -10.2907 -10.2871 -10.2647 -10.2552
-10.2222 -10.2197 -10.2188 -10.2006 -10.1754  -1.1008  -1.0838  -1.0680
 -1.0596  -0.8622  -0.8051  -0.7374  -0.7309  -0.6970  -0.6726  -0.6144
 -0.5966  -0.5531  -0.5298  -0.5220  -0.4942  -0.4812  -0.4727  -0.4665
 -0.4553  -0.4506  -0.4436  -0.4249  -0.4175  -0.4098  -0.4042  -0.3954
 -0.3762  -0.3694  -0.3421  -0.3236  -0.2990  -0.2827  -0.2793  -0.2467

          Ground-State Mulliken Net Atomic Charges

     Atom                 Charge (a.u.)
  ----------------------------------------
      1 C                    -0.301563
      2 O                    -0.202108
      3 C                     0.386478
      4 C                    -0.294062
      5 O                    -0.191771
      6 C                    -0.307549
      7 C                    -0.328949
      8 O                    -0.301139
      9 C                     1.242352
     10 C                    -0.878678
     11 C                    -0.062622
     12 O                    -0.300375
     13 C                    -0.344998
     14 H                     0.195011
     15 H                     0.169794
     16 H                     0.187850
     17 H                     0.168774
     18 H                     0.176673
     19 H                     0.177308
     20 H                     0.229536
     21 H                     0.200129
     22 H                     0.184506
     23 H                     0.195405
  ----------------------------------------
  Sum of atomic charges =     0.000000

                    Cartesian Multipole Moments
 -----------------------------------------------------------------
    Charge (ESU x 10^10)
                 0.0000
    Dipole Moment (Debye)
         X       0.9848      Y      -0.6563      Z       0.5755
       Tot       1.3160
    Quadrupole Moments (Debye-Ang)
        XX     -66.4395     XY      -4.1005     YY     -79.2948
        XZ       2.6142     YZ       9.4293     ZZ     -78.9936

 Total job time:  22.63s(wall), 158.56s(cpu)
        *  Thank you very much for using Q-Chem.  Have a nice day.  *
