 Q-Chem 5.4, Q-Chem, Inc., Pleasanton, CA (2021)
 Q-Chem 5.4.0 for Intel X86 EM64T Linux

User input:
--------------------------------------------------------------
$molecule
-2 1
C                 -2.0407750000      0.3599920000      1.5683910000
C                 -2.8862200000      1.1780360000      0.7211270000
C                 -2.4739620000      1.4806080000     -0.5817300000
C                 -1.2699020000      1.0759750000     -1.2350390000
C                 -0.4245560000      0.2577570000     -0.3878480000
C                 -0.8367950000     -0.0447850000      0.9150230000
O                 -0.9447370000      1.3886510000     -2.4429970000
O                 -2.3660380000      0.0471320000      2.7762740000
Br                 0.3180900000     -1.1697280000      2.0893360000
Br                -3.6289550000      2.6053710000     -1.7561080000
C                  0.8916860000     -0.2334050000     -0.9805830000
C                  1.8319130000      0.9360250000     -1.3405870000
C                  0.6658610000     -1.1559880000     -2.1966950000
C                 -4.2025510000      1.6690540000      1.3137870000
C                 -3.9768960000      2.5914060000      2.5301070000
C                 -5.1428220000      0.4995480000      1.6734320000
H                  1.3945480000     -0.8267790000     -0.2153740000
H                  2.0713770000      1.5192560000     -0.4446330000
H                  1.3400560000      1.5880300000     -2.0659550000
H                  2.7762070000      0.5610230000     -1.7649730000
H                  0.0886700000     -2.0388070000     -1.9005180000
H                  1.6270520000     -1.5003630000     -2.6089060000
H                  0.1125960000     -0.6136200000     -2.9667160000
H                 -4.7053180000      2.2625700000      0.5486250000
H                 -4.9381440000      2.9356920000      2.9422580000
H                 -3.3996730000      3.4742880000      2.2341790000
H                 -3.4237330000      2.0488910000      3.3000970000
H                 -6.0871750000      0.8744650000      2.0977640000
H                 -4.6510590000     -0.1525990000      2.3987340000
H                 -5.3821660000     -0.0835040000      0.7773280000
$end

$rem
BASIS  =  6-311++G(d,p)
GUI  =  2
JOB_TYPE  =  SP
METHOD  =  B3LYP
SCF_CONVERGENCE  = 8
SOLVENT_METHOD = sm12
$end

$smx
solvent dimethylformamide
charges CM5
$end

--------------------------------------------------------------

             Standard Nuclear Orientation (Angstroms)
    I     Atom           X                Y                Z
 ----------------------------------------------------------------
    1      C      -2.0407750000     0.3599920000     1.5683910000
    2      C      -2.8862200000     1.1780360000     0.7211270000
    3      C      -2.4739620000     1.4806080000    -0.5817300000
    4      C      -1.2699020000     1.0759750000    -1.2350390000
    5      C      -0.4245560000     0.2577570000    -0.3878480000
    6      C      -0.8367950000    -0.0447850000     0.9150230000
    7      O      -0.9447370000     1.3886510000    -2.4429970000
    8      O      -2.3660380000     0.0471320000     2.7762740000
    9      Br      0.3180900000    -1.1697280000     2.0893360000
   10      Br     -3.6289550000     2.6053710000    -1.7561080000
   11      C       0.8916860000    -0.2334050000    -0.9805830000
   12      C       1.8319130000     0.9360250000    -1.3405870000
   13      C       0.6658610000    -1.1559880000    -2.1966950000
   14      C      -4.2025510000     1.6690540000     1.3137870000
   15      C      -3.9768960000     2.5914060000     2.5301070000
   16      C      -5.1428220000     0.4995480000     1.6734320000
   17      H       1.3945480000    -0.8267790000    -0.2153740000
   18      H       2.0713770000     1.5192560000    -0.4446330000
   19      H       1.3400560000     1.5880300000    -2.0659550000
   20      H       2.7762070000     0.5610230000    -1.7649730000
   21      H       0.0886700000    -2.0388070000    -1.9005180000
   22      H       1.6270520000    -1.5003630000    -2.6089060000
   23      H       0.1125960000    -0.6136200000    -2.9667160000
   24      H      -4.7053180000     2.2625700000     0.5486250000
   25      H      -4.9381440000     2.9356920000     2.9422580000
   26      H      -3.3996730000     3.4742880000     2.2341790000
   27      H      -3.4237330000     2.0488910000     3.3000970000
   28      H      -6.0871750000     0.8744650000     2.0977640000
   29      H      -4.6510590000    -0.1525990000     2.3987340000
   30      H      -5.3821660000    -0.0835040000     0.7773280000
 ----------------------------------------------------------------

   16   -5764.6007923152      3.28e-09  Convergence criterion met
 Total energy in the final basis set =    -5764.8522263083

                    Orbital Energies (a.u.)
 --------------------------------------------------------------

 Alpha MOs
 -- Occupied --
********-482.7943 -62.4466 -62.4466 -56.2668 -56.2668 -56.2636 -56.2636
-56.2633 -56.2633 -19.0101 -19.0101 -10.1805 -10.1805 -10.1791 -10.1791
-10.1689 -10.1689 -10.1559 -10.1559 -10.1559 -10.1559 -10.1457 -10.1457
 -8.6548  -8.6548  -6.4850  -6.4850  -6.4742  -6.4742  -6.4734  -6.4734
 -2.5962  -2.5962  -2.5929  -2.5929  -2.5924  -2.5924  -2.5839  -2.5839
 -2.5839  -2.5839  -0.9331  -0.9293  -0.8154  -0.8030  -0.7744  -0.7615
 -0.7332  -0.6815  -0.6814  -0.6813  -0.6407  -0.6099  -0.5640  -0.5325
 -0.5095  -0.4820  -0.4428  -0.4369  -0.4353  -0.4154  -0.4109  -0.4053
 -0.3888  -0.3872  -0.3863  -0.3636  -0.3596  -0.3536  -0.3425  -0.3390
 -0.3345  -0.3341  -0.3238  -0.3205  -0.3157  -0.3143  -0.2778  -0.2674
 -0.2544  -0.2486  -0.2192  -0.2049  -0.1895  -0.1889  -0.1185

          Ground-State Mulliken Net Atomic Charges

     Atom                 Charge (a.u.)
  ----------------------------------------
      1 C                    -2.390338
      2 C                    -0.007219
      3 C                    -0.134945
      4 C                    -2.390309
      5 C                    -0.007243
      6 C                    -0.135001
      7 O                    -0.273624
      8 O                    -0.273622
      9 Br                    0.171758
     10 Br                    0.171760
     11 C                     1.400057
     12 C                    -0.352221
     13 C                    -0.352264
     14 C                     1.400110
     15 C                    -0.352111
     16 C                    -0.352369
     17 H                     0.148533
     18 H                     0.047459
     19 H                     0.101541
     20 H                     0.246011
     21 H                     0.048072
     22 H                     0.245867
     23 H                     0.101301
     24 H                     0.148536
     25 H                     0.245900
     26 H                     0.048032
     27 H                     0.101305
     28 H                     0.245987
     29 H                     0.101533
     30 H                     0.047503
  ----------------------------------------
  Sum of atomic charges =    -2.000000

                    Cartesian Multipole Moments
 -----------------------------------------------------------------
    Charge (ESU x 10^10)
                -9.6064
    Dipole Moment (Debye)
         X      15.9023      Y      -6.8962      Z      -1.6008
       Tot      17.4070
    Quadrupole Moments (Debye-Ang)
        XX    -190.2129     XY      22.2081     YY    -156.3305
        XZ      10.8268     YZ      15.4038     ZZ    -190.4649

 Total job time:  825.64s(wall), 6404.75s(cpu)
        *  Thank you very much for using Q-Chem.  Have a nice day.  *
