 Gaussian 16, Revision A.03,
 Gaussian 16:  ES64L-G16RevA.03 25-Dec-2016

 ----------------------------------------------
 #P UB3LYP/6-311++G(d,p) nosym opt freq SCF=YQC
 ----------------------------------------------

 -------
 Radical
 -------
 Symbolic Z-matrix:
 Charge = -1 Multiplicity = 2

 SCF Done:  E(UB3LYP) =  -766.864171718     a.u. after    8 cycles
 SCF Done:  E(UB3LYP) =  -766.864191038     A.U. after   14 cycles
 SCF Done:  E(UB3LYP) =  -766.887880608     a.u. after   32 cycles
 SCF Done:  E(UB3LYP) =  -766.888030004     A.U. after   15 cycles
 SCF Done:  E(UB3LYP) =  -766.892538934     a.u. after   37 cycles
 SCF Done:  E(UB3LYP) =  -766.892679953     A.U. after   15 cycles
 SCF Done:  E(UB3LYP) =  -766.894214673     a.u. after   44 cycles
 SCF Done:  E(UB3LYP) =  -766.894387503     A.U. after   14 cycles
 SCF Done:  E(UB3LYP) =  -766.896316865     a.u. after   47 cycles
 SCF Done:  E(UB3LYP) =  -766.896481956     A.U. after   15 cycles
 SCF Done:  E(UB3LYP) =  -766.900045730     a.u. after    1 cycles
 SCF Done:  E(UB3LYP) =  -766.900057311     A.U. after   10 cycles
 SCF Done:  E(UB3LYP) =  -766.900040645     a.u. after    1 cycles
 SCF Done:  E(UB3LYP) =  -766.900057464     A.U. after   10 cycles
 SCF Done:  E(UB3LYP) =  -766.900048881     a.u. after    1 cycles
 SCF Done:  E(UB3LYP) =  -766.900057566     A.U. after    9 cycles
 SCF Done:  E(UB3LYP) =  -766.900056137     a.u. after    1 cycles
 SCF Done:  E(UB3LYP) =  -766.900057610     A.U. after    9 cycles
 Optimization completed.
    -- Stationary point found.
 Normal termination of Gaussian 16 at Tue Dec 19 08:02:39 2023.

 ----------------------------------------------------------------------
 #P Geom=AllCheck Guess=TCheck SCRF=Check GenChk UB3LYP/6-311++G(d,p) F
 req
 ----------------------------------------------------------------------

 Structure from the checkpoint file:  "042-rad.chk"
 -------
 Radical
 -------
 Charge = -1 Multiplicity = 2

                          Input orientation:
 ---------------------------------------------------------------------
 Center     Atomic      Atomic             Coordinates (Angstroms)
 Number     Number       Type             X           Y           Z
 ---------------------------------------------------------------------
      1          6           0        1.082861    1.425777   -1.313249
      2          6           0       -0.164336    0.708716   -1.404962
      3          6           0       -0.461975   -0.402865   -0.653806
      4          6           0        0.497710   -0.922744    0.310224
      5          6           0        1.765323   -0.198661    0.421795
      6          6           0        2.046963    0.910992   -0.345099
      7          6           0        3.359202    1.644521   -0.221487
      8          6           0        2.762760   -0.727975    1.423286
      9          8           0        1.316785    2.442241   -2.031801
     10          8           0        0.258123   -1.944054    1.017214
     11          1           0       -0.883893    1.098823   -2.120838
     12          1           0        4.212019    0.990951   -0.444219
     13          1           0        3.514743    2.028834    0.794497
     14          1           0        3.369488    2.483422   -0.918236
     15          1           0        2.346149   -1.604408    1.920062
     16          1           0        3.009966    0.023694    2.183527
     17          1           0        3.707769   -1.011160    0.942653
     18          6           0       -1.794576   -1.076335   -0.859621
     19          6           0       -1.746922   -2.572062   -1.160099
     20          8           0       -2.602850   -0.868023    0.368318
     21          6           0       -3.922385   -0.751575    0.254034
     22          6           0       -4.551277   -0.470859    1.603980
     23          8           0       -4.554483   -0.835058   -0.780571
     24          1           0       -2.329637   -0.561767   -1.658869
     25          1           0       -2.755980   -2.956973   -1.331411
     26          1           0       -1.268399   -3.098264   -0.335505
     27          1           0       -1.158828   -2.732805   -2.068659
     28          1           0       -4.105035   -1.102658    2.373415
     29          1           0       -5.627317   -0.630666    1.547812
     30          1           0       -4.354916    0.569841    1.877064
 ---------------------------------------------------------------------

 SCF Done:  E(UB3LYP) =  -766.900057610     a.u. after    1 cycles
 SCF Done:  E(UB3LYP) =  -766.900057610     A.U. after    1 cycles

 Alpha  occ. eigenvalues --  -19.05278 -19.00571 -18.93925 -18.93876 -10.19972
 Alpha  occ. eigenvalues --  -10.11833 -10.08742 -10.08672 -10.08263 -10.04541
 Alpha  occ. eigenvalues --  -10.04282 -10.04087 -10.04026 -10.03899 -10.03833
 Alpha  occ. eigenvalues --  -10.03431  -0.99669  -0.91235  -0.86320  -0.85865
 Alpha  occ. eigenvalues --   -0.70775  -0.68570  -0.65134  -0.62370  -0.60257
 Alpha  occ. eigenvalues --   -0.55448  -0.53765  -0.51679  -0.45587  -0.44341
 Alpha  occ. eigenvalues --   -0.41225  -0.39495  -0.37510  -0.36813  -0.35984
 Alpha  occ. eigenvalues --   -0.33121  -0.32240  -0.31670  -0.31500  -0.31118
 Alpha  occ. eigenvalues --   -0.28823  -0.28642  -0.27842  -0.26973  -0.26656
 Alpha  occ. eigenvalues --   -0.26477  -0.26161  -0.25576  -0.25325  -0.23161
 Alpha  occ. eigenvalues --   -0.23033  -0.22042  -0.21780  -0.19539  -0.17720
 Alpha  occ. eigenvalues --   -0.14475  -0.11608  -0.10682  -0.09880  -0.02643
 Alpha virt. eigenvalues --    0.07480   0.08684   0.09473   0.10206   0.10850
 Alpha virt. eigenvalues --    0.11264   0.11564   0.11576   0.11862   0.12510
 Alpha virt. eigenvalues --    0.13044   0.13364   0.14046   0.14808   0.14881

  Beta  occ. eigenvalues --  -19.05268 -19.00570 -18.93234 -18.93117 -10.19970
  Beta  occ. eigenvalues --  -10.11840 -10.08671 -10.08622 -10.08158 -10.04537
  Beta  occ. eigenvalues --  -10.04158 -10.04000 -10.03941 -10.03904 -10.03840
  Beta  occ. eigenvalues --  -10.03269  -0.99657  -0.91223  -0.85128  -0.84547
  Beta  occ. eigenvalues --   -0.70342  -0.68407  -0.65022  -0.62203  -0.60027
  Beta  occ. eigenvalues --   -0.55276  -0.53267  -0.51219  -0.45451  -0.44002
  Beta  occ. eigenvalues --   -0.40980  -0.39455  -0.37482  -0.36745  -0.35803
  Beta  occ. eigenvalues --   -0.32983  -0.32144  -0.31455  -0.31271  -0.30908
  Beta  occ. eigenvalues --   -0.28672  -0.28440  -0.27646  -0.26871  -0.26493
  Beta  occ. eigenvalues --   -0.26293  -0.25587  -0.25513  -0.23715  -0.23005
  Beta  occ. eigenvalues --   -0.21777  -0.21584  -0.20306  -0.19486  -0.17687
  Beta  occ. eigenvalues --   -0.11587  -0.10282  -0.10012  -0.09223
  Beta virt. eigenvalues --    0.04610   0.07480   0.08690   0.09505   0.10213
  Beta virt. eigenvalues --    0.10855   0.11397   0.11579   0.11770   0.12483
  Beta virt. eigenvalues --    0.12543   0.13230   0.13536   0.14063   0.14826

 Mulliken charges and spin densities:
               1          2
     1  C   -0.998951   0.071439
     2  C   -0.270801   0.092804
     3  C    1.285355   0.089481
     4  C   -0.869340   0.065151
     5  C    0.431114   0.056202
     6  C    0.750043   0.095157
     7  C   -0.459794   0.008079
     8  C   -0.607293  -0.008862
     9  O   -0.402836   0.272839
    10  O   -0.381409   0.254235
    11  H    0.147454  -0.011757
    12  H    0.117669   0.002685
    13  H    0.117728   0.002720
    14  H    0.198303  -0.002502
    15  H    0.196553  -0.001673
    16  H    0.114772   0.002818
    17  H    0.116312   0.002990
    18  C   -0.578301  -0.005072
    19  C   -0.568655   0.010447
    20  O    0.162863   0.001347
    21  C    0.230298   0.002147
    22  C   -0.577147   0.000607
    23  O   -0.307516   0.000384
    24  H    0.192937  -0.000973
    25  H    0.147469   0.001067
    26  H    0.216976  -0.002127
    27  H    0.113919   0.000341
    28  H    0.166957  -0.000048
    29  H    0.148766   0.000149
    30  H    0.166554  -0.000078
 Sum of Mulliken charges =  -1.00000   1.00000

 Dipole moment (field-independent basis, Debye):
    X=             -0.2188    Y=             -0.8397    Z=              3.6530  Tot=              3.7546
 Quadrupole moment (field-independent basis, Debye-Ang):
   XX=           -125.5404   YY=           -122.3346   ZZ=           -112.3326
   XY=            -10.7688   XZ=             -4.4230   YZ=             15.4331

  Exact polarizability: 206.578  29.288 173.492   7.766 -31.972 156.276
 Approx polarizability: 257.394  35.922 286.794  12.435 -76.436 252.759

                      1                      2                      3
                      A                      A                      A
 Frequencies --     33.2592                41.2160                46.2586
 Red. masses --      5.1216                 1.7035                 2.0128
 Frc consts  --      0.0033                 0.0017                 0.0025
 IR Inten    --      0.1869                 1.1027                 0.5527

                      4                      5                      6
                      A                      A                      A
 Frequencies --     58.6127                76.6877               100.7052
 Red. masses --      3.5797                 1.0748                 4.4039
 Frc consts  --      0.0072                 0.0037                 0.0263
 IR Inten    --      2.8965                 0.0782                 6.4101

                      7                      8                      9
                      A                      A                      A
 Frequencies --    120.3778               126.3845               135.1834
 Red. masses --      1.1130                 3.4759                 3.1784
 Frc consts  --      0.0095                 0.0327                 0.0342
 IR Inten    --      0.6320                 5.1924                 0.7250

                     10                     11                     12
                      A                      A                      A
 Frequencies --    183.9192               202.7197               230.7475
 Red. masses --      3.2670                 5.8368                 2.4306
 Frc consts  --      0.0651                 0.1413                 0.0762
 IR Inten    --      3.7194                 4.2573                 0.7260

                     13                     14                     15
                      A                      A                      A
 Frequencies --    235.6575               270.3215               287.8143
 Red. masses --      1.4118                 4.0495                 3.7287
 Frc consts  --      0.0462                 0.1743                 0.1820
 IR Inten    --      0.4120                 1.1609                 0.6665

                     16                     17                     18
                      A                      A                      A
 Frequencies --    313.4258               337.6876               366.7587
 Red. masses --      2.5982                 3.9284                 3.9333
 Frc consts  --      0.1504                 0.2639                 0.3117
 IR Inten    --      0.7834                 1.5396                 2.6566

                     19                     20                     21
                      A                      A                      A
 Frequencies --    405.7831               458.1029               474.3337
 Red. masses --      8.6418                 4.6197                 4.5513
 Frc consts  --      0.8384                 0.5712                 0.6033
 IR Inten    --     20.6858                 2.9326                11.6929

                     22                     23                     24
                      A                      A                      A
 Frequencies --    482.9108               493.1599               545.3987
 Red. masses --      5.9743                 4.0945                 3.6185
 Frc consts  --      0.8209                 0.5867                 0.6342
 IR Inten    --      1.9381                 1.6717                 1.3085

                     25                     26                     27
                      A                      A                      A
 Frequencies --    575.6959               618.6513               639.0206
 Red. masses --      5.0942                 2.8368                 4.2683
 Frc consts  --      0.9948                 0.6397                 1.0269
 IR Inten    --     11.2287                 8.4898                 5.9416

                     28                     29                     30
                      A                      A                      A
 Frequencies --    668.8808               694.8868               733.1304
 Red. masses --      3.9338                 4.4025                 4.3139
 Frc consts  --      1.0370                 1.2525                 1.3661
 IR Inten    --      2.9234                 1.9363                36.0051

                     31                     32                     33
                      A                      A                      A
 Frequencies --    775.7876               826.3828               860.2664
 Red. masses --      5.8315                 3.1329                 2.7607
 Frc consts  --      2.0679                 1.2605                 1.2037
 IR Inten    --      3.4959                50.6381                26.1531

                     34                     35                     36
                      A                      A                      A
 Frequencies --    880.9510               914.4896               949.3081
 Red. masses --      1.5861                 2.6995                 4.9399
 Frc consts  --      0.7253                 1.3301                 2.6229
 IR Inten    --     11.8011                 4.6076                21.5424

                     37                     38                     39
                      A                      A                      A
 Frequencies --    978.6027              1024.3634              1025.9743
 Red. masses --      1.7295                 1.8620                 1.4518
 Frc consts  --      0.9758                 1.1512                 0.9004
 IR Inten    --     11.7094                 3.2862                 0.4174

                     40                     41                     42
                      A                      A                      A
 Frequencies --   1034.3443              1057.1313              1061.9839
 Red. masses --      2.0331                 1.5307                 1.7983
 Frc consts  --      1.2815                 1.0078                 1.1949
 IR Inten    --    136.3719                 0.0026                 6.9034

                     43                     44                     45
                      A                      A                      A
 Frequencies --   1078.1569              1110.6380              1113.4163
 Red. masses --      1.8598                 2.5868                 2.2849
 Frc consts  --      1.2737                 1.8800                 1.6689
 IR Inten    --     66.9647                27.6028                 9.5424

                     46                     47                     48
                      A                      A                      A
 Frequencies --   1151.7700              1205.6312              1218.9491
 Red. masses --      2.9700                 1.7420                 4.4795
 Frc consts  --      2.3213                 1.4919                 3.9214
 IR Inten    --     62.9849                38.0402                 2.1468

                     49                     50                     51
                      A                      A                      A
 Frequencies --   1287.7990              1320.7164              1359.9982
 Red. masses --      3.4702                 2.9942                 1.4989
 Frc consts  --      3.3908                 3.0772                 1.6334
 IR Inten    --    491.2793                 9.1209                15.4998

                     52                     53                     54
                      A                      A                      A
 Frequencies --   1369.7172              1380.7173              1386.2433
 Red. masses --      1.1918                 1.3404                 1.2754
 Frc consts  --      1.3174                 1.5055                 1.4440
 IR Inten    --      3.1439                13.4717                10.5697

                     55                     56                     57
                      A                      A                      A
 Frequencies --   1390.2833              1395.2729              1428.9190
 Red. masses --      1.3535                 1.4156                 3.2795
 Frc consts  --      1.5414                 1.6237                 3.9452
 IR Inten    --     45.5311                70.8100                19.6148

                     58                     59                     60
                      A                      A                      A
 Frequencies --   1473.0755              1475.3647              1477.6198
 Red. masses --      1.0563                 1.1546                 1.0513
 Frc consts  --      1.3505                 1.4808                 1.3525
 IR Inten    --     12.9462                 3.8967                14.8122

                     61                     62                     63
                      A                      A                      A
 Frequencies --   1480.6393              1484.6300              1491.9413
 Red. masses --      1.3178                 1.1911                 1.0484
 Frc consts  --      1.7021                 1.5468                 1.3750
 IR Inten    --     58.1971                28.4173                 0.0211

                     64                     65                     66
                      A                      A                      A
 Frequencies --   1495.4113              1502.6559              1506.5385
 Red. masses --      3.7492                 1.1769                 1.0481
 Frc consts  --      4.9398                 1.5657                 1.4016
 IR Inten    --     78.5788                40.3180                12.3379

                     67                     68                     69
                      A                      A                      A
 Frequencies --   1520.5958              1534.4222              1637.2530
 Red. masses --      3.6808                 5.2826                 7.8542
 Frc consts  --      5.0145                 7.3281                12.4046
 IR Inten    --    286.9237                46.0725                 8.3645

                     70                     71                     72
                      A                      A                      A
 Frequencies --   1749.3530              2990.1764              2991.3050
 Red. masses --     10.6130                 1.0413                 1.0401
 Frc consts  --     19.1356                 5.4858                 5.4835
 IR Inten    --    374.8232                12.2238               173.3057

                     73                     74                     75
                      A                      A                      A
 Frequencies --   3021.9262              3025.5899              3026.9747
 Red. masses --      1.0990                 1.0988                 1.0368
 Frc consts  --      5.9129                 5.9264                 5.5971
 IR Inten    --     87.3824                 1.0924                44.9629

                     76                     77                     78
                      A                      A                      A
 Frequencies --   3042.7099              3080.0428              3084.8246
 Red. masses --      1.0364                 1.0857                 1.1009
 Frc consts  --      5.6534                 6.0682                 6.1725
 IR Inten    --      9.8416                 6.7179                47.5139

                     79                     80                     81
                      A                      A                      A
 Frequencies --   3107.1523              3108.2286              3111.7134
 Red. masses --      1.0974                 1.0948                 1.0943
 Frc consts  --      6.2422                 6.2316                 6.2431
 IR Inten    --     10.9620                 7.0692                 9.0017

                     82                     83                     84
                      A                      A                      A
 Frequencies --   3135.8573              3138.9577              3140.2390
 Red. masses --      1.0903                 1.0988                 1.1047
 Frc consts  --      6.3170                 6.3786                 6.4184
 IR Inten    --     16.7935                 8.2365                20.3153

 - Thermochemistry -
 -------------------
 Temperature   298.150 Kelvin.  Pressure   1.00000 Atm.
 Atom     1 has atomic number  6 and mass  12.00000

 Molecular mass:   222.08921 amu.
 Principal axes and moments of inertia in atomic units:
                           1         2         3
     Eigenvalues --  1934.341806045.674276875.47236
           X            0.94853  -0.27760  -0.15243
           Y            0.30950   0.71042   0.63207
           Z           -0.06717  -0.64671   0.75977
 This molecule is an asymmetric top.
 Rotational symmetry number  1.
 Warning -- assumption of classical behavior for rotation
           may cause significant error
 Rotational temperatures (Kelvin)      0.04478     0.01433     0.01260
 Rotational constants (GHZ):           0.93300     0.29852     0.26249
 Zero-point vibrational energy     618353.9 (Joules/Mol)
                                  147.79014 (Kcal/Mol)
 Warning -- explicit consideration of  26 degrees of freedom as
           vibrations may cause significant error
 Vibrational temperatures:     47.85    59.30    66.56    84.33   110.34
          (Kelvin)            144.89   173.20   181.84   194.50   264.62
                              291.67   331.99   339.06   388.93   414.10
                              450.95   485.86   527.68   583.83   659.11
                              682.46   694.80   709.55   784.71   828.30
                              890.10   919.41   962.37   999.79  1054.81
                             1116.19  1188.98  1237.73  1267.49  1315.75
                             1365.84  1407.99  1473.83  1476.15  1488.19
                             1520.98  1527.96  1551.23  1597.96  1601.96
                             1657.14  1734.63  1753.80  1852.86  1900.22
                             1956.73  1970.72  1986.54  1994.49  2000.31
                             2007.49  2055.90  2119.43  2122.72  2125.97
                             2130.31  2136.05  2146.57  2151.56  2161.99
                             2167.57  2187.80  2207.69  2355.64  2516.93
                             4302.20  4303.82  4347.88  4353.15  4355.14
                             4377.78  4431.49  4438.37  4470.50  4472.05
                             4477.06  4511.80  4516.26  4518.10

 Zero-point correction=                           0.235519 (Hartree/Particle)
 Thermal correction to Energy=                    0.252582
 Thermal correction to Enthalpy=                  0.253526
 Thermal correction to Gibbs Free Energy=         0.188685
 Sum of electronic and zero-point Energies=           -766.664539
 Sum of electronic and thermal Energies=              -766.647476
 Sum of electronic and thermal Enthalpies=            -766.646532
 Sum of electronic and thermal Free Energies=         -766.711373

                     E (Thermal)             CV                S
                      KCal/Mol        Cal/Mol-Kelvin    Cal/Mol-Kelvin
 Total                  158.497             61.227            136.470
 Electronic               0.000              0.000              1.377
 Translational            0.889              2.981             42.096
 Rotational               0.889              2.981             32.753
 Vibrational            156.720             55.265             60.243
 Vibration     1          0.594              1.983              5.625
 Vibration     2          0.594              1.981              5.200
 Vibration     3          0.595              1.979              4.971
 Vibration     4          0.596              1.974              4.503
 Vibration     5          0.599              1.965              3.974
 Vibration     6          0.604              1.949              3.441
 Vibration     7          0.609              1.932              3.094
 Vibration     8          0.611              1.927              3.000
 Vibration     9          0.613              1.918              2.871
 Vibration    10          0.631              1.862              2.288
 Vibration    11          0.639              1.836              2.108
 Vibration    12          0.652              1.794              1.873
 Vibration    13          0.655              1.786              1.835
 Vibration    14          0.674              1.728              1.594
 Vibration    15          0.685              1.696              1.487
 Vibration    16          0.701              1.648              1.344
 Vibration    17          0.718              1.600              1.223
 Vibration    18          0.740              1.541              1.093
 Vibration    19          0.771              1.458              0.942
 Vibration    20          0.816              1.343              0.772
 Vibration    21          0.831              1.307              0.726
 Vibration    22          0.839              1.288              0.702
 Vibration    23          0.849              1.265              0.675
 Vibration    24          0.901              1.150              0.554
 Vibration    25          0.932              1.084              0.493
 Vibration    26          0.979              0.992              0.419

 Optimization completed.
    -- Stationary point found.
 Normal termination of Gaussian 16 at Tue Dec 19 08:36:28 2023.
