 Gaussian 16, Revision A.03,
 Gaussian 16:  ES64L-G16RevA.03 25-Dec-2016

 ----------------------------------------------------------------
 #P UB3LYP/6-311++G(d,p) SCRF=(PCM,Solvent=n,n-DiMethylFormamide)
 ----------------------------------------------------------------

 ------------------
 Quinone PCM in DMF
 ------------------
 Symbolic Z-matrix:
 Charge =  0 Multiplicity = 1

                         Standard orientation:
 ---------------------------------------------------------------------
 Center     Atomic      Atomic             Coordinates (Angstroms)
 Number     Number       Type             X           Y           Z
 ---------------------------------------------------------------------
      1          7           0       -4.558891   -0.285443    0.002939
      2          6           0       -3.246933    0.197106    0.007048
      3          6           0       -2.955519    1.554201   -0.030979
      4          6           0       -1.637430    2.002996   -0.042119
      5          6           0       -0.585825    1.097417   -0.006082
      6          6           0        0.796643    1.637442    0.003481
      7          8           0        1.018771    2.840905    0.000729
      8          6           0        1.917363    0.654978    0.008246
      9          6           0        3.236252    1.119326    0.017162
     10          6           0        4.293745    0.218175    0.015007
     11          6           0        4.041534   -1.156922    0.004247
     12          6           0        2.733778   -1.626124   -0.003403
     13          6           0        1.662715   -0.725414   -0.001584
     14          6           0        0.270160   -1.262123   -0.001439
     15          8           0        0.095800   -2.484312   -0.009471
     16          6           0       -0.847224   -0.301343    0.009728
     17          6           0       -2.187311   -0.757864   -0.007352
     18          7           0       -2.535108   -2.089367    0.012529
     19          1           0       -4.721547   -1.062954    0.632395
     20          1           0       -5.266137    0.427869    0.112685
     21          1           0       -3.771203    2.270588   -0.029132
     22          1           0       -1.409638    3.060796   -0.058779
     23          1           0        3.404655    2.189090    0.024189
     24          1           0        5.315074    0.582017    0.021455
     25          1           0        4.867297   -1.859495    0.002592
     26          1           0        2.516555   -2.686714   -0.009715
     27          1           0       -1.756802   -2.731949   -0.093390
     28          1           0       -3.388513   -2.329416   -0.472395
 ---------------------------------------------------------------------

 SCF Done:  E(UB3LYP) =  -799.729756625     A.U. after   16 cycles

 The electronic state is 1-A.
 Alpha  occ. eigenvalues --  -19.12648 -19.11983 -14.33754 -14.33228 -10.27954
 Alpha  occ. eigenvalues --  -10.27354 -10.24329 -10.23709 -10.20526 -10.20363
 Alpha  occ. eigenvalues --  -10.20215 -10.19633 -10.19582 -10.19561 -10.19457
 Alpha  occ. eigenvalues --  -10.19446 -10.19108 -10.18851  -1.06044  -1.05502
 Alpha  occ. eigenvalues --   -0.96229  -0.91343  -0.88743  -0.86241  -0.80296
 Alpha  occ. eigenvalues --   -0.77567  -0.76248  -0.75110  -0.68565  -0.66335
 Alpha  occ. eigenvalues --   -0.64758  -0.61413  -0.58883  -0.57436  -0.56054
 Alpha  occ. eigenvalues --   -0.53439  -0.51637  -0.50684  -0.49901  -0.48807
 Alpha  occ. eigenvalues --   -0.47386  -0.46639  -0.45333  -0.45057  -0.44906
 Alpha  occ. eigenvalues --   -0.44584  -0.42986  -0.41802  -0.41169  -0.40125
 Alpha  occ. eigenvalues --   -0.38596  -0.37816  -0.37473  -0.36544  -0.33737
 Alpha  occ. eigenvalues --   -0.32794  -0.28343  -0.28329  -0.27626  -0.27039
 Alpha  occ. eigenvalues --   -0.25654  -0.21887
 Alpha virt. eigenvalues --   -0.11180  -0.06585  -0.03048  -0.01492  -0.00997
 Alpha virt. eigenvalues --   -0.00187   0.00648   0.01485   0.01836   0.03193
 Alpha virt. eigenvalues --    0.03596   0.03772   0.03821   0.03973   0.04666

  Beta  occ. eigenvalues --  -19.12648 -19.11983 -14.33754 -14.33228 -10.27954
  Beta  occ. eigenvalues --  -10.27354 -10.24329 -10.23709 -10.20526 -10.20363
  Beta  occ. eigenvalues --  -10.20215 -10.19633 -10.19582 -10.19561 -10.19457
  Beta  occ. eigenvalues --  -10.19446 -10.19108 -10.18851  -1.06044  -1.05502
  Beta  occ. eigenvalues --   -0.96229  -0.91343  -0.88743  -0.86241  -0.80296
  Beta  occ. eigenvalues --   -0.77567  -0.76248  -0.75110  -0.68565  -0.66335
  Beta  occ. eigenvalues --   -0.64758  -0.61413  -0.58883  -0.57436  -0.56054
  Beta  occ. eigenvalues --   -0.53439  -0.51637  -0.50684  -0.49901  -0.48807
  Beta  occ. eigenvalues --   -0.47386  -0.46639  -0.45333  -0.45057  -0.44906
  Beta  occ. eigenvalues --   -0.44584  -0.42986  -0.41802  -0.41169  -0.40125
  Beta  occ. eigenvalues --   -0.38596  -0.37816  -0.37473  -0.36544  -0.33737
  Beta  occ. eigenvalues --   -0.32794  -0.28343  -0.28329  -0.27626  -0.27039
  Beta  occ. eigenvalues --   -0.25654  -0.21887
  Beta virt. eigenvalues --   -0.11180  -0.06585  -0.03048  -0.01492  -0.00997
  Beta virt. eigenvalues --   -0.00187   0.00648   0.01485   0.01836   0.03193
  Beta virt. eigenvalues --    0.03596   0.03772   0.03821   0.03973   0.04666

 Mulliken charges and spin densities:
               1          2
     1  N   -0.396305   0.000000
     2  C   -0.392672   0.000000
     3  C   -0.035559   0.000000
     4  C    0.114573   0.000000
     5  C    0.472595   0.000000
     6  C   -0.530191  -0.000000
     7  O   -0.305836   0.000000
     8  C   -0.024815   0.000000
     9  C    0.185538   0.000000
    10  C   -0.425560   0.000000
    11  C   -0.452164   0.000000
    12  C    0.268296  -0.000000
    13  C    0.167075  -0.000000
    14  C   -0.514937   0.000000
    15  O   -0.305500  -0.000000
    16  C    0.412265  -0.000000
    17  C   -0.130039  -0.000000
    18  N   -0.431193  -0.000000
    19  H    0.270746  -0.000000
    20  H    0.300065  -0.000000
    21  H    0.202747   0.000000
    22  H    0.178220   0.000000
    23  H    0.181289   0.000000
    24  H    0.203460  -0.000000
    25  H    0.204596   0.000000
    26  H    0.185590  -0.000000
    27  H    0.323114  -0.000000
    28  H    0.274601   0.000000
 Sum of Mulliken charges =  -0.00000   0.00000

 Dipole moment (field-independent basis, Debye):
    X=             -3.9620    Y=             -1.9390    Z=              0.2723  Tot=              4.4194
 Quadrupole moment (field-independent basis, Debye-Ang):
   XX=            -59.2709   YY=           -113.3742   ZZ=           -107.9212
   XY=             -5.0216   XZ=             -3.0156   YZ=              1.2663

 Normal termination of Gaussian 16 at Sun Jan 14 01:04:45 2024.
