 Q-Chem 5.4, Q-Chem, Inc., Pleasanton, CA (2021)
 Q-Chem 5.4.0 for Intel X86 EM64T Linux

User input:
--------------------------------------------------------------
$molecule
0 1
C                  4.8787200000     -2.8508180000     -0.3596580000
C                  5.6055120000     -1.9535660000     -1.1301920000
C                  5.0179820000     -0.7556970000     -1.5505090000
C                  3.5570810000     -2.5573140000     -0.0027080000
C                  2.9655460000     -1.3554270000     -0.4235680000
C                  3.7071900000     -0.4581660000     -1.1999300000
C                  2.7915230000     -3.5177680000      0.8170790000
C                  1.4113710000     -3.1863680000      1.1762920000
C                  0.7998780000     -1.9631100000      0.7518940000
C                  1.5618680000     -1.0098730000     -0.0625140000
C                  0.6876230000     -4.1030390000      1.9558830000
C                 -0.6436680000     -3.8078980000      2.3157550000
C                 -0.5409700000     -1.6658160000      1.1145280000
C                 -1.2256790000     -2.6386660000      1.9092070000
O                  3.3176330000     -4.5821070000      1.1887400000
O                  1.0860080000      0.0621390000     -0.4583890000
O                  1.1881130000     -5.2652640000      2.3904950000
Br                -3.0382530000     -2.3001540000      2.4335840000
N                 -1.1606780000     -0.5249640000      0.7384050000
H                  5.3110430000     -3.7843010000     -0.0222350000
H                  6.6286880000     -2.1818080000     -1.4059960000
H                  5.5871320000     -0.0561470000     -2.1522380000
H                  3.2348950000      0.4633910000     -1.5152350000
H                 -1.1845790000     -4.5267860000      2.9166750000
H                  2.1202180000     -5.3142020000      2.0529750000
H                 -0.6335230000      0.1333970000      0.1758970000
H                 -2.1120040000     -0.3536390000      1.0171830000
$end

$rem
BASIS  =  6-311++G(d,p)
GUI  =  2
JOB_TYPE  =  SP
METHOD  =  B3LYP
SCF_CONVERGENCE  = 8
SOLVENT_METHOD = sm12
$end

$smx
solvent dimethylformamide
charges CM5
$end

--------------------------------------------------------------

             Standard Nuclear Orientation (Angstroms)
    I     Atom           X                Y                Z
 ----------------------------------------------------------------
    1      C       4.8787200000    -2.8508180000    -0.3596580000
    2      C       5.6055120000    -1.9535660000    -1.1301920000
    3      C       5.0179820000    -0.7556970000    -1.5505090000
    4      C       3.5570810000    -2.5573140000    -0.0027080000
    5      C       2.9655460000    -1.3554270000    -0.4235680000
    6      C       3.7071900000    -0.4581660000    -1.1999300000
    7      C       2.7915230000    -3.5177680000     0.8170790000
    8      C       1.4113710000    -3.1863680000     1.1762920000
    9      C       0.7998780000    -1.9631100000     0.7518940000
   10      C       1.5618680000    -1.0098730000    -0.0625140000
   11      C       0.6876230000    -4.1030390000     1.9558830000
   12      C      -0.6436680000    -3.8078980000     2.3157550000
   13      C      -0.5409700000    -1.6658160000     1.1145280000
   14      C      -1.2256790000    -2.6386660000     1.9092070000
   15      O       3.3176330000    -4.5821070000     1.1887400000
   16      O       1.0860080000     0.0621390000    -0.4583890000
   17      O       1.1881130000    -5.2652640000     2.3904950000
   18      Br     -3.0382530000    -2.3001540000     2.4335840000
   19      N      -1.1606780000    -0.5249640000     0.7384050000
   20      H       5.3110430000    -3.7843010000    -0.0222350000
   21      H       6.6286880000    -2.1818080000    -1.4059960000
   22      H       5.5871320000    -0.0561470000    -2.1522380000
   23      H       3.2348950000     0.4633910000    -1.5152350000
   24      H      -1.1845790000    -4.5267860000     2.9166750000
   25      H       2.1202180000    -5.3142020000     2.0529750000
   26      H      -0.6335230000     0.1333970000     0.1758970000
   27      H      -2.1120040000    -0.3536390000     1.0171830000
 ----------------------------------------------------------------

   15   -3393.1341958051      8.00e-09  Convergence criterion met
 Total energy in the final basis set =    -3393.1566654597

                    Orbital Energies (a.u.)
 --------------------------------------------------------------

 Alpha MOs
 -- Occupied --
******** -62.5067 -56.3272 -56.3233 -56.3232 -19.1638 -19.1368 -19.1255
-14.3440 -10.2867 -10.2798 -10.2707 -10.2643 -10.2631 -10.2133 -10.2132
-10.2126 -10.2088 -10.2083 -10.1976 -10.1974 -10.1965 -10.1956  -8.7154
 -6.5469  -6.5338  -6.5337  -2.6578  -2.6541  -2.6540  -2.6436  -2.6435
 -1.0937  -1.0597  -1.0584  -0.9605  -0.8932  -0.8801  -0.8438  -0.8015
 -0.7794  -0.7705  -0.7570  -0.6969  -0.6705  -0.6585  -0.6311  -0.6018
 -0.5859  -0.5619  -0.5505  -0.5418  -0.5125  -0.4964  -0.4873  -0.4838
 -0.4703  -0.4598  -0.4563  -0.4509  -0.4441  -0.4419  -0.4308  -0.4277
 -0.4071  -0.3966  -0.3916  -0.3815  -0.3772  -0.3676  -0.3393  -0.3182
 -0.3178  -0.2935  -0.2860  -0.2780  -0.2778  -0.2751  -0.2234

          Ground-State Mulliken Net Atomic Charges

     Atom                 Charge (a.u.)
  ----------------------------------------
      1 C                     0.206921
      2 C                     0.265209
      3 C                     0.296503
      4 C                    -0.196551
      5 C                    -0.344068
      6 C                     0.251981
      7 C                    -0.877930
      8 C                     0.256383
      9 C                     0.124165
     10 C                    -0.679653
     11 C                    -0.739329
     12 C                     0.205618
     13 C                    -0.632117
     14 C                     0.781455
     15 O                    -0.317332
     16 O                    -0.285709
     17 O                    -0.329734
     18 Br                   -0.051660
     19 N                    -0.232486
     20 H                     0.215786
     21 H                     0.320842
     22 H                     0.323315
     23 H                     0.201013
     24 H                     0.279649
     25 H                     0.312447
     26 H                     0.339926
     27 H                     0.305359
  ----------------------------------------
  Sum of atomic charges =     0.000000

                    Cartesian Multipole Moments
 -----------------------------------------------------------------
    Charge (ESU x 10^10)
                 0.0000
    Dipole Moment (Debye)
         X       0.3351      Y       2.0405      Z      -1.2350
       Tot       2.4085
    Quadrupole Moments (Debye-Ang)
        XX     -98.2478     XY       4.2647     YY    -137.2468
        XZ     -12.6303     YZ       5.1554     ZZ    -122.5416

 Total job time:  682.94s(wall), 5181.42s(cpu)
        *  Thank you very much for using Q-Chem.  Have a nice day.  *
