 Gaussian 16, Revision A.03,
 Gaussian 16:  ES64L-G16RevA.03 25-Dec-2016

 ----------------------------------------------------------------
 #P UB3LYP/6-311++G(d,p) SCRF=(PCM,Solvent=n,n-DiMethylFormamide)
 ----------------------------------------------------------------

 -------
 Reduced
 -------
 Symbolic Z-matrix:
 Charge = -2 Multiplicity = 1

                         Standard orientation:
 ---------------------------------------------------------------------
 Center     Atomic      Atomic             Coordinates (Angstroms)
 Number     Number       Type             X           Y           Z
 ---------------------------------------------------------------------
      1          6           0        2.522088   -1.670158    0.010845
      2          6           0        3.851665   -1.298609    0.079695
      3          6           0        4.199404    0.076515    0.110542
      4          6           0        1.476004   -0.716434   -0.032687
      5          6           0        1.832487    0.681500   -0.000689
      6          6           0        3.197748    1.031033    0.069670
      7          6           0        0.096652   -1.186254   -0.095210
      8          6           0       -0.866171   -0.119421   -0.131445
      9          6           0       -0.526649    1.236764   -0.104393
     10          6           0        0.812652    1.725713   -0.040546
     11          8           0       -0.212561   -2.426767   -0.116337
     12          8           0        1.100542    2.975402   -0.018385
     13          1           0        2.226918   -2.714619   -0.013616
     14          1           0        3.425780    2.092631    0.091228
     15          8           0       -2.193059   -0.540835   -0.215908
     16          6           0       -3.202808    0.377408    0.142060
     17          6           0       -4.491498   -0.370133    0.333452
     18          6           0       -5.689718    0.065518   -0.054408
     19          1           0        4.630529   -2.058822    0.109555
     20          1           0        5.244326    0.376375    0.164904
     21          1           0       -1.297802    1.999008   -0.147540
     22          1           0       -3.327560    1.167628   -0.611704
     23          1           0       -2.931561    0.876293    1.088108
     24          1           0       -4.391878   -1.320703    0.852798
     25          1           0       -5.804690    1.003938   -0.592880
     26          1           0       -6.604561   -0.484784    0.142877
 ---------------------------------------------------------------------

 SCF Done:  E(UB3LYP) =  -727.478656544     A.U. after   19 cycles

 The electronic state is 1-A.
 Alpha  occ. eigenvalues --  -19.12313 -19.01511 -19.01154 -10.21464 -10.17853
 Alpha  occ. eigenvalues --  -10.17606 -10.17022 -10.16614 -10.16451 -10.14673
 Alpha  occ. eigenvalues --  -10.14463 -10.14327 -10.14152 -10.13287 -10.13086
 Alpha  occ. eigenvalues --  -10.11804  -1.03598  -0.93427  -0.93036  -0.82136
 Alpha  occ. eigenvalues --   -0.79059  -0.75733  -0.71892  -0.70490  -0.67909
 Alpha  occ. eigenvalues --   -0.62816  -0.58630  -0.57382  -0.55911  -0.52651
 Alpha  occ. eigenvalues --   -0.49781  -0.48109  -0.47083  -0.45360  -0.43980
 Alpha  occ. eigenvalues --   -0.42397  -0.41845  -0.39925  -0.39136  -0.37711
 Alpha  occ. eigenvalues --   -0.37070  -0.36428  -0.35469  -0.35073  -0.33258
 Alpha  occ. eigenvalues --   -0.32316  -0.31668  -0.31405  -0.29998  -0.28860
 Alpha  occ. eigenvalues --   -0.26496  -0.22654  -0.22008  -0.20071  -0.19659
 Alpha  occ. eigenvalues --   -0.19166  -0.10334
 Alpha virt. eigenvalues --   -0.00758  -0.00177   0.00104   0.00691   0.01497
 Alpha virt. eigenvalues --    0.01821   0.02157   0.02403   0.03344   0.03953
 Alpha virt. eigenvalues --    0.04463   0.05283   0.05780   0.06059   0.06806

  Beta  occ. eigenvalues --  -19.12313 -19.01511 -19.01154 -10.21464 -10.17853
  Beta  occ. eigenvalues --  -10.17606 -10.17022 -10.16614 -10.16451 -10.14673
  Beta  occ. eigenvalues --  -10.14463 -10.14327 -10.14152 -10.13287 -10.13086
  Beta  occ. eigenvalues --  -10.11804  -1.03598  -0.93427  -0.93036  -0.82136
  Beta  occ. eigenvalues --   -0.79059  -0.75733  -0.71892  -0.70490  -0.67909
  Beta  occ. eigenvalues --   -0.62816  -0.58630  -0.57382  -0.55911  -0.52651
  Beta  occ. eigenvalues --   -0.49781  -0.48109  -0.47083  -0.45360  -0.43980
  Beta  occ. eigenvalues --   -0.42397  -0.41845  -0.39925  -0.39136  -0.37711
  Beta  occ. eigenvalues --   -0.37070  -0.36428  -0.35469  -0.35073  -0.33258
  Beta  occ. eigenvalues --   -0.32316  -0.31668  -0.31405  -0.29998  -0.28860
  Beta  occ. eigenvalues --   -0.26496  -0.22654  -0.22008  -0.20071  -0.19659
  Beta  occ. eigenvalues --   -0.19166  -0.10334
  Beta virt. eigenvalues --   -0.00758  -0.00177   0.00104   0.00691   0.01497
  Beta virt. eigenvalues --    0.01821   0.02157   0.02403   0.03344   0.03953
  Beta virt. eigenvalues --    0.04463   0.05283   0.05780   0.06059   0.06806

 Mulliken charges and spin densities:
               1          2
     1  C    0.072888   0.000000
     2  C   -0.459428   0.000000
     3  C   -0.418565  -0.000000
     4  C    0.107046   0.000000
     5  C    0.401620  -0.000000
     6  C    0.112135   0.000000
     7  C   -0.587783  -0.000000
     8  C   -0.391967   0.000000
     9  C    0.352354  -0.000000
    10  C   -0.321005   0.000000
    11  O   -0.708588  -0.000000
    12  O   -0.686214  -0.000000
    13  H    0.140112   0.000000
    14  H    0.137145   0.000000
    15  O   -0.167689  -0.000000
    16  C   -0.374009   0.000000
    17  C    0.043250  -0.000000
    18  C   -0.505812   0.000000
    19  H    0.153001   0.000000
    20  H    0.153210  -0.000000
    21  H    0.150720  -0.000000
    22  H    0.146639  -0.000000
    23  H    0.162477  -0.000000
    24  H    0.188001  -0.000000
    25  H    0.138070  -0.000000
    26  H    0.162393  -0.000000
 Sum of Mulliken charges =  -2.00000  -0.00000

 Dipole moment (field-independent basis, Debye):
    X=             -6.6816    Y=             -0.3970    Z=              1.0984  Tot=              6.7829
 Quadrupole moment (field-independent basis, Debye-Ang):
   XX=           -118.6609   YY=           -158.0952   ZZ=           -105.8227
   XY=            -16.4106   XZ=             -1.4505   YZ=             -2.5597

 Normal termination of Gaussian 16 at Sun Jan 21 08:59:03 2024.
