 Gaussian 16, Revision A.03,
 Gaussian 16:  ES64L-G16RevA.03 25-Dec-2016

 --------------------------------------
 #P UB3LYP/6-311++G(d,p) nosym opt freq
 --------------------------------------

 -------
 Reduced
 -------
 Symbolic Z-matrix:
 Charge = -2 Multiplicity = 1

 SCF Done:  E(UB3LYP) =  -727.207311347     A.U. after   45 cycles
 Optimization completed.
    -- Stationary point found.
 Normal termination of Gaussian 16 at Mon Jan  8 16:55:47 2024.

 ----------------------------------------------------------------------
 #P Geom=AllCheck Guess=TCheck SCRF=Check GenChk UB3LYP/6-311++G(d,p) F
 req
 ----------------------------------------------------------------------

 Structure from the checkpoint file:  "266-an.chk"
 -------
 Reduced
 -------
 Charge = -2 Multiplicity = 1

                          Input orientation:
 ---------------------------------------------------------------------
 Center     Atomic      Atomic             Coordinates (Angstroms)
 Number     Number       Type             X           Y           Z
 ---------------------------------------------------------------------
      1          6           0       -1.238643    2.866475   -0.037844
      2          6           0       -2.535387    2.395028    0.044358
      3          6           0       -2.775672    0.998270    0.108952
      4          6           0       -0.121996    1.995686   -0.062379
      5          6           0       -0.369233    0.575545    0.003936
      6          6           0       -1.703254    0.123320    0.087247
      7          6           0        1.216783    2.569081   -0.140754
      8          6           0        2.259179    1.579293   -0.155030
      9          6           0        2.025615    0.201957   -0.094706
     10          6           0        0.728249   -0.387377   -0.014693
     11          8           0        1.429085    3.828922   -0.192311
     12          8           0        0.537917   -1.654692    0.038042
     13          1           0       -1.025183    3.929742   -0.088044
     14          1           0       -1.848457   -0.951908    0.134720
     15          8           0        3.549360    2.099861   -0.254011
     16          6           0        4.627678    1.271214    0.122123
     17          6           0        5.854992    2.120474    0.291327
     18          6           0        7.082697    1.769598   -0.090228
     19          1           0       -3.370670    3.093266    0.058888
     20          1           0       -3.794182    0.619932    0.173993
     21          1           0        2.853345   -0.499219   -0.122445
     22          1           0        4.811973    0.475230   -0.613143
     23          1           0        4.397344    0.775585    1.080646
     24          1           0        5.682976    3.072628    0.788360
     25          1           0        7.269048    0.830284   -0.606721
     26          1           0        7.952549    2.393513    0.090824
 ---------------------------------------------------------------------

 SCF Done:  E(UB3LYP) =  -727.207311347     A.U. after    4 cycles

 Alpha  occ. eigenvalues --  -18.91405 -18.79828 -18.79489 -10.01932  -9.98942
 Alpha  occ. eigenvalues --   -9.98003  -9.97029  -9.95790  -9.95444  -9.94299
 Alpha  occ. eigenvalues --   -9.94174  -9.93454  -9.93297  -9.92126  -9.91992
 Alpha  occ. eigenvalues --   -9.90720  -0.82686  -0.71419  -0.71011  -0.61142
 Alpha  occ. eigenvalues --   -0.59930  -0.54887  -0.50890  -0.50149  -0.47583
 Alpha  occ. eigenvalues --   -0.41949  -0.38120  -0.37171  -0.36172  -0.31695
 Alpha  occ. eigenvalues --   -0.29458  -0.28024  -0.27085  -0.24592  -0.24332
 Alpha  occ. eigenvalues --   -0.22269  -0.21401  -0.19074  -0.18457  -0.17471
 Alpha  occ. eigenvalues --   -0.15814  -0.15364  -0.14466  -0.13273  -0.12375
 Alpha  occ. eigenvalues --   -0.11405  -0.10490  -0.09668  -0.08733  -0.08218
 Alpha  occ. eigenvalues --   -0.06728  -0.01313  -0.00101   0.01448   0.02655
 Alpha  occ. eigenvalues --    0.03127   0.12159
 Alpha virt. eigenvalues --    0.13424   0.15412   0.16053   0.17203   0.17565
 Alpha virt. eigenvalues --    0.18503   0.19747   0.20084   0.20586   0.21005
 Alpha virt. eigenvalues --    0.21256   0.22649   0.23474   0.23912   0.24525

  Beta  occ. eigenvalues --  -18.91405 -18.79828 -18.79489 -10.01932  -9.98942
  Beta  occ. eigenvalues --   -9.98003  -9.97029  -9.95790  -9.95444  -9.94299
  Beta  occ. eigenvalues --   -9.94174  -9.93454  -9.93297  -9.92126  -9.91992
  Beta  occ. eigenvalues --   -9.90720  -0.82686  -0.71419  -0.71011  -0.61142
  Beta  occ. eigenvalues --   -0.59930  -0.54887  -0.50890  -0.50149  -0.47583
  Beta  occ. eigenvalues --   -0.41949  -0.38120  -0.37171  -0.36172  -0.31695
  Beta  occ. eigenvalues --   -0.29458  -0.28024  -0.27085  -0.24592  -0.24332
  Beta  occ. eigenvalues --   -0.22269  -0.21401  -0.19074  -0.18457  -0.17471
  Beta  occ. eigenvalues --   -0.15814  -0.15364  -0.14466  -0.13273  -0.12375
  Beta  occ. eigenvalues --   -0.11405  -0.10490  -0.09668  -0.08733  -0.08218
  Beta  occ. eigenvalues --   -0.06728  -0.01313  -0.00101   0.01448   0.02655
  Beta  occ. eigenvalues --    0.03127   0.12159
  Beta virt. eigenvalues --    0.13424   0.15412   0.16053   0.17203   0.17565
  Beta virt. eigenvalues --    0.18503   0.19747   0.20084   0.20586   0.21005
  Beta virt. eigenvalues --    0.21256   0.22649   0.23474   0.23912   0.24525

 Mulliken charges and spin densities:
               1          2
     1  C    0.076111   0.000000
     2  C   -0.391688  -0.000000
     3  C   -0.319699  -0.000000
     4  C    0.256295  -0.000000
     5  C    0.603746  -0.000000
     6  C    0.119759   0.000000
     7  C   -0.803699   0.000000
     8  C   -0.363370   0.000000
     9  C    0.665554  -0.000000
    10  C   -0.618199   0.000000
    11  O   -0.493546   0.000000
    12  O   -0.498914   0.000000
    13  H    0.132546  -0.000000
    14  H    0.125096  -0.000000
    15  O   -0.087361  -0.000000
    16  C    1.292504   0.000000
    17  C   -2.565524  -0.000000
    18  C    1.785943   0.000000
    19  H    0.078612  -0.000000
    20  H    0.080399  -0.000000
    21  H    0.091763  -0.000000
    22  H    0.143129   0.000000
    23  H    0.148779   0.000000
    24  H    0.042411  -0.000000
    25  H   -0.080768  -0.000000
    26  H   -1.419879  -0.000000
 Sum of Mulliken charges =  -2.00000   0.00000

 Dipole moment (field-independent basis, Debye):
    X=            -21.5382    Y=            -14.5912    Z=              0.7472  Tot=             26.0261
 Quadrupole moment (field-independent basis, Debye-Ang):
   XX=           -291.9007   YY=           -180.6027   ZZ=           -111.8090
   XY=            -58.4101   XZ=              1.5429   YZ=              3.7206

  Exact polarizability:2060.092 234.028 588.881   4.217 121.970 265.200
 Approx polarizability:********2009.880 916.265 208.064  89.429 283.040

                      1                      2                      3
                      A                      A                      A
 Frequencies --     20.6911                58.2135                75.2228
 Red. masses --      4.2388                 2.0176                 5.2548
 Frc consts  --      0.0011                 0.0040                 0.0175
 IR Inten    --      3.5273                15.7691                 7.2124

                      4                      5                      6
                      A                      A                      A
 Frequencies --     90.2915               123.7820               135.0208
 Red. masses --      3.9118                 3.7055                 4.2731
 Frc consts  --      0.0188                 0.0335                 0.0459
 IR Inten    --     41.6252                 6.1566                 0.0957

                      7                      8                      9
                      A                      A                      A
 Frequencies --    183.2577               242.8148               257.6177
 Red. masses --      7.5398                 5.5619                 5.1832
 Frc consts  --      0.1492                 0.1932                 0.2027
 IR Inten    --      2.5936                 9.3114                 3.7360

                     10                     11                     12
                      A                      A                      A
 Frequencies --    263.7856               290.2730               354.6554
 Red. masses --      4.6435                 4.6873                10.3962
 Frc consts  --      0.1904                 0.2327                 0.7704
 IR Inten    --     21.6853                27.0747                26.2487

                     13                     14                     15
                      A                      A                      A
 Frequencies --    379.0197               436.3033               454.8687
 Red. masses --      7.0025                 3.4919                 2.7035
 Frc consts  --      0.5927                 0.3916                 0.3296
 IR Inten    --      7.9907                 1.1282                 9.0093

                     16                     17                     18
                      A                      A                      A
 Frequencies --    461.1485               476.1525               508.4520
 Red. masses --     10.3549                 6.2400                 4.1424
 Frc consts  --      1.2974                 0.8335                 0.6310
 IR Inten    --    572.5250                11.5322                10.5888

                     19                     20                     21
                      A                      A                      A
 Frequencies --    554.5982               628.1659               637.0659
 Red. masses --      6.3524                 2.7139                 2.6721
 Frc consts  --      1.1512                 0.6310                 0.6390
 IR Inten    --     55.9595                33.3513                39.8425

                     22                     23                     24
                      A                      A                      A
 Frequencies --    681.7205               687.1930               693.9086
 Red. masses --      2.9284                 3.4606                 3.0214
 Frc consts  --      0.8018                 0.9628                 0.8572
 IR Inten    --     66.3261                19.6957                34.8879

                     25                     26                     27
                      A                      A                      A
 Frequencies --    726.1231               741.6154               758.3338
 Red. masses --      6.0132                 1.7845                 3.1171
 Frc consts  --      1.8680                 0.5783                 1.0561
 IR Inten    --     28.9597                51.6762                 5.8097

                     28                     29                     30
                      A                      A                      A
 Frequencies --    805.5149               810.3803               842.4448
 Red. masses --      1.6257                 1.9374                 4.5644
 Frc consts  --      0.6215                 0.7496                 1.9086
 IR Inten    --      1.8720                25.4891                 7.3931

                     31                     32                     33
                      A                      A                      A
 Frequencies --    917.6805               939.8010               948.5326
 Red. masses --      1.6139                 1.3373                 4.1276
 Frc consts  --      0.8008                 0.6959                 2.1880
 IR Inten    --     93.9481                89.1762                27.5562

                     34                     35                     36
                      A                      A                      A
 Frequencies --    950.4921               956.9767              1005.4997
 Red. masses --      1.2215                 1.3561                 1.6742
 Frc consts  --      0.6502                 0.7317                 0.9973
 IR Inten    --      0.3018                 3.3511                43.9403

                     37                     38                     39
                      A                      A                      A
 Frequencies --   1017.5873              1040.2491              1080.4005
 Red. masses --      2.1003                 1.2291                 4.5333
 Frc consts  --      1.2814                 0.7836                 3.1177
 IR Inten    --    450.6515                41.5789                12.0398

                     40                     41                     42
                      A                      A                      A
 Frequencies --   1093.8470              1125.4391              1136.0001
 Red. masses --      2.7174                 1.4694                 3.4768
 Frc consts  --      1.9157                 1.0966                 2.6435
 IR Inten    --     33.1650               263.5507               419.0463

                     43                     44                     45
                      A                      A                      A
 Frequencies --   1156.5851              1166.2417              1213.9783
 Red. masses --      1.9368                 2.1240                 2.5225
 Frc consts  --      1.5265                 1.7021                 2.1903
 IR Inten    --     38.0184               113.0323               172.5758

                     46                     47                     48
                      A                      A                      A
 Frequencies --   1228.1941              1250.9344              1281.6501
 Red. masses --      1.7816                 1.2421                 1.8109
 Frc consts  --      1.5834                 1.1452                 1.7526
 IR Inten    --     64.5536               112.2955               205.7578

                     49                     50                     51
                      A                      A                      A
 Frequencies --   1294.4751              1337.1807              1364.5657
 Red. masses --      1.2930                 6.6728                 1.4716
 Frc consts  --      1.2766                 7.0297                 1.6145
 IR Inten    --    145.9296               359.5251               156.8714

                     52                     53                     54
                      A                      A                      A
 Frequencies --   1401.9903              1413.5082              1432.7439
 Red. masses --      2.8755                 4.8314                 3.5006
 Frc consts  --      3.3301                 5.6875                 4.2338
 IR Inten    --      9.6348              1237.0151              1758.3735

                     55                     56                     57
                      A                      A                      A
 Frequencies --   1448.4070              1457.1527              1497.5834
 Red. masses --      1.4905                 3.0199                 1.1402
 Frc consts  --      1.8423                 3.7779                 1.5067
 IR Inten    --    110.3129                95.9494                31.4295

                     58                     59                     60
                      A                      A                      A
 Frequencies --   1501.2232              1520.1828              1577.6079
 Red. masses --      4.3372                 3.9409                 6.7136
 Frc consts  --      5.7591                 5.3658                 9.8448
 IR Inten    --    524.0453               291.0759              2875.9088

                     61                     62                     63
                      A                      A                      A
 Frequencies --   1590.0062              1687.0249              2930.3971
 Red. masses --      5.5761                 4.7772                 1.0655
 Frc consts  --      8.3057                 8.0106                 5.3909
 IR Inten    --    383.5860               110.7323                76.8322

                     64                     65                     66
                      A                      A                      A
 Frequencies --   2978.1455              3093.9708              3094.3648
 Red. masses --      1.0916                 1.0827                 1.0601
 Frc consts  --      5.7041                 6.1063                 5.9805
 IR Inten    --     45.9112                34.8365                 2.9022

                     67                     68                     69
                      A                      A                      A
 Frequencies --   3117.5643              3138.9576              3153.9776
 Red. masses --      1.0905                 1.0911                 1.0873
 Frc consts  --      6.2446                 6.3341                 6.3725
 IR Inten    --    289.8911                 2.3927                18.2457

                     70                     71                     72
                      A                      A                      A
 Frequencies --   3155.5783              3160.1499              3179.0407
 Red. masses --      1.0901                 1.0911                 1.1135
 Frc consts  --      6.3956                 6.4199                 6.6303
 IR Inten    --    138.7060               160.4293                34.4630

 - Thermochemistry -
 -------------------
 Temperature   298.150 Kelvin.  Pressure   1.00000 Atm.
 Atom     1 has atomic number  6 and mass  12.00000

 Molecular mass:   214.06299 amu.
 Principal axes and moments of inertia in atomic units:
                           1         2         3
     Eigenvalues --  1516.657206131.624987604.88292
           X            0.99623  -0.08678   0.00159
           Y            0.08671   0.99584   0.02814
           Z           -0.00402  -0.02790   0.99960
 This molecule is an asymmetric top.
 Rotational symmetry number  1.
 Warning -- assumption of classical behavior for rotation
           may cause significant error
 Rotational temperatures (Kelvin)      0.05711     0.01413     0.01139
 Rotational constants (GHZ):           1.18995     0.29433     0.23731
 Zero-point vibrational energy     504911.0 (Joules/Mol)
                                  120.67662 (Kcal/Mol)
 Warning -- explicit consideration of  19 degrees of freedom as
           vibrations may cause significant error
 Vibrational temperatures:     29.77    83.76   108.23   129.91   178.09
          (Kelvin)            194.26   263.67   349.36   370.65   379.53
                              417.64   510.27   545.32   627.74   654.45
                              663.49   685.08   731.55   797.94   903.79
                              916.60   980.84   988.72   998.38  1044.73
                             1067.02  1091.07  1158.96  1165.96  1212.09
                             1320.34  1352.16  1364.73  1367.55  1376.88
                             1446.69  1464.08  1496.69  1554.46  1573.80
                             1619.26  1634.45  1664.07  1677.96  1746.64
                             1767.10  1799.82  1844.01  1862.46  1923.90
                             1963.31  2017.15  2033.72  2061.40  2083.93
                             2096.52  2154.69  2159.93  2187.20  2269.83
                             2287.66  2427.25  4216.19  4284.89  4451.53
                             4452.10  4485.48  4516.26  4537.87  4540.17
                             4546.75  4573.93

 Zero-point correction=                           0.192310 (Hartree/Particle)
 Thermal correction to Energy=                    0.206098
 Thermal correction to Enthalpy=                  0.207042
 Thermal correction to Gibbs Free Energy=         0.150382
 Sum of electronic and zero-point Energies=           -727.015001
 Sum of electronic and thermal Energies=              -727.001214
 Sum of electronic and thermal Enthalpies=            -727.000269
 Sum of electronic and thermal Free Energies=         -727.056929

                     E (Thermal)             CV                S
                      KCal/Mol        Cal/Mol-Kelvin    Cal/Mol-Kelvin
 Total                  129.328             52.736            119.250
 Electronic               0.000              0.000              0.000
 Translational            0.889              2.981             41.987
 Rotational               0.889              2.981             32.625
 Vibrational            127.551             46.774             44.638
 Vibration     1          0.593              1.986              6.567
 Vibration     2          0.596              1.974              4.517
 Vibration     3          0.599              1.966              4.012
 Vibration     4          0.602              1.956              3.654
 Vibration     5          0.610              1.929              3.040
 Vibration     6          0.613              1.918              2.873
 Vibration     7          0.631              1.863              2.295
 Vibration     8          0.659              1.775              1.782
 Vibration     9          0.667              1.750              1.678
 Vibration    10          0.670              1.739              1.637
 Vibration    11          0.686              1.692              1.472
 Vibration    12          0.731              1.566              1.145
 Vibration    13          0.749              1.515              1.043
 Vibration    14          0.797              1.391              0.838
 Vibration    15          0.813              1.350              0.781
 Vibration    16          0.819              1.336              0.763
 Vibration    17          0.833              1.303              0.721
 Vibration    18          0.864              1.231              0.637
 Vibration    19          0.910              1.130              0.535

                           ! Non-Optimized Parameters !
 Normal termination of Gaussian 16 at Mon Jan  8 17:21:12 2024.
