 Gaussian 16, Revision A.03,
 Gaussian 16:  ES64L-G16RevA.03 25-Dec-2016

 ----------------------------------------------------------------
 #P UB3LYP/6-311++G(d,p) SCRF=(PCM,Solvent=n,n-DiMethylFormamide)
 ----------------------------------------------------------------

 -------
 Reduced
 -------
 Symbolic Z-matrix:
 Charge = -3 Multiplicity = 1

                         Standard orientation:
 ---------------------------------------------------------------------
 Center     Atomic      Atomic             Coordinates (Angstroms)
 Number     Number       Type             X           Y           Z
 ---------------------------------------------------------------------
      1          6           0        2.353936   -1.740648   -0.022406
      2          6           0        3.720461   -1.502105   -0.014643
      3          6           0        4.195581   -0.171294    0.017429
      4          6           0        1.408466   -0.693867   -0.002155
      5          6           0        1.890969    0.654634   -0.003500
      6          6           0        3.288013    0.874728    0.022450
      7          6           0       -0.037368   -1.031699    0.008140
      8          6           0       -0.917275    0.122956   -0.000795
      9          6           0       -0.428222    1.422763   -0.004826
     10          6           0        0.960075    1.782513   -0.010020
     11          8           0       -0.413370   -2.233358    0.014202
     12          8           0        1.359294    3.000037   -0.010766
     13         16           0       -2.751924   -0.075373    0.000939
     14          8           0       -3.119058   -0.818273   -1.243335
     15          8           0       -3.120470   -0.797618    1.257058
     16          8           0       -3.295385    1.326182   -0.011104
     17          1           0        1.961082   -2.752217   -0.041695
     18          1           0        4.429584   -2.329452   -0.029948
     19          1           0        5.268420    0.021604    0.034183
     20          1           0        3.621947    1.907409    0.043445
     21          1           0       -1.146148    2.234972   -0.007492
 ---------------------------------------------------------------------

 SCF Done:  E(UB3LYP) =  -1158.97298611     A.U. after   18 cycles

 The electronic state is 1-A.
 Alpha  occ. eigenvalues --  -89.01500 -19.06407 -19.06400 -19.06196 -19.01603
 Alpha  occ. eigenvalues --  -19.00960 -10.17841 -10.16508 -10.14956 -10.14795
 Alpha  occ. eigenvalues --  -10.14507 -10.14456 -10.13897 -10.13624 -10.13490
 Alpha  occ. eigenvalues --  -10.11392  -8.07385  -6.03685  -6.03672  -6.03495
 Alpha  occ. eigenvalues --   -1.07607  -0.94668  -0.94279  -0.93855  -0.92937
 Alpha  occ. eigenvalues --   -0.82421  -0.76308  -0.71968  -0.70942  -0.63576
 Alpha  occ. eigenvalues --   -0.60262  -0.58051  -0.54703  -0.52058  -0.47402
 Alpha  occ. eigenvalues --   -0.46976  -0.44152  -0.42746  -0.42619  -0.42067
 Alpha  occ. eigenvalues --   -0.39976  -0.39612  -0.37722  -0.37068  -0.35629
 Alpha  occ. eigenvalues --   -0.35008  -0.32385  -0.32265  -0.31497  -0.30828
 Alpha  occ. eigenvalues --   -0.30756  -0.30378  -0.27484  -0.26542  -0.26382
 Alpha  occ. eigenvalues --   -0.23034  -0.22773  -0.22283  -0.21511  -0.19518
 Alpha  occ. eigenvalues --   -0.18770  -0.10396
 Alpha virt. eigenvalues --   -0.00641   0.00476   0.01002   0.01763   0.02114
 Alpha virt. eigenvalues --    0.03398   0.03922   0.05033   0.05529   0.06144
 Alpha virt. eigenvalues --    0.06342   0.06767   0.07446   0.08079   0.08857

  Beta  occ. eigenvalues --  -89.01500 -19.06407 -19.06400 -19.06196 -19.01603
  Beta  occ. eigenvalues --  -19.00960 -10.17841 -10.16508 -10.14956 -10.14795
  Beta  occ. eigenvalues --  -10.14507 -10.14456 -10.13897 -10.13624 -10.13490
  Beta  occ. eigenvalues --  -10.11392  -8.07385  -6.03685  -6.03672  -6.03495
  Beta  occ. eigenvalues --   -1.07607  -0.94668  -0.94279  -0.93855  -0.92937
  Beta  occ. eigenvalues --   -0.82421  -0.76308  -0.71968  -0.70942  -0.63576
  Beta  occ. eigenvalues --   -0.60262  -0.58051  -0.54703  -0.52058  -0.47402
  Beta  occ. eigenvalues --   -0.46976  -0.44152  -0.42746  -0.42619  -0.42067
  Beta  occ. eigenvalues --   -0.39976  -0.39612  -0.37722  -0.37068  -0.35629
  Beta  occ. eigenvalues --   -0.35008  -0.32385  -0.32265  -0.31497  -0.30828
  Beta  occ. eigenvalues --   -0.30756  -0.30378  -0.27484  -0.26542  -0.26382
  Beta  occ. eigenvalues --   -0.23034  -0.22773  -0.22283  -0.21511  -0.19518
  Beta  occ. eigenvalues --   -0.18770  -0.10396
  Beta virt. eigenvalues --   -0.00641   0.00476   0.01002   0.01763   0.02114
  Beta virt. eigenvalues --    0.03398   0.03922   0.05033   0.05529   0.06144
  Beta virt. eigenvalues --    0.06342   0.06767   0.07446   0.08079   0.08857

 Mulliken charges and spin densities:
               1          2
     1  C    0.047247   0.000000
     2  C   -0.455002   0.000000
     3  C   -0.408227  -0.000000
     4  C    0.025323   0.000000
     5  C    0.445075  -0.000000
     6  C   -0.039020   0.000000
     7  C   -0.556526   0.000000
     8  C   -0.498119  -0.000000
     9  C   -0.007928  -0.000000
    10  C   -0.463904  -0.000000
    11  O   -0.599159   0.000000
    12  O   -0.706132   0.000000
    13  S    0.753715   0.000000
    14  O   -0.421195   0.000000
    15  O   -0.417924   0.000000
    16  O   -0.486111  -0.000000
    17  H    0.143882   0.000000
    18  H    0.156555  -0.000000
    19  H    0.160352  -0.000000
    20  H    0.137607   0.000000
    21  H    0.189491   0.000000
 Sum of Mulliken charges =  -3.00000  -0.00000

 Dipole moment (field-independent basis, Debye):
    X=             12.9840    Y=             -3.0542    Z=             -0.0034  Tot=             13.3384
 Quadrupole moment (field-independent basis, Debye-Ang):
   XX=           -192.6449   YY=           -169.8871   ZZ=           -121.2244
   XY=            -18.5182   XZ=              0.1387   YZ=              0.3613

 Normal termination of Gaussian 16 at Fri Jan 26 02:10:57 2024.
