 Gaussian 16, Revision A.03,
 Gaussian 16:  ES64L-G16RevA.03 25-Dec-2016

 ----------------------------------------------------------------
 #P UB3LYP/6-311++G(d,p) SCRF=(PCM,Solvent=n,n-DiMethylFormamide)
 ----------------------------------------------------------------

 ------------------
 Radical PCM in DMF
 ------------------
 Symbolic Z-matrix:
 Charge = -1 Multiplicity = 2

                         Standard orientation:
 ---------------------------------------------------------------------
 Center     Atomic      Atomic             Coordinates (Angstroms)
 Number     Number       Type             X           Y           Z
 ---------------------------------------------------------------------
      1          6           0        1.376448   -0.502851    0.000057
      2          6           0        2.317676    0.580380   -0.000125
      3          6           0        1.846313    1.942375   -0.000004
      4          6           0        0.499473    2.168985    0.000198
      5          6           0       -0.468689    1.129709    0.000187
      6          6           0       -0.053995   -0.231292    0.000196
      7          6           0       -1.059304   -1.294123    0.000283
      8          6           0       -2.475647   -0.876457    0.000127
      9          6           0       -2.869420    0.482796    0.000033
     10          6           0       -1.868406    1.550739    0.000114
     11          6           0       -3.475649   -1.871478    0.000006
     12          6           0       -4.816924   -1.536457   -0.000217
     13          6           0       -5.205475   -0.181520   -0.000309
     14          6           0       -4.241333    0.808364   -0.000167
     15          8           0       -0.792917   -2.523691    0.000427
     16          8           0       -2.203745    2.760957    0.000085
     17          1           0        0.109292    3.180864    0.000280
     18          1           0       -3.149709   -2.904675    0.000101
     19          1           0       -4.505262    1.859585   -0.000261
     20          6           0        2.813543    3.101065    0.000013
     21          1           0       -6.259093    0.081818   -0.000517
     22          6           0        3.705010    0.296464   -0.000463
     23          6           0        1.914448   -1.818084   -0.000093
     24          6           0        3.276177   -2.052043   -0.000289
     25          6           0        4.204069   -0.994387   -0.000392
     26          6           0        5.689328   -1.268650    0.000241
     27          1           0       -5.572134   -2.317015   -0.000332
     28          1           0        3.467819    3.090742    0.880442
     29          1           0        2.267683    4.046872    0.000767
     30          1           0        3.466857    3.091604   -0.881157
     31          1           0        4.405891    1.124097   -0.000816
     32          1           0        1.216147   -2.640784   -0.000088
     33          1           0        3.635031   -3.078514   -0.000384
     34          1           0        6.264755   -0.339097   -0.005632
     35          1           0        5.989479   -1.852749   -0.877385
     36          1           0        5.990685   -1.842099    0.884514
 ---------------------------------------------------------------------

 SCF Done:  E(UB3LYP) =  -921.424303618     A.U. after   19 cycles

 The electronic state is 2-A.
 Alpha  occ. eigenvalues --  -19.07612 -19.07304 -10.22553 -10.22318 -10.18207
 Alpha  occ. eigenvalues --  -10.18001 -10.17964 -10.17904 -10.17534 -10.17318
 Alpha  occ. eigenvalues --  -10.17269 -10.17227 -10.17124 -10.17043 -10.16987
 Alpha  occ. eigenvalues --  -10.16874 -10.16618 -10.16601 -10.16427 -10.16335
 Alpha  occ. eigenvalues --  -10.16149 -10.16000  -1.00411  -1.00131  -0.87282
 Alpha  occ. eigenvalues --   -0.85699  -0.82886  -0.79504  -0.77143  -0.74966
 Alpha  occ. eigenvalues --   -0.74921  -0.73006  -0.70300  -0.68369  -0.65753
 Alpha  occ. eigenvalues --   -0.62414  -0.61514  -0.59988  -0.58202  -0.55632
 Alpha  occ. eigenvalues --   -0.53304  -0.51373  -0.49596  -0.48354  -0.46974
 Alpha  occ. eigenvalues --   -0.45770  -0.44275  -0.43451  -0.42993  -0.42908
 Alpha  occ. eigenvalues --   -0.42463  -0.41765  -0.41615  -0.41366  -0.40801
 Alpha  occ. eigenvalues --   -0.40138  -0.38846  -0.38406  -0.38151  -0.37597
 Alpha  occ. eigenvalues --   -0.36939  -0.36653  -0.35132  -0.34832  -0.33952
 Alpha  occ. eigenvalues --   -0.33422  -0.32686  -0.31143  -0.27503  -0.26056
 Alpha  occ. eigenvalues --   -0.25593  -0.24426  -0.24316  -0.23169  -0.21865
 Alpha  occ. eigenvalues --   -0.14382
 Alpha virt. eigenvalues --   -0.05052  -0.03619  -0.01203  -0.00553   0.00111
 Alpha virt. eigenvalues --    0.00768   0.00804   0.01531   0.01838   0.02910
 Alpha virt. eigenvalues --    0.03007   0.03166   0.03773   0.04366   0.04622

  Beta  occ. eigenvalues --  -19.07054 -19.06788 -10.22381 -10.22156 -10.18210
  Beta  occ. eigenvalues --  -10.17997 -10.17941 -10.17808 -10.17436 -10.17283
  Beta  occ. eigenvalues --  -10.17233 -10.17166 -10.17072 -10.16978 -10.16914
  Beta  occ. eigenvalues --  -10.16874 -10.16609 -10.16583 -10.16428 -10.16342
  Beta  occ. eigenvalues --  -10.16185 -10.15982  -0.99459  -0.99182  -0.87154
  Beta  occ. eigenvalues --   -0.85531  -0.82732  -0.79209  -0.76993  -0.74798
  Beta  occ. eigenvalues --   -0.74772  -0.72938  -0.70060  -0.68248  -0.65167
  Beta  occ. eigenvalues --   -0.62323  -0.61356  -0.59827  -0.58122  -0.55416
  Beta  occ. eigenvalues --   -0.53123  -0.51209  -0.49509  -0.48216  -0.46740
  Beta  occ. eigenvalues --   -0.45714  -0.44142  -0.43382  -0.42897  -0.42506
  Beta  occ. eigenvalues --   -0.42419  -0.41522  -0.41320  -0.40533  -0.40531
  Beta  occ. eigenvalues --   -0.39955  -0.38666  -0.38383  -0.37579  -0.36949
  Beta  occ. eigenvalues --   -0.36559  -0.35692  -0.35052  -0.34041  -0.33862
  Beta  occ. eigenvalues --   -0.33317  -0.32600  -0.30315  -0.26885  -0.25048
  Beta  occ. eigenvalues --   -0.24711  -0.23923  -0.23743  -0.22701  -0.21190
  Beta virt. eigenvalues --   -0.08676  -0.04302  -0.02807  -0.00895  -0.00544
  Beta virt. eigenvalues --    0.00117   0.00772   0.01333   0.01540   0.01845
  Beta virt. eigenvalues --    0.03016   0.03053   0.03170   0.03778   0.04610

 Mulliken charges and spin densities:
               1          2
     1  C    0.794042   0.000022
     2  C    0.145302   0.003702
     3  C    0.443702   0.071845
     4  C   -0.204619  -0.030541
     5  C    0.179358   0.093467
     6  C    0.562164   0.076260
     7  C   -0.906905   0.103160
     8  C    0.144475   0.006700
     9  C    0.183668   0.032238
    10  C   -0.614991   0.101200
    11  C    0.054251   0.022379
    12  C   -0.491324   0.031843
    13  C   -0.368373   0.025302
    14  C    0.018924   0.027319
    15  O   -0.412070   0.196259
    16  O   -0.443094   0.207878
    17  H    0.111353   0.000738
    18  H    0.162838  -0.001220
    19  H    0.161924  -0.001888
    20  C   -0.379865  -0.007201
    21  H    0.182660  -0.002121
    22  C   -0.834179   0.006190
    23  C   -0.589227   0.015375
    24  C   -0.515364   0.007713
    25  C    0.317577   0.013352
    26  C   -0.291781  -0.000342
    27  H    0.182533  -0.002639
    28  H    0.163043   0.003857
    29  H    0.178933   0.000162
    30  H    0.163130   0.003860
    31  H    0.068594  -0.001215
    32  H    0.148484  -0.004033
    33  H    0.191877  -0.000980
    34  H    0.168242   0.000041
    35  H    0.162015   0.000649
    36  H    0.162705   0.000669
 Sum of Mulliken charges =  -1.00000   1.00000

 Dipole moment (field-independent basis, Debye):
    X=              7.0644    Y=             -0.3981    Z=             -0.0004  Tot=              7.0756
 Quadrupole moment (field-independent basis, Debye-Ang):
   XX=           -133.6617   YY=           -157.3073   ZZ=           -137.0452
   XY=             11.0780   XZ=              0.0068   YZ=              0.0010

 Normal termination of Gaussian 16 at Sun Jan 14 01:22:38 2024.
