 Gaussian 16, Revision A.03,
 Gaussian 16:  ES64L-G16RevA.03 25-Dec-2016

 ----------------------------------------------------------------------
 #P UB3LYP/6-311++G(d,p) nosym opt freq SCRF=(PCM,Solvent=n,n-DiMethylF
 ormamide)
 ----------------------------------------------------------------------

 -------
 Radical
 -------
 Symbolic Z-matrix:
 Charge = -1 Multiplicity = 2

 SCF Done:  E(UB3LYP) =  -845.546631171     A.U. after   18 cycles
 SCF Done:  E(UB3LYP) =  -845.547276210     A.U. after   16 cycles
 SCF Done:  E(UB3LYP) =  -845.547604493     A.U. after   15 cycles
 SCF Done:  E(UB3LYP) =  -845.547695582     A.U. after   14 cycles
 SCF Done:  E(UB3LYP) =  -845.547714930     A.U. after   13 cycles
 SCF Done:  E(UB3LYP) =  -845.547722676     A.U. after   13 cycles
 SCF Done:  E(UB3LYP) =  -845.547724216     A.U. after   13 cycles
 SCF Done:  E(UB3LYP) =  -845.547725636     A.U. after   12 cycles
 SCF Done:  E(UB3LYP) =  -845.547728599     A.U. after   13 cycles
 SCF Done:  E(UB3LYP) =  -845.547729989     A.U. after   12 cycles
 SCF Done:  E(UB3LYP) =  -845.547731686     A.U. after   12 cycles
 SCF Done:  E(UB3LYP) =  -845.547732449     A.U. after   12 cycles
 SCF Done:  E(UB3LYP) =  -845.547732870     A.U. after   12 cycles
 SCF Done:  E(UB3LYP) =  -845.547732891     A.U. after   10 cycles
 Optimization completed.
    -- Stationary point found.
 Normal termination of Gaussian 16 at Sat Feb 10 13:34:02 2024.

 ----------------------------------------------------------------------
 #P Geom=AllCheck Guess=TCheck SCRF=Check GenChk UB3LYP/6-311++G(d,p) F
 req
 ----------------------------------------------------------------------

 Structure from the checkpoint file:  "091-rad.chk"
 -------
 Radical
 -------
 Charge = -1 Multiplicity = 2

                          Input orientation:
 ---------------------------------------------------------------------
 Center     Atomic      Atomic             Coordinates (Angstroms)
 Number     Number       Type             X           Y           Z
 ---------------------------------------------------------------------
      1          6           0       -1.045578    2.635863    0.528423
      2          6           0        0.298503    2.763959   -0.013407
      3          6           0        0.973245    1.679646   -0.537543
      4          6           0        0.364034    0.356895   -0.573164
      5          6           0       -0.979709    0.233036   -0.031150
      6          6           0       -1.647226    1.312597    0.496203
      7          8           0       -1.685870    3.628833    0.994076
      8          8           0        0.968748   -0.659228   -1.037027
      9          8           0       -2.943174    1.160329    0.940598
     10          8           0       -1.563393   -1.014596    0.016138
     11          6           0       -3.104781    1.225246    2.364716
     12          6           0       -1.996729   -1.529260   -1.251063
     13          6           0        2.370292    1.809207   -1.096379
     14          6           0        0.919375    4.149580    0.027668
     15          6           0        1.713590    4.391784    1.291835
     16          6           0        2.946629    4.902597    1.420952
     17          6           0        3.817351    5.359223    0.276812
     18          6           0        3.571429    5.077356    2.785326
     19          1           0       -2.742529    2.179315    2.752266
     20          1           0       -2.573277    0.398256    2.847832
     21          1           0       -4.173245    1.130244    2.559883
     22          1           0       -2.398254   -2.524696   -1.059707
     23          1           0       -1.159551   -1.597039   -1.948231
     24          1           0       -2.784839   -0.895445   -1.671697
     25          1           0        3.027658    2.355440   -0.415451
     26          1           0        2.373557    2.350427   -2.050301
     27          1           0        2.792155    0.821009   -1.276312
     28          1           0        0.100651    4.875674   -0.009664
     29          1           0        1.535250    4.311870   -0.857782
     30          1           0        1.190299    4.114165    2.205625
     31          1           0        3.368687    5.191187   -0.701912
     32          1           0        4.785373    4.845119    0.301094
     33          1           0        4.034060    6.430491    0.366643
     34          1           0        2.905960    4.740308    3.582965
     35          1           0        3.822645    6.128808    2.970101
     36          1           0        4.510386    4.515753    2.861293
 ---------------------------------------------------------------------

 SCF Done:  E(UB3LYP) =  -845.547732891     A.U. after    2 cycles

 Alpha  occ. eigenvalues --  -19.13284 -19.13274 -19.07279 -19.07267 -10.21614
 Alpha  occ. eigenvalues --  -10.21611 -10.21098 -10.21034 -10.20704 -10.20690
 Alpha  occ. eigenvalues --  -10.17263 -10.16623 -10.16397 -10.16135 -10.15942
 Alpha  occ. eigenvalues --  -10.15858 -10.15818 -10.15106  -1.05620  -1.03703
 Alpha  occ. eigenvalues --   -0.99039  -0.98788  -0.82909  -0.80741  -0.77001
 Alpha  occ. eigenvalues --   -0.73513  -0.70555  -0.69758  -0.68954  -0.66719
 Alpha  occ. eigenvalues --   -0.64252  -0.62610  -0.56136  -0.55771  -0.51736
 Alpha  occ. eigenvalues --   -0.50894  -0.49429  -0.48391  -0.46625  -0.45598
 Alpha  occ. eigenvalues --   -0.44343  -0.43927  -0.43719  -0.43395  -0.42881
 Alpha  occ. eigenvalues --   -0.41668  -0.41067  -0.40538  -0.38753  -0.38524
 Alpha  occ. eigenvalues --   -0.38247  -0.38032  -0.36950  -0.36844  -0.36171
 Alpha  occ. eigenvalues --   -0.35786  -0.35447  -0.34546  -0.33797  -0.32936
 Alpha  occ. eigenvalues --   -0.28309  -0.27956  -0.26494  -0.24210  -0.23687
 Alpha  occ. eigenvalues --   -0.22883  -0.22519  -0.15630
 Alpha virt. eigenvalues --   -0.00792  -0.00303   0.00672   0.00757   0.01339
 Alpha virt. eigenvalues --    0.01500   0.02181   0.02296   0.03069   0.03180
 Alpha virt. eigenvalues --    0.03484   0.03819   0.04110   0.04355   0.05013

  Beta  occ. eigenvalues --  -19.13271 -19.13262 -19.06603 -19.06598 -10.21442
  Beta  occ. eigenvalues --  -10.21440 -10.21003 -10.20937 -10.20697 -10.20683
  Beta  occ. eigenvalues --  -10.17261 -10.16514 -10.16300 -10.16142 -10.15942
  Beta  occ. eigenvalues --  -10.15858 -10.15809 -10.15116  -1.05521  -1.03593
  Beta  occ. eigenvalues --   -0.97892  -0.97632  -0.82526  -0.80587  -0.76834
  Beta  occ. eigenvalues --   -0.73319  -0.70336  -0.69607  -0.68951  -0.66484
  Beta  occ. eigenvalues --   -0.63678  -0.62440  -0.55850  -0.55430  -0.51650
  Beta  occ. eigenvalues --   -0.50819  -0.49229  -0.48226  -0.46290  -0.45548
  Beta  occ. eigenvalues --   -0.44194  -0.43764  -0.43662  -0.43194  -0.42849
  Beta  occ. eigenvalues --   -0.41447  -0.40662  -0.39844  -0.38631  -0.38406
  Beta  occ. eigenvalues --   -0.38085  -0.37305  -0.36800  -0.36357  -0.35607
  Beta  occ. eigenvalues --   -0.35305  -0.34618  -0.33455  -0.33354  -0.32753
  Beta  occ. eigenvalues --   -0.28064  -0.27755  -0.24163  -0.23436  -0.23145
  Beta  occ. eigenvalues --   -0.22447  -0.21932
  Beta virt. eigenvalues --   -0.08502  -0.00760  -0.00017   0.00749   0.01057
  Beta virt. eigenvalues --    0.01503   0.01840   0.02295   0.02473   0.03103
  Beta virt. eigenvalues --    0.03248   0.03842   0.03999   0.04359   0.04972

 Mulliken charges and spin densities:
               1          2
     1  C   -0.657238   0.086645
     2  C    0.971645   0.074298
     3  C    0.477018   0.078810
     4  C   -0.580141   0.090205
     5  C   -0.008436   0.084974
     6  C   -0.548000   0.076898
     7  O   -0.478463   0.242810
     8  O   -0.498206   0.247711
     9  O   -0.183414  -0.001138
    10  O   -0.188040  -0.001215
    11  C   -0.269337   0.001772
    12  C   -0.274192   0.001912
    13  C   -0.662312  -0.005218
    14  C    0.490948   0.013697
    15  C   -0.731740  -0.008770
    16  C    0.503707   0.008681
    17  C   -0.657957  -0.001641
    18  C   -0.607081   0.001729
    19  H    0.163849  -0.000720
    20  H    0.144398   0.000427
    21  H    0.162421   0.001026
    22  H    0.160393   0.000983
    23  H    0.168410  -0.000732
    24  H    0.143889   0.000364
    25  H    0.169459   0.002939
    26  H    0.175477   0.004933
    27  H    0.179879  -0.001624
    28  H    0.204641   0.001445
    29  H    0.155703   0.000155
    30  H    0.198247  -0.001853
    31  H    0.131303   0.000250
    32  H    0.149426   0.000119
    33  H    0.149977  -0.000141
    34  H    0.150404   0.000084
    35  H    0.143612  -0.000017
    36  H    0.149753   0.000200
 Sum of Mulliken charges =  -1.00000   1.00000

 Dipole moment (field-independent basis, Debye):
    X=              3.3665    Y=             -5.9965    Z=             -0.4726  Tot=              6.8931
 Quadrupole moment (field-independent basis, Debye-Ang):
   XX=           -122.8989   YY=           -144.2846   ZZ=           -110.5904
   XY=             22.4423   XZ=              5.5710   YZ=             -8.2870

  Exact polarizability: 302.351   4.364 316.641 -35.272  49.448 222.395
 Approx polarizability: 319.821 -21.506 343.844 -40.487  52.010 238.601

                      1                      2                      3
                      A                      A                      A
 Frequencies --     23.7527                35.1655                49.5314
 Red. masses --      3.6877                 3.5527                 3.0989
 Frc consts  --      0.0012                 0.0026                 0.0045
 IR Inten    --      0.8334                 1.1916                 1.3457

                      4                      5                      6
                      A                      A                      A
 Frequencies --     70.5435                80.0094                88.7204
 Red. masses --      3.2676                 3.1753                 3.4996
 Frc consts  --      0.0096                 0.0120                 0.0162
 IR Inten    --     17.2718                 5.3936                 3.4159

                      7                      8                      9
                      A                      A                      A
 Frequencies --     98.3983               108.2859               134.4007
 Red. masses --      3.2460                 1.1617                 2.0341
 Frc consts  --      0.0185                 0.0080                 0.0216
 IR Inten    --     15.7482                 1.8547                 1.4203

                     10                     11                     12
                      A                      A                      A
 Frequencies --    144.4791               158.3533               162.3891
 Red. masses --      1.3575                 1.0648                 1.1167
 Frc consts  --      0.0167                 0.0157                 0.0174
 IR Inten    --      0.5583                 0.7038                 0.9813

                     13                     14                     15
                      A                      A                      A
 Frequencies --    168.7495               184.3692               202.3068
 Red. masses --      3.5590                 1.3418                 3.7665
 Frc consts  --      0.0597                 0.0269                 0.0908
 IR Inten    --      5.8320                 1.9850                 1.1755

                     16                     17                     18
                      A                      A                      A
 Frequencies --    247.4694               259.7904               288.5670
 Red. masses --      2.3011                 4.1503                 3.5050
 Frc consts  --      0.0830                 0.1650                 0.1720
 IR Inten    --      3.6272                11.1830                 1.3568

                     19                     20                     21
                      A                      A                      A
 Frequencies --    333.8527               337.3255               344.7621
 Red. masses --      3.9184                 6.6663                 3.4838
 Frc consts  --      0.2573                 0.4469                 0.2440
 IR Inten    --      5.3965                 3.7672                 1.7463

                     22                     23                     24
                      A                      A                      A
 Frequencies --    351.5719               390.8059               401.2621
 Red. masses --      2.9526                 4.2130                 3.9623
 Frc consts  --      0.2150                 0.3791                 0.3759
 IR Inten    --      2.9987                 8.7968                10.0600

                     25                     26                     27
                      A                      A                      A
 Frequencies --    407.6581               432.9950               454.5169
 Red. masses --      5.9650                 5.3078                 2.5343
 Frc consts  --      0.5840                 0.5863                 0.3085
 IR Inten    --      2.1890                 5.7507                10.1851

                     28                     29                     30
                      A                      A                      A
 Frequencies --    473.0250               512.6523               523.0231
 Red. masses --      5.5336                 4.1933                 4.4872
 Frc consts  --      0.7295                 0.6493                 0.7232
 IR Inten    --     14.0232                 6.3729                 8.7976

                     31                     32                     33
                      A                      A                      A
 Frequencies --    582.0080               633.8516               666.9267
 Red. masses --      6.0382                 5.0417                 5.8091
 Frc consts  --      1.2051                 1.1934                 1.5224
 IR Inten    --      9.9455                34.8941                 6.5104

                     34                     35                     36
                      A                      A                      A
 Frequencies --    713.6258               742.4192               783.2895
 Red. masses --      3.2017                 7.8682                 5.0287
 Frc consts  --      0.9607                 2.5552                 1.8178
 IR Inten    --      1.3045                16.1011                 1.0654

                     37                     38                     39
                      A                      A                      A
 Frequencies --    799.1277               848.8530               894.6138
 Red. masses --      2.6255                 2.0747                 2.7694
 Frc consts  --      0.9879                 0.8808                 1.3059
 IR Inten    --      4.5139                20.8724                37.5738

                     40                     41                     42
                      A                      A                      A
 Frequencies --    927.3684               957.0956               959.5286
 Red. masses --      3.7437                 2.3832                 1.5832
 Frc consts  --      1.8969                 1.2862                 0.8588
 IR Inten    --     57.1842                47.9637                10.2570

                     43                     44                     45
                      A                      A                      A
 Frequencies --    972.6610              1011.6574              1017.1398
 Red. masses --      3.7872                 1.3749                 2.4051
 Frc consts  --      2.1110                 0.8290                 1.4660
 IR Inten    --     49.6154                 9.1644                17.0173

                     46                     47                     48
                      A                      A                      A
 Frequencies --   1032.5570              1043.9377              1081.1005
 Red. masses --      3.4598                 1.5729                 2.4668
 Frc consts  --      2.1734                 1.0100                 1.6987
 IR Inten    --     94.0332                 4.4394                15.8704

                     49                     50                     51
                      A                      A                      A
 Frequencies --   1097.9384              1103.2976              1116.2620
 Red. masses --      1.6655                 5.9174                 2.0145
 Frc consts  --      1.1829                 4.2439                 1.4789
 IR Inten    --      0.0629               380.3807                61.6530

                     52                     53                     54
                      A                      A                      A
 Frequencies --   1155.8181              1157.5518              1163.9929
 Red. masses --      1.2658                 1.3748                 2.4155
 Frc consts  --      0.9963                 1.0853                 1.9282
 IR Inten    --     12.0966                37.2141                76.3946

                     55                     56                     57
                      A                      A                      A
 Frequencies --   1185.7283              1205.5518              1213.2477
 Red. masses --      1.9892                 1.5042                 2.4693
 Frc consts  --      1.6478                 1.2880                 2.1415
 IR Inten    --     78.0217                 2.5236                 8.3339

                     58                     59                     60
                      A                      A                      A
 Frequencies --   1232.6358              1256.0591              1289.5138
 Red. masses --      3.1009                 1.8848                 2.8456
 Frc consts  --      2.7759                 1.7520                 2.7879
 IR Inten    --    200.8856                88.1373               174.5507

                     61                     62                     63
                      A                      A                      A
 Frequencies --   1315.7333              1373.5228              1384.0661
 Red. masses --      1.6059                 1.3570                 1.3291
 Frc consts  --      1.6380                 1.5083                 1.5001
 IR Inten    --     50.9204                 9.6912                42.2400

                     64                     65                     66
                      A                      A                      A
 Frequencies --   1403.1572              1410.6088              1412.4184
 Red. masses --      1.3434                 1.4271                 2.3984
 Frc consts  --      1.5584                 1.6731                 2.8191
 IR Inten    --     12.7383                10.0325                11.6875

                     67                     68                     69
                      A                      A                      A
 Frequencies --   1450.8444              1455.4940              1463.4892
 Red. masses --      1.2041                 1.3258                 1.0567
 Frc consts  --      1.4934                 1.6548                 1.3335
 IR Inten    --     12.6637               350.0047                 2.0547

                     70                     71                     72
                      A                      A                      A
 Frequencies --   1466.1062              1474.6970              1476.2642
 Red. masses --      1.2314                 1.0834                 1.0880
 Frc consts  --      1.5595                 1.3882                 1.3971
 IR Inten    --     18.3131                 0.8219                16.2802

                     73                     74                     75
                      A                      A                      A
 Frequencies --   1478.9881              1479.8736              1481.8969
 Red. masses --      1.1248                 1.0670                 1.1410
 Frc consts  --      1.4496                 1.3767                 1.4763
 IR Inten    --     39.8445                 7.0248                 7.6517

                     76                     77                     78
                      A                      A                      A
 Frequencies --   1484.9655              1487.9761              1491.3666
 Red. masses --      1.1702                 1.2745                 2.3237
 Frc consts  --      1.5203                 1.6626                 3.0451
 IR Inten    --     61.9955               203.7948               617.9732

                     79                     80                     81
                      A                      A                      A
 Frequencies --   1497.1448              1498.6693              1502.4554
 Red. masses --      1.2542                 1.0786                 2.3136
 Frc consts  --      1.6563                 1.4273                 3.0770
 IR Inten    --     12.7725               103.2765                84.6894

                     82                     83                     84
                      A                      A                      A
 Frequencies --   1536.2092              1627.3344              1713.6309
 Red. masses --      6.6304                 9.2433                 6.4002
 Frc consts  --      9.2191                14.4222                11.0734
 IR Inten    --     37.6559                13.7499                 3.0385

                     85                     86                     87
                      A                      A                      A
 Frequencies --   2999.7411              3007.6276              3009.0513
 Red. masses --      1.0383                 1.0413                 1.0488
 Frc consts  --      5.5048                 5.5499                 5.5952
 IR Inten    --     55.6088                92.5365                96.0350

                     88                     89                     90
                      A                      A                      A
 Frequencies --   3010.0816              3010.9131              3028.2965
 Red. masses --      1.0358                 1.0369                 1.0659
 Frc consts  --      5.5297                 5.5385                 5.7592
 IR Inten    --    152.7528                36.5424                42.4491

                     91                     92                     93
                      A                      A                      A
 Frequencies --   3039.5593              3043.4911              3067.2994
 Red. masses --      1.0994                 1.0989                 1.0883
 Frc consts  --      5.9843                 5.9970                 6.0330
 IR Inten    --     32.8006                47.5142                31.0961

                     94                     95                     96
                      A                      A                      A
 Frequencies --   3085.9509              3086.3006              3087.9158
 Red. masses --      1.0979                 1.0974                 1.0934
 Frc consts  --      6.1604                 6.1588                 6.1430
 IR Inten    --     71.6406                28.9310                15.8065

                     97                     98                     99
                      A                      A                      A
 Frequencies --   3092.1762              3114.3793              3117.2005
 Red. masses --      1.0990                 1.0888                 1.0937
 Frc consts  --      6.1913                 6.2219                 6.2613
 IR Inten    --     35.6743                25.6622                69.8098

                    100                    101                    102
                      A                      A                      A
 Frequencies --   3120.8536              3121.1232              3123.8262
 Red. masses --      1.1053                 1.1053                 1.0973
 Frc consts  --      6.3426                 6.3438                 6.3087
 IR Inten    --     33.8175                49.2582                12.0980

 - Thermochemistry -
 -------------------
 Temperature   298.150 Kelvin.  Pressure   1.00000 Atm.
 Atom     1 has atomic number  6 and mass  12.00000

 Molecular mass:   250.12051 amu.
 Principal axes and moments of inertia in atomic units:
                           1         2         3
     Eigenvalues --  2653.518887373.372919148.77180
           X            0.68431   0.64465   0.34081
           Y            0.71246  -0.49153  -0.50080
           Z            0.15532  -0.58552   0.79564
 This molecule is an asymmetric top.
 Rotational symmetry number  1.
 Warning -- assumption of classical behavior for rotation
           may cause significant error
 Rotational temperatures (Kelvin)      0.03264     0.01175     0.00947
 Rotational constants (GHZ):           0.68013     0.24476     0.19727
 Zero-point vibrational energy     764693.6 (Joules/Mol)
                                  182.76616 (Kcal/Mol)
 Warning -- explicit consideration of  31 degrees of freedom as
           vibrations may cause significant error
 Vibrational temperatures:     34.17    50.60    71.26   101.50   115.12
          (Kelvin)            127.65   141.57   155.80   193.37   207.87
                              227.84   233.64   242.79   265.27   291.07
                              356.05   373.78   415.18   480.34   485.34
                              496.04   505.83   562.28   577.33   586.53
                              622.98   653.95   680.58   737.59   752.51
                              837.38   911.97   959.56  1026.75  1068.18
                             1126.98  1149.77  1221.31  1287.15  1334.28
                             1377.05  1380.55  1399.44  1455.55  1463.44
                             1485.62  1501.99  1555.46  1579.69  1587.40
                             1606.05  1662.96  1665.46  1674.73  1706.00
                             1734.52  1745.59  1773.49  1807.19  1855.32
                             1893.05  1976.19  1991.36  2018.83  2029.55
                             2032.16  2087.44  2094.13  2105.63  2109.40
                             2121.76  2124.01  2127.93  2129.21  2132.12
                             2136.53  2140.87  2145.74  2154.06  2156.25
                             2161.70  2210.26  2341.37  2465.53  4315.96
                             4327.31  4329.35  4330.84  4332.03  4357.04
                             4373.25  4378.90  4413.16  4440.00  4440.50
                             4442.82  4448.95  4480.90  4484.96  4490.21
                             4490.60  4494.49

 Zero-point correction=                           0.291256 (Hartree/Particle)
 Thermal correction to Energy=                    0.311426
 Thermal correction to Enthalpy=                  0.312370
 Thermal correction to Gibbs Free Energy=         0.240850
 Sum of electronic and zero-point Energies=           -845.256476
 Sum of electronic and thermal Energies=              -845.236307
 Sum of electronic and thermal Enthalpies=            -845.235363
 Sum of electronic and thermal Free Energies=         -845.306883

                     E (Thermal)             CV                S
                      KCal/Mol        Cal/Mol-Kelvin    Cal/Mol-Kelvin
 Total                  195.423             72.331            150.528
 Electronic               0.000              0.000              1.377
 Translational            0.889              2.981             42.451
 Rotational               0.889              2.981             33.548
 Vibrational            193.645             66.369             73.152
 Vibration     1          0.593              1.985              6.293
 Vibration     2          0.594              1.982              5.514
 Vibration     3          0.595              1.978              4.836
 Vibration     4          0.598              1.968              4.138
 Vibration     5          0.600              1.963              3.891
 Vibration     6          0.602              1.957              3.688
 Vibration     7          0.604              1.950              3.486
 Vibration     8          0.606              1.943              3.299
 Vibration     9          0.613              1.919              2.882
 Vibration    10          0.616              1.909              2.744
 Vibration    11          0.621              1.893              2.569
 Vibration    12          0.622              1.889              2.522
 Vibration    13          0.625              1.881              2.449
 Vibration    14          0.631              1.861              2.284
 Vibration    15          0.639              1.837              2.112
 Vibration    16          0.661              1.767              1.749
 Vibration    17          0.668              1.746              1.663
 Vibration    18          0.685              1.695              1.482
 Vibration    19          0.715              1.608              1.241
 Vibration    20          0.718              1.601              1.225
 Vibration    21          0.723              1.586              1.190
 Vibration    22          0.728              1.572              1.159
 Vibration    23          0.758              1.490              0.997
 Vibration    24          0.767              1.467              0.958
 Vibration    25          0.772              1.454              0.935
 Vibration    26          0.794              1.398              0.849
 Vibration    27          0.813              1.351              0.782
 Vibration    28          0.830              1.310              0.729
 Vibration    29          0.868              1.222              0.627
 Vibration    30          0.878              1.199              0.603
 Vibration    31          0.939              1.070              0.482

 Optimization completed.
    -- Stationary point found.
 Normal termination of Gaussian 16 at Sat Feb 10 15:32:01 2024.
