 Q-Chem 5.4, Q-Chem, Inc., Pleasanton, CA (2021)
 Q-Chem 5.4.0 for Intel X86 EM64T Linux

User input:
--------------------------------------------------------------
$molecule
-2 1
Br                 3.7430310000     -2.1820720000      0.6164710000
C                  2.2231580000     -0.9389230000      0.2604640000
C                  0.9521700000     -1.5252340000      0.3184000000
C                 -0.1585420000     -0.7096890000      0.0785140000
C                 -1.4996800000     -1.1929520000      0.1098700000
C                 -2.5844990000     -0.3764520000     -0.1288360000
C                 -2.3744370000      1.0077530000     -0.4199150000
C                 -1.0862870000      1.5050460000     -0.4572710000
C                  0.0588430000      0.7014510000     -0.2181150000
C                  1.3807680000      1.2996860000     -0.2758300000
O                  1.5488770000      2.5286340000     -0.5356640000
C                  2.5771410000      0.4149400000     -0.0162220000
O                  3.7583090000      0.8673870000     -0.0501310000
H                  0.8330540000     -2.5794170000      0.5423900000
H                 -1.6554130000     -2.2493040000      0.3322960000
H                 -3.5941530000     -0.7835870000     -0.0957370000
H                 -3.2250780000      1.6603620000     -0.6097670000
H                 -0.8972630000      2.5523700000     -0.6758190000
$end

$rem
BASIS  =  6-311++G(d,p)
GUI  =  2
JOB_TYPE  =  SP
METHOD  =  B3LYP
SCF_CONVERGENCE  = 8
SOLVENT_METHOD = sm12
$end

$smx
solvent dimethylformamide
charges CM5
$end

--------------------------------------------------------------

             Standard Nuclear Orientation (Angstroms)
    I     Atom           X                Y                Z
 ----------------------------------------------------------------
    1      Br      3.7430310000    -2.1820720000     0.6164710000
    2      C       2.2231580000    -0.9389230000     0.2604640000
    3      C       0.9521700000    -1.5252340000     0.3184000000
    4      C      -0.1585420000    -0.7096890000     0.0785140000
    5      C      -1.4996800000    -1.1929520000     0.1098700000
    6      C      -2.5844990000    -0.3764520000    -0.1288360000
    7      C      -2.3744370000     1.0077530000    -0.4199150000
    8      C      -1.0862870000     1.5050460000    -0.4572710000
    9      C       0.0588430000     0.7014510000    -0.2181150000
   10      C       1.3807680000     1.2996860000    -0.2758300000
   11      O       1.5488770000     2.5286340000    -0.5356640000
   12      C       2.5771410000     0.4149400000    -0.0162220000
   13      O       3.7583090000     0.8673870000    -0.0501310000
   14      H       0.8330540000    -2.5794170000     0.5423900000
   15      H      -1.6554130000    -2.2493040000     0.3322960000
   16      H      -3.5941530000    -0.7835870000    -0.0957370000
   17      H      -3.2250780000     1.6603620000    -0.6097670000
   18      H      -0.8972630000     2.5523700000    -0.6758190000
 ----------------------------------------------------------------

   18   -3108.7764837482      5.18e-09  Convergence criterion met
 Total energy in the final basis set =    -3109.0626791857

                    Orbital Energies (a.u.)
 --------------------------------------------------------------

 Alpha MOs
 -- Occupied --
******** -62.4547 -56.2750 -56.2717 -56.2715 -19.0345 -19.0257 -10.1910
-10.1901 -10.1895 -10.1798 -10.1758 -10.1725 -10.1705 -10.1695 -10.1550
-10.1521  -8.6628  -6.4928  -6.4820  -6.4815  -2.6038  -2.6008  -2.6005
 -2.5918  -2.5918  -0.9636  -0.9354  -0.8517  -0.8049  -0.7588  -0.7489
 -0.6946  -0.6700  -0.5990  -0.5845  -0.5549  -0.4996  -0.4796  -0.4684
 -0.4319  -0.4263  -0.4058  -0.3923  -0.3879  -0.3726  -0.3587  -0.3500
 -0.3378  -0.3249  -0.3185  -0.2853  -0.2722  -0.2643  -0.2493  -0.2151
 -0.2020  -0.1887  -0.1294

          Ground-State Mulliken Net Atomic Charges

     Atom                 Charge (a.u.)
  ----------------------------------------
      1 Br                    0.420451
      2 C                     2.289884
      3 C                    -0.241439
      4 C                    -1.201060
      5 C                     0.794602
      6 C                     1.613507
      7 C                     1.194370
      8 C                    -0.531582
      9 C                    -2.772043
     10 C                    -1.734149
     11 O                    -0.375347
     12 C                    -2.335003
     13 O                    -0.308032
     14 H                     0.091721
     15 H                     0.263679
     16 H                     0.429776
     17 H                     0.334032
     18 H                     0.066632
  ----------------------------------------
  Sum of atomic charges =    -2.000000

                    Cartesian Multipole Moments
 -----------------------------------------------------------------
    Charge (ESU x 10^10)
                -9.6064
    Dipole Moment (Debye)
         X     -16.1961      Y      -5.4539      Z       0.9509
       Tot      17.1162
    Quadrupole Moments (Debye-Ang)
        XX    -169.7582     XY      -6.7174     YY    -128.9930
        XZ      -1.2376     YZ       6.1531     ZZ    -102.3523

 Total job time:  288.79s(wall), 1960.32s(cpu)
        *  Thank you very much for using Q-Chem.  Have a nice day.  *
