 Q-Chem 5.4, Q-Chem, Inc., Pleasanton, CA (2021)
 Q-Chem 5.4.0 for Intel X86 EM64T Linux

User input:
--------------------------------------------------------------
$molecule
0 1
C                 -1.4503660000      0.2148860000     -0.1893600000
C                 -0.9964210000     -1.0393270000     -0.3741520000
C                  0.4172610000     -1.3734450000     -0.0217330000
C                  1.3562800000     -0.2834760000      0.3838580000
C                  0.9636660000      1.0015230000      0.2947770000
C                 -0.4807920000      1.3201680000      0.0798220000
O                 -0.8676610000      2.4802790000      0.1238620000
O                  0.8039660000     -2.5336410000     -0.0650190000
C                  1.9161270000      2.1623160000      0.4261020000
C                  2.7274520000     -0.6923320000      0.8578220000
C                  3.6848110000      0.4744910000      1.0088710000
C                  3.3029710000      1.7540580000      0.8852450000
C                 -2.9110360000      0.5790520000     -0.2645580000
C                 -3.7859850000     -0.5460990000     -0.7834950000
C                 -3.3275560000     -1.7873440000     -1.0015930000
C                 -1.8590500000     -2.1550220000     -0.9061900000
H                  1.4921580000      2.8718590000      1.1479940000
C                  2.0073590000      2.9145150000     -0.9323270000
H                  3.1405270000     -1.4055600000      0.1332520000
C                  2.6035560000     -1.4548460000      2.2078450000
C                  5.1057680000      0.0837210000      1.3610170000
C                  4.2465360000      2.9099320000      1.1486590000
C                 -5.2391860000     -0.1712180000     -0.9918990000
C                 -4.2381440000     -2.9264290000     -1.4128630000
C                 -1.3319320000     -2.5981410000     -2.3008780000
H                  2.4208290000      2.2554140000     -1.7008160000
H                  2.6603710000      3.7850620000     -0.8447600000
H                  1.0257210000      3.2639890000     -1.2500830000
H                  2.1901000000     -0.7956740000      2.9762810000
H                  3.5838030000     -1.7968160000      2.5456730000
H                  1.9625390000     -2.3293690000      2.1029730000
H                  5.3434940000     -0.9049140000      0.9577950000
H                  5.2653350000      0.0319930000      2.4444420000
H                  5.8357500000      0.7858030000      0.9562570000
H                  4.9696520000      2.6779200000      1.9315340000
H                  3.6895600000      3.7951660000      1.4690190000
H                  4.8115420000      3.1963480000      0.2538580000
H                 -5.3304700000      0.8905570000     -1.2384640000
H                 -5.8446290000     -0.3423710000     -0.0940790000
H                 -5.6948290000     -0.7360720000     -1.8061200000
H                 -5.2347910000     -2.8304390000     -0.9803020000
H                 -3.8280870000     -3.8848600000     -1.0815340000
H                 -4.3568930000     -2.9905120000     -2.5008590000
C                 -3.4057900000      1.0311900000      1.1390640000
H                 -3.0123940000      1.4485940000     -0.9263210000
H                 -1.7468750000     -3.0203770000     -0.2406730000
H                 -1.4126980000     -1.7727360000     -3.0137120000
H                 -1.9186980000     -3.4355700000     -2.6834740000
H                 -0.2926200000     -2.9187610000     -2.2399120000
H                 -3.3246940000      0.2051450000      1.8511190000
H                 -4.4521190000      1.3398130000      1.0950900000
H                 -2.8231910000      1.8766760000      1.5030090000
$end
$rem
MAX_SCF_CYCLES=200
BASIS  =  6-311++G(d,p)
GUI  =  2
JOB_TYPE  =  SP
METHOD  =  B3LYP
SOLVENT_METHOD = PCM
$end
$pcm
theory = CPCM
$end
$solvent
dielectric 37.219
opticaldielectric 1.43
$end

--------------------------------------------------------------

             Standard Nuclear Orientation (Angstroms)
    I     Atom           X                Y                Z
 ----------------------------------------------------------------
    1      C      -1.4503660000     0.2148860000    -0.1893600000
    2      C      -0.9964210000    -1.0393270000    -0.3741520000
    3      C       0.4172610000    -1.3734450000    -0.0217330000
    4      C       1.3562800000    -0.2834760000     0.3838580000
    5      C       0.9636660000     1.0015230000     0.2947770000
    6      C      -0.4807920000     1.3201680000     0.0798220000
    7      O      -0.8676610000     2.4802790000     0.1238620000
    8      O       0.8039660000    -2.5336410000    -0.0650190000
    9      C       1.9161270000     2.1623160000     0.4261020000
   10      C       2.7274520000    -0.6923320000     0.8578220000
   11      C       3.6848110000     0.4744910000     1.0088710000
   12      C       3.3029710000     1.7540580000     0.8852450000
   13      C      -2.9110360000     0.5790520000    -0.2645580000
   14      C      -3.7859850000    -0.5460990000    -0.7834950000
   15      C      -3.3275560000    -1.7873440000    -1.0015930000
   16      C      -1.8590500000    -2.1550220000    -0.9061900000
   17      H       1.4921580000     2.8718590000     1.1479940000
   18      C       2.0073590000     2.9145150000    -0.9323270000
   19      H       3.1405270000    -1.4055600000     0.1332520000
   20      C       2.6035560000    -1.4548460000     2.2078450000
   21      C       5.1057680000     0.0837210000     1.3610170000
   22      C       4.2465360000     2.9099320000     1.1486590000
   23      C      -5.2391860000    -0.1712180000    -0.9918990000
   24      C      -4.2381440000    -2.9264290000    -1.4128630000
   25      C      -1.3319320000    -2.5981410000    -2.3008780000
   26      H       2.4208290000     2.2554140000    -1.7008160000
   27      H       2.6603710000     3.7850620000    -0.8447600000
   28      H       1.0257210000     3.2639890000    -1.2500830000
   29      H       2.1901000000    -0.7956740000     2.9762810000
   30      H       3.5838030000    -1.7968160000     2.5456730000
   31      H       1.9625390000    -2.3293690000     2.1029730000
   32      H       5.3434940000    -0.9049140000     0.9577950000
   33      H       5.2653350000     0.0319930000     2.4444420000
   34      H       5.8357500000     0.7858030000     0.9562570000
   35      H       4.9696520000     2.6779200000     1.9315340000
   36      H       3.6895600000     3.7951660000     1.4690190000
   37      H       4.8115420000     3.1963480000     0.2538580000
   38      H      -5.3304700000     0.8905570000    -1.2384640000
   39      H      -5.8446290000    -0.3423710000    -0.0940790000
   40      H      -5.6948290000    -0.7360720000    -1.8061200000
   41      H      -5.2347910000    -2.8304390000    -0.9803020000
   42      H      -3.8280870000    -3.8848600000    -1.0815340000
   43      H      -4.3568930000    -2.9905120000    -2.5008590000
   44      C      -3.4057900000     1.0311900000     1.1390640000
   45      H      -3.0123940000     1.4485940000    -0.9263210000
   46      H      -1.7468750000    -3.0203770000    -0.2406730000
   47      H      -1.4126980000    -1.7727360000    -3.0137120000
   48      H      -1.9186980000    -3.4355700000    -2.6834740000
   49      H      -0.2926200000    -2.9187610000    -2.2399120000
   50      H      -3.3246940000     0.2051450000     1.8511190000
   51      H      -4.4521190000     1.3398130000     1.0950900000
   52      H      -2.8231910000     1.8766760000     1.5030090000
 ----------------------------------------------------------------

    8   -1005.9069737244      4.62e-06  Convergence criterion met
 Total energy in the final basis set =    -1005.9069737244

                    Orbital Energies (a.u.)
 --------------------------------------------------------------

 Alpha MOs
 -- Occupied --
-19.1333 -19.1332 -10.2786 -10.2786 -10.2039 -10.2038 -10.2031 -10.2031
-10.1877 -10.1877 -10.1877 -10.1877 -10.1725 -10.1724 -10.1717 -10.1716
-10.1593 -10.1593 -10.1593 -10.1593 -10.1587 -10.1587 -10.1587 -10.1587
 -1.0667  -1.0648  -0.8798  -0.8643  -0.8181  -0.7970  -0.7956  -0.7867
 -0.7371  -0.7171  -0.7136  -0.7105  -0.6853  -0.6764  -0.6646  -0.6559
 -0.6225  -0.6123  -0.5925  -0.5859  -0.5705  -0.5336  -0.5093  -0.4990
 -0.4784  -0.4758  -0.4716  -0.4666  -0.4640  -0.4547  -0.4383  -0.4367
 -0.4255  -0.4255  -0.4235  -0.4223  -0.4134  -0.4113  -0.4019  -0.3993
 -0.3954  -0.3921  -0.3918  -0.3910  -0.3842  -0.3788  -0.3727  -0.3727
 -0.3704  -0.3654  -0.3606  -0.3588  -0.3581  -0.3561  -0.3382  -0.3338
 -0.3245  -0.3226  -0.2923  -0.2846  -0.2656  -0.2610  -0.2306  -0.2302

          Ground-State Mulliken Net Atomic Charges

     Atom                 Charge (a.u.)
  ----------------------------------------
      1 C                     0.380052
      2 C                     0.374394
      3 C                    -0.955786
      4 C                     0.375887
      5 C                     0.382763
      6 C                    -0.957176
      7 O                    -0.232430
      8 O                    -0.232119
      9 C                     0.209019
     10 C                     0.208530
     11 C                     0.211448
     12 C                     0.205209
     13 C                     0.201938
     14 C                     0.211190
     15 C                     0.203755
     16 C                     0.206315
     17 H                     0.242104
     18 C                    -0.859388
     19 H                     0.241814
     20 C                    -0.858725
     21 C                    -0.662413
     22 C                    -0.648172
     23 C                    -0.661312
     24 C                    -0.646725
     25 C                    -0.856309
     26 H                     0.166684
     27 H                     0.174095
     28 H                     0.185096
     29 H                     0.166500
     30 H                     0.173813
     31 H                     0.185969
     32 H                     0.173627
     33 H                     0.201971
     34 H                     0.171600
     35 H                     0.171800
     36 H                     0.173861
     37 H                     0.201601
     38 H                     0.173522
     39 H                     0.201908
     40 H                     0.171908
     41 H                     0.171535
     42 H                     0.173736
     43 H                     0.201623
     44 C                    -0.857371
     45 H                     0.241566
     46 H                     0.241307
     47 H                     0.165886
     48 H                     0.173856
     49 H                     0.184981
     50 H                     0.165662
     51 H                     0.173905
     52 H                     0.185492
  ----------------------------------------
  Sum of atomic charges =    -0.000008

                    Cartesian Multipole Moments
 -----------------------------------------------------------------
    Charge (ESU x 10^10)
                -0.0000
    Dipole Moment (Debye)
         X      -0.0007      Y      -0.0021      Z      -0.0074
       Tot       0.0077
    Quadrupole Moments (Debye-Ang)
        XX    -128.1380     XY      10.2266     YY    -156.0422
        XZ       5.2745     YZ       1.2137     ZZ    -145.1610

 Total job time:  167.17s(wall), 1151.54s(cpu)
        *  Thank you very much for using Q-Chem.  Have a nice day.  *
