 Q-Chem 5.4, Q-Chem, Inc., Pleasanton, CA (2021)
 Q-Chem 5.4.0 for Intel X86 EM64T Linux

User input:
--------------------------------------------------------------
$molecule
-2 1
O                  5.4952910000     -2.2488770000      0.6732510000
S                  5.4592980000     -0.9147240000      0.0207750000
O                  6.2930100000      0.1125920000      0.6985360000
O                  5.6098550000     -0.9549950000     -1.4543360000
C                  3.7383470000     -0.3396550000      0.2906880000
C                  3.4659590000      0.5658130000      1.3185730000
C                  2.1602050000      0.9773470000      1.5595490000
C                  1.1047470000      0.4926160000      0.7810560000
C                 -0.2824460000      0.9560780000      1.0702060000
O                 -0.5083420000      1.7477390000      1.9769460000
C                 -1.3808530000      0.4201110000      0.2146460000
C                 -2.6976780000      0.8276290000      0.4523800000
C                 -3.7383340000      0.3394970000     -0.3339310000
C                 -3.4659450000     -0.5661370000     -1.3617410000
C                 -2.1602260000     -0.9775260000     -1.6028020000
C                 -1.1047200000     -0.4925880000     -0.8244150000
C                  0.2824830000     -0.9559940000     -1.1136410000
O                  0.5083610000     -1.7476340000     -2.0204090000
C                  1.3808970000     -0.4200720000     -0.2580680000
C                  2.6976480000     -0.8276570000     -0.4957420000
S                 -5.4592710000      0.9150930000     -0.0651250000
O                 -5.4988070000      2.2421030000     -0.7318690000
O                 -6.2934310000     -0.1204310000     -0.7296940000
O                 -5.6058200000      0.9709730000      1.4098570000
H                  4.2945600000      0.9432940000      1.9057120000
H                  1.9319170000      1.6815890000      2.3507820000
H                 -2.9011350000      1.5184080000      1.2606380000
H                 -4.2944820000     -0.9441470000     -1.9486430000
H                 -1.9319320000     -1.6818820000     -2.3939250000
H                  2.9008430000     -1.5185630000     -1.3039610000
$end

$rem
BASIS  =  6-311++G(d,p)
GUI  =  2
JOB_TYPE  =  SP
METHOD  =  B3LYP
SCF_CONVERGENCE  = 8
SOLVENT_METHOD = sm12
$end

$smx
solvent dimethylformamide
charges CM5
$end

--------------------------------------------------------------

             Standard Nuclear Orientation (Angstroms)
    I     Atom           X                Y                Z
 ----------------------------------------------------------------
    1      O       5.4952910000    -2.2488770000     0.6732510000
    2      S       5.4592980000    -0.9147240000     0.0207750000
    3      O       6.2930100000     0.1125920000     0.6985360000
    4      O       5.6098550000    -0.9549950000    -1.4543360000
    5      C       3.7383470000    -0.3396550000     0.2906880000
    6      C       3.4659590000     0.5658130000     1.3185730000
    7      C       2.1602050000     0.9773470000     1.5595490000
    8      C       1.1047470000     0.4926160000     0.7810560000
    9      C      -0.2824460000     0.9560780000     1.0702060000
   10      O      -0.5083420000     1.7477390000     1.9769460000
   11      C      -1.3808530000     0.4201110000     0.2146460000
   12      C      -2.6976780000     0.8276290000     0.4523800000
   13      C      -3.7383340000     0.3394970000    -0.3339310000
   14      C      -3.4659450000    -0.5661370000    -1.3617410000
   15      C      -2.1602260000    -0.9775260000    -1.6028020000
   16      C      -1.1047200000    -0.4925880000    -0.8244150000
   17      C       0.2824830000    -0.9559940000    -1.1136410000
   18      O       0.5083610000    -1.7476340000    -2.0204090000
   19      C       1.3808970000    -0.4200720000    -0.2580680000
   20      C       2.6976480000    -0.8276570000    -0.4957420000
   21      S      -5.4592710000     0.9150930000    -0.0651250000
   22      O      -5.4988070000     2.2421030000    -0.7318690000
   23      O      -6.2934310000    -0.1204310000    -0.7296940000
   24      O      -5.6058200000     0.9709730000     1.4098570000
   25      H       4.2945600000     0.9432940000     1.9057120000
   26      H       1.9319170000     1.6815890000     2.3507820000
   27      H      -2.9011350000     1.5184080000     1.2606380000
   28      H      -4.2944820000    -0.9441470000    -1.9486430000
   29      H      -1.9319320000    -1.6818820000    -2.3939250000
   30      H       2.9008430000    -1.5185630000    -1.3039610000
 ----------------------------------------------------------------

   15   -1935.6716745345      7.54e-09  Convergence criterion met
 Total energy in the final basis set =    -1935.9008743051

                    Orbital Energies (a.u.)
 --------------------------------------------------------------

 Alpha MOs
 -- Occupied --
-89.0361 -89.0361 -19.1322 -19.1322 -19.0794 -19.0794 -19.0793 -19.0793
-19.0789 -19.0789 -10.2851 -10.2851 -10.2146 -10.2146 -10.2143 -10.2143
-10.2129 -10.2129 -10.2038 -10.2037 -10.2031 -10.2031 -10.2024 -10.2024
 -8.0948  -8.0948  -6.0574  -6.0573  -6.0573  -6.0573  -6.0570  -6.0570
 -1.0982  -1.0982  -1.0653  -1.0634  -0.9629  -0.9629  -0.9611  -0.9611
 -0.8993  -0.8875  -0.8191  -0.7855  -0.7829  -0.7782  -0.6973  -0.6831
 -0.6553  -0.6304  -0.6065  -0.5935  -0.5750  -0.5638  -0.5282  -0.5087
 -0.4983  -0.4938  -0.4878  -0.4630  -0.4591  -0.4590  -0.4563  -0.4535
 -0.4506  -0.4406  -0.4396  -0.4342  -0.4338  -0.4243  -0.4199  -0.4019
 -0.3983  -0.3828  -0.3748  -0.3705  -0.3218  -0.3217  -0.3210  -0.3210
 -0.3085  -0.3063  -0.2909  -0.2885  -0.2884  -0.2848  -0.2843  -0.2808
 -0.2804  -0.2730  -0.2675  -0.2618  -0.2424  -0.2423

          Ground-State Mulliken Net Atomic Charges

     Atom                 Charge (a.u.)
  ----------------------------------------
      1 O                    -0.336176
      2 S                     0.150485
      3 O                    -0.351870
      4 O                    -0.378684
      5 C                    -1.857982
      6 C                    -0.163040
      7 C                     1.091107
      8 C                     0.882106
      9 C                    -0.436078
     10 O                    -0.182065
     11 C                     0.292394
     12 C                    -0.453290
     13 C                    -1.853854
     14 C                    -0.167428
     15 C                     1.086027
     16 C                     0.880229
     17 C                    -0.434742
     18 O                    -0.182124
     19 C                     0.288948
     20 C                    -0.457904
     21 S                     0.150248
     22 O                    -0.336206
     23 O                    -0.352069
     24 O                    -0.379181
     25 H                     0.270419
     26 H                     0.318228
     27 H                     0.162299
     28 H                     0.270205
     29 H                     0.318033
     30 H                     0.161965
  ----------------------------------------
  Sum of atomic charges =    -2.000000

                    Cartesian Multipole Moments
 -----------------------------------------------------------------
    Charge (ESU x 10^10)
                -9.6064
    Dipole Moment (Debye)
         X      -0.0003      Y      -0.0027      Z       0.2168
       Tot       0.2168
    Quadrupole Moments (Debye-Ang)
        XX    -476.5884     XY      60.5990     YY    -186.4722
        XZ       7.4336     YZ      -4.0460     ZZ    -176.0838

 Total job time:  926.90s(wall), 6595.21s(cpu)
        *  Thank you very much for using Q-Chem.  Have a nice day.  *
