 Q-Chem 5.4, Q-Chem, Inc., Pleasanton, CA (2021)
 Q-Chem 5.4.0 for Intel X86 EM64T Linux

User input:
--------------------------------------------------------------
$molecule
0 1
C                 -1.5146050000     -0.0482520000      1.5555800000
C                 -2.4347820000      1.1514310000      1.1947260000
C                 -2.2224530000      1.8253920000      0.0136650000
C                 -1.1742120000      1.4525550000     -0.8878540000
C                 -0.2540760000      0.2528330000     -0.5270310000
C                 -0.4663740000     -0.4210990000      0.6540560000
O                 -0.9379100000      2.0232700000     -1.9473410000
O                 -1.7508520000     -0.6189280000      2.6151020000
Br                 0.5670070000     -1.9251400000      1.2555940000
Br                -3.2557740000      3.3295000000     -0.5878020000
N                  0.6365650000      0.0753030000     -1.5037400000
N                 -3.3254750000      1.3289470000      2.1713920000
C                 -4.4729220000      2.2275640000      2.3412150000
C                 -5.7463710000      1.6327000000      1.7121460000
C                 -6.9631180000      2.5338650000      1.9673790000
C                 -7.1612600000      2.8069150000      3.4644240000
C                 -5.8887030000      3.3858070000      4.0975320000
C                 -4.6678860000      2.4900110000      3.8423430000
C                  1.7839150000     -0.8234100000     -1.6737110000
C                  3.0575710000     -0.2284930000     -1.0451080000
C                  1.9784480000     -1.0861610000     -3.1748410000
C                  3.1991480000     -1.9820710000     -3.4301890000
C                  4.2742030000     -1.1297670000     -1.3005040000
C                  4.4719120000     -1.4031200000     -2.7975500000
H                  0.5091930000      0.7836680000     -2.2286740000
H                 -3.1981990000      0.6205170000      2.8962790000
H                 -4.2438380000      3.1709570000      1.8487320000
H                 -5.9211510000      0.6395570000      2.1450770000
H                 -5.5898580000      1.4928860000      0.6393460000
H                 -7.8585970000      2.0712380000      1.5414760000
H                 -6.8246740000      3.4854370000      1.4387190000
H                 -7.4246180000      1.8700690000      3.9721070000
H                 -8.0019640000      3.4909220000      3.6166650000
H                 -6.0247740000      3.5212950000      5.1747280000
H                 -5.6973080000      4.3829070000      3.6813430000
H                 -4.8060610000      1.5302130000      4.3589370000
H                 -3.7630330000      2.9464590000      4.2548220000
H                  1.5549110000     -1.7666900000     -1.1809790000
H                  2.9013550000     -0.0884660000      0.0277070000
H                  3.2322860000      0.7645590000     -1.4782750000
H                  2.1165300000     -0.1264730000     -3.6916640000
H                  1.0734570000     -1.5426410000     -3.5869790000
H                  3.3349130000     -2.1177830000     -4.5073950000
H                  3.0078170000     -2.9790780000     -3.0137470000
H                  4.1358610000     -2.0812280000     -0.7716190000
H                  5.1698240000     -0.6671010000     -0.8749430000
H                  5.3125390000     -2.0871990000     -2.9498940000
H                  4.7351740000     -0.4663870000     -3.3054910000
$end
$rem
MAX_SCF_CYCLES=200
SCF_Guess=core
BASIS  =  6-311++G(d,p)
GUI  =  2
JOB_TYPE  =  SP
METHOD  =  B3LYP
THRESH = 14
SCF_CONVERGENCE = 8
SOLVENT_METHOD = COSMO
$end
$solvent
dielectric 37.219
opticaldielectric 1.43
$end

--------------------------------------------------------------

             Standard Nuclear Orientation (Angstroms)
    I     Atom           X                Y                Z
 ----------------------------------------------------------------
    1      C      -0.3050578852    -1.4112666922    -0.0081677481
    2      C      -1.4185263033    -0.3318601312     0.0978991135
    3      C      -1.0629800956     0.9977257083     0.0986125609
    4      C       0.3050409742     1.4111724523     0.0084279034
    5      C       1.4185039828     0.3317685930    -0.0977031956
    6      C       1.0629610685    -0.9978215988    -0.0983671636
    7      O       0.6757139760     2.5802116620     0.0124030170
    8      O      -0.6757155324    -2.5803125857    -0.0120687634
    9      Br      2.3019036270    -2.4607662449    -0.2275100518
   10      Br     -2.3019288607     2.4606524284     0.2278684541
   11      N       2.6052623440     0.9343072932    -0.1829702427
   12      N      -2.6053048104    -0.9343706164     0.1831066034
   13      C      -3.9876311927    -0.4433281330     0.2153251418
   14      C      -4.5418022455    -0.2404741800    -1.2069997363
   15      C      -6.0154654288     0.1893464434    -1.1711311205
   16      C      -6.8757802466    -0.8040692149    -0.3787019245
   17      C      -6.3172877035    -1.0199002274     1.0343961114
   18      C      -4.8425256540    -1.4466854755     1.0044412073
   19      C       3.9876066077     0.4433274453    -0.2153792700
   20      C       4.5421076046     0.2408591669     1.2068734556
   21      C       4.8422738371     1.4465246442    -1.0049435550
   22      C       6.3170490957     1.0198007495    -1.0351176103
   23      C       6.0157851257    -0.1888939993     1.1707882320
   24      C       6.8758702626     0.8043614696     0.3779108340
   25      H       2.4893734239     1.9479493639    -0.1316534360
   26      H      -2.4894494646    -1.9480101735     0.1316693126
   27      H      -3.9988368473     0.5116422847     0.7377380736
   28      H      -4.4420782979    -1.1827449908    -1.7606161839
   29      H      -3.9365437718     0.5050366180    -1.7293214223
   30      H      -6.3931736012     0.2917170013    -2.1929709081
   31      H      -6.0904423941     1.1832108573    -0.7120566285
   32      H      -6.9013910000    -1.7648471812    -0.9088242513
   33      H      -7.9100608499    -0.4502912171    -0.3245643622
   34      H      -6.9056654983    -1.7727641761     1.5675292871
   35      H      -6.4115319078    -0.0893182290     1.6081459818
   36      H      -4.7592047737    -2.4361837831     0.5342023080
   37      H      -4.4493106242    -1.5429105840     2.0209869872
   38      H       3.9987339438    -0.5117732885    -0.7375512580
   39      H       3.9369989411    -0.5045497887     1.7295129277
   40      H       4.4424600978     1.1832627794     1.7602784262
   41      H       4.7590115423     2.4361402211    -0.5349413108
   42      H       4.4488256253     1.5424709069    -2.0214243718
   43      H       6.9052722992     1.7725526849    -1.5685786071
   44      H       6.4112085739     0.0890739132    -1.6086470324
   45      H       6.0907120476    -1.1828724716     0.7119542319
   46      H       6.3937272517    -0.2909808459     2.1925695164
   47      H       7.9101576626     0.4506244312     0.3236318569
   48      H       6.9015496967     1.7652777758     0.9077788106
 ----------------------------------------------------------------

   31   -6108.8838606767      8.24e-09  Convergence criterion met
 Total energy in the final basis set =    -6108.8838606767
   11   -6108.9009004531      3.69e-09  Convergence criterion met
 Total energy in the final basis set =    -6108.9009004531

                    Orbital Energies (a.u.)
 --------------------------------------------------------------

 Alpha MOs
 -- Occupied --
********-482.8376 -62.4905 -62.4905 -56.3110 -56.3110 -56.3071 -56.3071
-56.3069 -56.3069 -19.1297 -19.1297 -14.3673 -14.3673 -10.2883 -10.2883
-10.2700 -10.2700 -10.2328 -10.2328 -10.2188 -10.2188 -10.1707 -10.1707
-10.1687 -10.1687 -10.1647 -10.1647 -10.1642 -10.1642 -10.1614 -10.1614
 -8.6993  -8.6993  -6.5310  -6.5310  -6.5178  -6.5178  -6.5174  -6.5174
 -2.6418  -2.6418  -2.6382  -2.6382  -2.6378  -2.6378  -2.6274  -2.6274
 -2.6273  -2.6273  -1.0736  -1.0709  -0.9749  -0.9747  -0.8659  -0.8422
 -0.8319  -0.8256  -0.7880  -0.7665  -0.7475  -0.7468  -0.7454  -0.7196
 -0.6884  -0.6457  -0.6296  -0.6277  -0.6167  -0.6115  -0.5796  -0.5762
 -0.5630  -0.5466  -0.5370  -0.5365  -0.4981  -0.4847  -0.4724  -0.4677
 -0.4666  -0.4578  -0.4493  -0.4493  -0.4432  -0.4408  -0.4385  -0.4291
 -0.4284  -0.4137  -0.4053  -0.4046  -0.3972  -0.3872  -0.3840  -0.3837
 -0.3700  -0.3625  -0.3558  -0.3494  -0.3475  -0.3452  -0.3268  -0.3253
 -0.3246  -0.3210  -0.3192  -0.3177  -0.3046  -0.3021  -0.3015  -0.2991
 -0.2917  -0.2836  -0.2487  -0.2230

          Ground-State Mulliken Net Atomic Charges

     Atom                 Charge (a.u.)
  ----------------------------------------
      1 C                    -0.097415
      2 C                     0.292830
      3 C                    -0.391614
      4 C                    -0.097928
      5 C                     0.292788
      6 C                    -0.391342
      7 O                    -0.308430
      8 O                    -0.308509
      9 Br                   -0.080902
     10 Br                   -0.080759
     11 N                     0.289729
     12 N                     0.289674
     13 C                    -0.377024
     14 C                    -0.015076
     15 C                    -0.374772
     16 C                    -0.402466
     17 C                    -0.439057
     18 C                    -0.247521
     19 C                    -0.377317
     20 C                    -0.014827
     21 C                    -0.247182
     22 C                    -0.439131
     23 C                    -0.374789
     24 C                    -0.402536
     25 H                     0.346829
     26 H                     0.346823
     27 H                     0.106786
     28 H                     0.184658
     29 H                     0.155106
     30 H                     0.185749
     31 H                     0.150797
     32 H                     0.137559
     33 H                     0.183792
     34 H                     0.198855
     35 H                     0.152866
     36 H                     0.150724
     37 H                     0.198240
     38 H                     0.106799
     39 H                     0.154988
     40 H                     0.184629
     41 H                     0.150657
     42 H                     0.198060
     43 H                     0.198816
     44 H                     0.152891
     45 H                     0.150902
     46 H                     0.185728
     47 H                     0.183753
     48 H                     0.137569
  ----------------------------------------
  Sum of atomic charges =     0.000000

                    Cartesian Multipole Moments
 -----------------------------------------------------------------
    Charge (ESU x 10^10)
                -0.0000
    Dipole Moment (Debye)
         X      -0.0005      Y       0.0001      Z       0.0000
       Tot       0.0005
    Quadrupole Moments (Debye-Ang)
        XX    -121.7697     XY      10.3266     YY    -192.9119
        XZ      -1.1472     YZ      -1.1061     ZZ    -169.6979

 Total job time:  1105.21s(wall), 8666.99s(cpu)
        *  Thank you very much for using Q-Chem.  Have a nice day.  *
