 Q-Chem 5.4, Q-Chem, Inc., Pleasanton, CA (2021)
 Q-Chem 5.4.0 for Intel X86 EM64T Linux

User input:
--------------------------------------------------------------
$molecule
-1 2
C                  1.8360960000      2.7988550000      1.3929850000
C                  0.4011150000      2.7399800000      1.1929080000
C                 -0.1958440000      1.6428260000      0.6147780000
C                  0.5915160000      0.4976970000      0.1755080000
C                  2.0415800000      0.5602030000      0.3451790000
C                  2.6228840000      1.6701220000      0.9295830000
O                  2.3768040000      3.8058470000      1.9657250000
O                  0.0442780000     -0.5139890000     -0.3456470000
C                 -0.4166070000      3.9208360000      1.6571120000
C                 -1.6879930000      1.5754250000      0.4112410000
C                  2.8268810000     -0.6327070000     -0.1317250000
S                  4.3943210000      1.6488760000      1.2453220000
C                  4.9701230000      3.3250990000      0.7275070000
C                  5.3081890000      4.2724020000      1.8994130000
C                  4.9866500000      5.7266050000      1.5755110000
O                  5.8322000000      6.5844950000      1.4304570000
O                  3.6853850000      6.0051990000      1.4543280000
H                  0.2242160000      4.6436380000      2.1601050000
H                 -1.2088270000      3.6120910000      2.3487900000
H                 -0.9100460000      4.4226760000      0.8155380000
H                 -2.0498960000      2.4140030000     -0.1956860000
H                 -2.2275120000      1.6220230000      1.3654650000
H                 -1.9455520000      0.6416180000     -0.0878760000
H                  2.2234420000     -1.2004670000     -0.8400900000
H                  3.0759300000     -1.3071690000      0.6976430000
H                  3.7713250000     -0.3273530000     -0.5876690000
H                  4.1940160000      3.7353500000      0.0853620000
H                  5.8543870000      3.1595840000      0.1084080000
H                  6.3665800000      4.2112180000      2.1550270000
H                  4.7126310000      3.9750010000      2.7638320000
H                  3.1273750000      5.1912030000      1.6287880000
$end
$rem
MAX_SCF_CYCLES=200
BASIS  =  6-311++G(d,p)
GUI  =  2
JOB_TYPE  =  SP
METHOD  =  B3LYP
SOLVENT_METHOD = PCM
$end
$pcm
theory = CPCM
$end
$solvent
dielectric 37.219
opticaldielectric 1.43
$end

--------------------------------------------------------------

             Standard Nuclear Orientation (Angstroms)
    I     Atom           X                Y                Z
 ----------------------------------------------------------------
    1      C       1.8360960000     2.7988550000     1.3929850000
    2      C       0.4011150000     2.7399800000     1.1929080000
    3      C      -0.1958440000     1.6428260000     0.6147780000
    4      C       0.5915160000     0.4976970000     0.1755080000
    5      C       2.0415800000     0.5602030000     0.3451790000
    6      C       2.6228840000     1.6701220000     0.9295830000
    7      O       2.3768040000     3.8058470000     1.9657250000
    8      O       0.0442780000    -0.5139890000    -0.3456470000
    9      C      -0.4166070000     3.9208360000     1.6571120000
   10      C      -1.6879930000     1.5754250000     0.4112410000
   11      C       2.8268810000    -0.6327070000    -0.1317250000
   12      S       4.3943210000     1.6488760000     1.2453220000
   13      C       4.9701230000     3.3250990000     0.7275070000
   14      C       5.3081890000     4.2724020000     1.8994130000
   15      C       4.9866500000     5.7266050000     1.5755110000
   16      O       5.8322000000     6.5844950000     1.4304570000
   17      O       3.6853850000     6.0051990000     1.4543280000
   18      H       0.2242160000     4.6436380000     2.1601050000
   19      H      -1.2088270000     3.6120910000     2.3487900000
   20      H      -0.9100460000     4.4226760000     0.8155380000
   21      H      -2.0498960000     2.4140030000    -0.1956860000
   22      H      -2.2275120000     1.6220230000     1.3654650000
   23      H      -1.9455520000     0.6416180000    -0.0878760000
   24      H       2.2234420000    -1.2004670000    -0.8400900000
   25      H       3.0759300000    -1.3071690000     0.6976430000
   26      H       3.7713250000    -0.3273530000    -0.5876690000
   27      H       4.1940160000     3.7353500000     0.0853620000
   28      H       5.8543870000     3.1595840000     0.1084080000
   29      H       6.3665800000     4.2112180000     2.1550270000
   30      H       4.7126310000     3.9750010000     2.7638320000
   31      H       3.1273750000     5.1912030000     1.6287880000
 ----------------------------------------------------------------

    8   -1165.2137231722      9.72e-06  Convergence criterion met
 Total energy in the final basis set =    -1165.2137231722

                    Orbital Energies (a.u.)
 --------------------------------------------------------------

 Alpha MOs
 -- Occupied --
-88.8429 -19.1530 -19.1133 -19.0855 -19.0799 -10.3059 -10.2311 -10.2215
-10.2021 -10.1945 -10.1798 -10.1772 -10.1701 -10.1695 -10.1529 -10.1528
-10.1522  -7.9289  -5.8928  -5.8889  -5.8831  -1.1000  -1.0216  -1.0061
 -1.0034  -0.8405  -0.8113  -0.7873  -0.7337  -0.7235  -0.7053  -0.6620
 -0.6402  -0.6147  -0.6080  -0.5488  -0.5468  -0.5150  -0.5062  -0.4808
 -0.4655  -0.4509  -0.4445  -0.4388  -0.4269  -0.4131  -0.4117  -0.4098
 -0.3994  -0.3903  -0.3869  -0.3851  -0.3811  -0.3714  -0.3687  -0.3661
 -0.3542  -0.3495  -0.3462  -0.3248  -0.3163  -0.2890  -0.2787  -0.2578
 -0.2516  -0.2413  -0.2188  -0.1660

 Beta MOs
 -- Occupied --
-88.8428 -19.1529 -19.1133 -19.0804 -19.0732 -10.3059 -10.2284 -10.2200
-10.2020 -10.1939 -10.1798 -10.1756 -10.1694 -10.1683 -10.1530 -10.1528
-10.1523  -7.9289  -5.8928  -5.8889  -5.8829  -1.0998  -1.0206  -0.9968
 -0.9918  -0.8357  -0.8100  -0.7859  -0.7309  -0.7211  -0.7033  -0.6592
 -0.6356  -0.6126  -0.6071  -0.5452  -0.5431  -0.5143  -0.5043  -0.4802
 -0.4637  -0.4497  -0.4428  -0.4313  -0.4218  -0.4107  -0.4099  -0.4085
 -0.3917  -0.3890  -0.3861  -0.3844  -0.3718  -0.3694  -0.3670  -0.3542
 -0.3482  -0.3458  -0.3403  -0.3241  -0.3146  -0.2863  -0.2639  -0.2518
 -0.2403  -0.2354  -0.2133

          Ground-State Mulliken Net Atomic Charges

     Atom                 Charge (a.u.)    Spin (a.u.)
  --------------------------------------------------------
      1 C                    -1.075945       0.196632
      2 C                     0.872709       0.042286
      3 C                     0.548624       0.111403
      4 C                    -2.019548       0.063278
      5 C                     0.408324       0.113211
      6 C                     1.303354       0.003581
      7 O                    -0.471350       0.176427
      8 O                    -0.471283       0.251545
      9 C                    -0.476360       0.006912
     10 C                    -0.515653       0.001750
     11 C                    -0.182664      -0.004548
     12 S                    -0.440691       0.010180
     13 C                    -0.314143      -0.001257
     14 C                    -0.205696      -0.004267
     15 C                    -0.110594       0.001921
     16 O                    -0.387450       0.000719
     17 O                    -0.318776       0.001795
     18 H                     0.173369      -0.000621
     19 H                     0.151181       0.002072
     20 H                     0.169224       0.001582
     21 H                     0.164773       0.004139
     22 H                     0.165553       0.004532
     23 H                     0.179100      -0.001664
     24 H                     0.175199      -0.000979
     25 H                     0.196315       0.007856
     26 H                     0.137883       0.002657
     27 H                     0.216248      -0.000023
     28 H                     0.266842       0.000327
     29 H                     0.228787      -0.000580
     30 H                     0.193070       0.004226
     31 H                     0.439595       0.004908
  --------------------------------------------------------
  Sum of atomic charges =    -1.000000

                    Cartesian Multipole Moments
 -----------------------------------------------------------------
    Charge (ESU x 10^10)
                -4.8032
    Dipole Moment (Debye)
         X     -11.8618      Y     -13.7031      Z      -4.3104
       Tot      18.6294
    Quadrupole Moments (Debye-Ang)
        XX    -164.4991     XY     -72.3008     YY    -214.5651
        XZ     -20.5825     YZ     -26.0023     ZZ    -121.4135

 Total job time:  88.70s(wall), 426.24s(cpu)
        *  Thank you very much for using Q-Chem.  Have a nice day.  *
