 Gaussian 16, Revision A.03,
 Gaussian 16:  ES64L-G16RevA.03 25-Dec-2016

 ----------------------------------------------------------------------
 #P UB3LYP/6-311++G(d,p) nosym opt freq SCRF=(PCM,Solvent=n,n-DiMethylF
 ormamide)
 ----------------------------------------------------------------------

 -------
 Radical
 -------
 Symbolic Z-matrix:
 Charge = -1 Multiplicity = 2

 SCF Done:  E(UB3LYP) =  -1941.24001048     A.U. after   20 cycles
 SCF Done:  E(UB3LYP) =  -1941.24030454     A.U. after   20 cycles
 SCF Done:  E(UB3LYP) =  -1941.24138941     A.U. after   20 cycles
 SCF Done:  E(UB3LYP) =  -1941.24162642     A.U. after   17 cycles
 SCF Done:  E(UB3LYP) =  -1941.24167884     A.U. after   17 cycles
 SCF Done:  E(UB3LYP) =  -1941.24170998     A.U. after   19 cycles
 SCF Done:  E(UB3LYP) =  -1941.24172936     A.U. after   19 cycles
 SCF Done:  E(UB3LYP) =  -1941.24173416     A.U. after   19 cycles
 SCF Done:  E(UB3LYP) =  -1941.24174033     A.U. after   16 cycles
 SCF Done:  E(UB3LYP) =  -1941.24174165     A.U. after   14 cycles
 SCF Done:  E(UB3LYP) =  -1941.24174243     A.U. after   14 cycles
 SCF Done:  E(UB3LYP) =  -1941.24174246     A.U. after   11 cycles
 SCF Done:  E(UB3LYP) =  -1941.24174247     A.U. after   13 cycles
 Optimization completed.
    -- Stationary point found.
 Normal termination of Gaussian 16 at Sat Feb 10 13:27:13 2024.

 ----------------------------------------------------------------------
 #P Geom=AllCheck Guess=TCheck SCRF=Check GenChk UB3LYP/6-311++G(d,p) F
 req
 ----------------------------------------------------------------------

 Structure from the checkpoint file:  "072-rad.chk"
 -------
 Radical
 -------
 Charge = -1 Multiplicity = 2

                          Input orientation:
 ---------------------------------------------------------------------
 Center     Atomic      Atomic             Coordinates (Angstroms)
 Number     Number       Type             X           Y           Z
 ---------------------------------------------------------------------
      1          6           0        0.710926    1.136888   -1.523346
      2          6           0       -0.692997    0.877719   -1.775542
      3          6           0       -1.472470    0.160325   -0.912097
      4          6           0       -0.976231   -0.390801    0.339381
      5          6           0        0.427543   -0.131785    0.591689
      6          6           0        1.211591    0.571339   -0.279721
      7          8           0        1.412706    1.807410   -2.319207
      8          8           0       -1.688891   -1.027803    1.152931
      9         16           0        2.956117    0.769308    0.144036
     10          6           0        3.232741    2.539689    0.331619
     11          6           0        3.792855    3.263569   -0.718134
     12          6           0        2.896864    3.142419    1.544091
     13          6           0        3.126057    4.507237    1.701715
     14          6           0        4.024154    4.626845   -0.543637
     15          6           0        3.689697    5.246656    0.660692
     16          8           0        3.794286    0.277233   -0.964539
     17          8           0        3.146251    0.155426    1.474644
     18          1           0        4.038280    2.768123   -1.647027
     19          1           0        2.475025    2.555885    2.350316
     20          1           0        4.464640    5.202760   -1.348861
     21          1           0        2.872073    4.989054    2.638341
     22          1           0        3.869426    6.307745    0.789366
     23         16           0       -3.190459   -0.131060   -1.384319
     24          6           0       -4.202844    0.643992   -0.111718
     25          6           0       -4.386768    2.026246   -0.151977
     26          6           0       -4.798405   -0.148049    0.866223
     27          6           0       -5.602653    0.463385    1.826339
     28          6           0       -5.185444    2.625420    0.819215
     29          6           0       -5.792891    1.845227    1.804510
     30          1           0       -1.110919    1.280911   -2.690060
     31          1           0        0.842044   -0.522679    1.513022
     32          1           0       -3.923601    2.620699   -0.929422
     33          1           0       -4.632510   -1.216321    0.871303
     34          1           0       -6.077868   -0.140246    2.590472
     35          1           0       -5.338342    3.697898    0.801028
     36          1           0       -6.416355    2.315749    2.555962
     37          8           0       -3.464149   -1.579851   -1.383558
     38          8           0       -3.422669    0.612012   -2.640419
 ---------------------------------------------------------------------

 SCF Done:  E(UB3LYP) =  -1941.24174247     A.U. after    2 cycles

 Alpha  occ. eigenvalues --  -89.05944 -89.05942 -19.12423 -19.12422 -19.12356
 Alpha  occ. eigenvalues --  -19.12353 -19.10286 -19.10284 -10.25494 -10.25483
 Alpha  occ. eigenvalues --  -10.21994 -10.21993 -10.21817 -10.21807 -10.20085
 Alpha  occ. eigenvalues --  -10.20064 -10.20043 -10.20036 -10.19865 -10.19863
 Alpha  occ. eigenvalues --  -10.19395 -10.19394 -10.19240 -10.19229 -10.19174
 Alpha  occ. eigenvalues --  -10.19170  -8.12331  -8.12331  -6.08611  -6.08611
 Alpha  occ. eigenvalues --   -6.08503  -6.08503  -6.08429  -6.08429  -1.11623
 Alpha  occ. eigenvalues --   -1.11613  -1.02996  -1.02763  -1.01068  -1.01051
 Alpha  occ. eigenvalues --   -0.88320  -0.88307  -0.86381  -0.80862  -0.78773
 Alpha  occ. eigenvalues --   -0.77936  -0.76981  -0.76971  -0.72518  -0.71266
 Alpha  occ. eigenvalues --   -0.67271  -0.63597  -0.62862  -0.62845  -0.62091
 Alpha  occ. eigenvalues --   -0.60318  -0.57903  -0.55176  -0.54087  -0.51623
 Alpha  occ. eigenvalues --   -0.51234  -0.51162  -0.49078  -0.48790  -0.48375
 Alpha  occ. eigenvalues --   -0.47990  -0.46237  -0.46129  -0.45998  -0.45741
 Alpha  occ. eigenvalues --   -0.45415  -0.44387  -0.44369  -0.43771  -0.43479
 Alpha  occ. eigenvalues --   -0.43132  -0.40541  -0.39955  -0.39173  -0.39084
 Alpha  occ. eigenvalues --   -0.38536  -0.38482  -0.36742  -0.36727  -0.35057
 Alpha  occ. eigenvalues --   -0.34910  -0.33514  -0.33489  -0.32033  -0.31989
 Alpha  occ. eigenvalues --   -0.31330  -0.31200  -0.30940  -0.30063  -0.28245
 Alpha  occ. eigenvalues --   -0.27817  -0.27599  -0.27518  -0.26665  -0.25778
 Alpha  occ. eigenvalues --   -0.19213
 Alpha virt. eigenvalues --   -0.07043  -0.04883  -0.03693  -0.03056  -0.02997
 Alpha virt. eigenvalues --   -0.00712  -0.00620  -0.00102   0.00993   0.01204
 Alpha virt. eigenvalues --    0.01530   0.01806   0.02562   0.02732   0.03417

  Beta  occ. eigenvalues --  -89.05945 -89.05943 -19.12419 -19.12418 -19.12360
  Beta  occ. eigenvalues --  -19.12357 -19.09552 -19.09550 -10.25416 -10.25405
  Beta  occ. eigenvalues --  -10.21994 -10.21993 -10.21760 -10.21751 -10.20084
  Beta  occ. eigenvalues --  -10.20063 -10.19864 -10.19862 -10.19843 -10.19835
  Beta  occ. eigenvalues --  -10.19393 -10.19393 -10.19240 -10.19230 -10.19174
  Beta  occ. eigenvalues --  -10.19170  -8.12332  -8.12332  -6.08612  -6.08612
  Beta  occ. eigenvalues --   -6.08504  -6.08504  -6.08432  -6.08431  -1.11615
  Beta  occ. eigenvalues --   -1.11606  -1.01779  -1.01555  -1.01043  -1.00978
  Beta  occ. eigenvalues --   -0.88314  -0.88303  -0.85783  -0.80684  -0.78749
  Beta  occ. eigenvalues --   -0.77845  -0.76979  -0.76969  -0.71632  -0.71124
  Beta  occ. eigenvalues --   -0.67057  -0.63457  -0.62853  -0.62842  -0.61687
  Beta  occ. eigenvalues --   -0.60260  -0.57800  -0.55132  -0.53973  -0.51442
  Beta  occ. eigenvalues --   -0.51109  -0.50928  -0.49040  -0.48770  -0.48367
  Beta  occ. eigenvalues --   -0.47965  -0.46115  -0.46098  -0.45835  -0.45694
  Beta  occ. eigenvalues --   -0.45396  -0.44377  -0.44365  -0.43158  -0.42425
  Beta  occ. eigenvalues --   -0.42040  -0.39623  -0.39539  -0.39082  -0.38567
  Beta  occ. eigenvalues --   -0.38425  -0.37273  -0.36738  -0.36722  -0.35005
  Beta  occ. eigenvalues --   -0.34824  -0.33436  -0.33399  -0.31886  -0.31774
  Beta  occ. eigenvalues --   -0.31246  -0.30909  -0.29594  -0.28499  -0.27892
  Beta  occ. eigenvalues --   -0.27712  -0.27269  -0.27264  -0.26051  -0.25213
  Beta virt. eigenvalues --   -0.11939  -0.06205  -0.04819  -0.03239  -0.03035
  Beta virt. eigenvalues --   -0.02711  -0.00688  -0.00099   0.00840   0.01011
  Beta virt. eigenvalues --    0.01426   0.01769   0.01818   0.02633   0.02756

 Mulliken charges and spin densities:
               1          2
     1  C   -0.518181   0.037388
     2  C   -0.474003   0.124489
     3  C    0.459231   0.089313
     4  C   -0.537498   0.035921
     5  C   -0.478955   0.124886
     6  C    0.431117   0.090334
     7  O   -0.364323   0.271046
     8  O   -0.363175   0.271723
     9  S    0.459975  -0.031490
    10  C    0.517090   0.009433
    11  C   -0.179744   0.015260
    12  C   -0.085281  -0.004233
    13  C   -0.528845  -0.001021
    14  C   -0.400684  -0.003294
    15  C   -0.321337   0.000785
    16  O   -0.220731   0.005611
    17  O   -0.232877  -0.002695
    18  H    0.263633   0.000243
    19  H    0.245279   0.000736
    20  H    0.216771  -0.000023
    21  H    0.214283   0.000028
    22  H    0.195010  -0.000061
    23  S    0.493026  -0.030695
    24  C    0.504579   0.010371
    25  C   -0.094406  -0.005650
    26  C   -0.176583   0.014828
    27  C   -0.385039  -0.003008
    28  C   -0.522840  -0.000841
    29  C   -0.327324   0.000536
    30  H    0.265931  -0.011957
    31  H    0.268258  -0.012005
    32  H    0.245735   0.000692
    33  H    0.259128   0.000395
    34  H    0.217067  -0.000027
    35  H    0.215143   0.000031
    36  H    0.194516  -0.000050
    37  O   -0.223348   0.005675
    38  O   -0.230597  -0.002673
 Sum of Mulliken charges =  -1.00000   1.00000

 Dipole moment (field-independent basis, Debye):
    X=             -1.9240    Y=              7.0530    Z=              7.9109  Tot=             10.7717
 Quadrupole moment (field-independent basis, Debye-Ang):
   XX=           -201.3220   YY=           -149.7805   ZZ=           -189.5906
   XY=             -6.1033   XZ=            -19.3191   YZ=             12.3436

  Exact polarizability: 424.079  58.398 391.766 -64.772 -34.491 385.299
 Approx polarizability: 424.207  59.534 463.252 -93.666 -63.669 476.942

                      1                      2                      3
                      A                      A                      A
 Frequencies --     15.6923                18.6169                25.7368
 Red. masses --      5.0351                 5.9133                 4.2223
 Frc consts  --      0.0007                 0.0012                 0.0016
 IR Inten    --      0.8199                 0.2843                 0.1558

                      4                      5                      6
                      A                      A                      A
 Frequencies --     36.4654                40.2763                56.7844
 Red. masses --      5.0588                 7.7184                 7.3334
 Frc consts  --      0.0040                 0.0074                 0.0139
 IR Inten    --      0.0374                 4.4321                 2.5879

                      7                      8                      9
                      A                      A                      A
 Frequencies --     81.5791               123.0545               153.8372
 Red. masses --      8.8257                11.2276                 9.2892
 Frc consts  --      0.0346                 0.1002                 0.1295
 IR Inten    --      1.5305                 1.3403                25.9353

                     10                     11                     12
                      A                      A                      A
 Frequencies --    155.9529               169.8112               178.4334
 Red. masses --      6.1054                 7.5334                 8.2508
 Frc consts  --      0.0875                 0.1280                 0.1548
 IR Inten    --      8.9767                 0.3900                 0.3662

                     13                     14                     15
                      A                      A                      A
 Frequencies --    182.6847               189.9815               241.1624
 Red. masses --      6.8222                 8.9227                 5.7480
 Frc consts  --      0.1341                 0.1897                 0.1970
 IR Inten    --      3.1070                 0.0263                 1.1162

                     16                     17                     18
                      A                      A                      A
 Frequencies --    244.1675               274.7031               277.9577
 Red. masses --      8.1872                12.7903                 9.6941
 Frc consts  --      0.2876                 0.5687                 0.4413
 IR Inten    --      0.0992                 0.3026                 7.3842

                     19                     20                     21
                      A                      A                      A
 Frequencies --    294.3091               302.6668               305.4881
 Red. masses --     12.2487                 8.4766                 9.6689
 Frc consts  --      0.6251                 0.4575                 0.5316
 IR Inten    --      6.4731                 8.4229                 2.6022

                     22                     23                     24
                      A                      A                      A
 Frequencies --    363.3879               388.8487               409.3109
 Red. masses --      8.0329                 6.1624                 2.8612
 Frc consts  --      0.6250                 0.5490                 0.2824
 IR Inten    --     10.9276                 0.9743                 0.0389

                     25                     26                     27
                      A                      A                      A
 Frequencies --    410.1244               428.9445               430.2426
 Red. masses --      2.8749                11.5535                 4.5417
 Frc consts  --      0.2849                 1.2525                 0.4953
 IR Inten    --      0.3403                40.2934                 0.2268

                     28                     29                     30
                      A                      A                      A
 Frequencies --    449.4426               456.7759               480.3382
 Red. masses --      7.7369                 5.3384                10.6697
 Frc consts  --      0.9208                 0.6562                 1.4504
 IR Inten    --     48.4213                 1.4629                 1.3998

                     31                     32                     33
                      A                      A                      A
 Frequencies --    485.7791               516.3936               544.2172
 Red. masses --      5.0432                 7.5380                12.5619
 Frc consts  --      0.7012                 1.1843                 2.1920
 IR Inten    --     19.7343               161.0147                40.0676

                     34                     35                     36
                      A                      A                      A
 Frequencies --    565.0474               596.9832               621.0928
 Red. masses --      7.9600                 9.5511                 5.8505
 Frc consts  --      1.4974                 2.0055                 1.3297
 IR Inten    --     68.4686               831.7880                 0.5665

                     37                     38                     39
                      A                      A                      A
 Frequencies --    625.5509               625.6784               684.7096
 Red. masses --      6.4575                 6.4523                 6.8166
 Frc consts  --      1.4888                 1.4882                 1.8829
 IR Inten    --      0.4205                 0.0198                15.3469

                     40                     41                     42
                      A                      A                      A
 Frequencies --    695.4149               697.4269               698.5927
 Red. masses --      5.5936                 2.1674                 2.1332
 Frc consts  --      1.5938                 0.6211                 0.6134
 IR Inten    --      7.2911               102.8558                44.1329

                     43                     44                     45
                      A                      A                      A
 Frequencies --    714.8539               730.5550               733.4131
 Red. masses --      7.0547                 7.7948                 3.3859
 Frc consts  --      2.1240                 2.4511                 1.0730
 IR Inten    --    141.0709                98.8354                 4.7316

                     46                     47                     48
                      A                      A                      A
 Frequencies --    762.9571               763.8872               845.1455
 Red. masses --      1.6293                 1.6574                 5.3532
 Frc consts  --      0.5588                 0.5698                 2.2528
 IR Inten    --     41.7642                11.1787                20.8104

                     49                     50                     51
                      A                      A                      A
 Frequencies --    850.7928               852.1374               890.2744
 Red. masses --      1.2576                 1.2467                 1.5602
 Frc consts  --      0.5364                 0.5334                 0.7286
 IR Inten    --      0.1708                 0.0437                 1.2788

                     52                     53                     54
                      A                      A                      A
 Frequencies --    916.6105               925.4112               942.4791
 Red. masses --      1.5076                 9.2903                 1.3516
 Frc consts  --      0.7463                 4.6876                 0.7073
 IR Inten    --     52.1609                19.7991                 0.7285

                     55                     56                     57
                      A                      A                      A
 Frequencies --    943.0728               994.3290               995.4629
 Red. masses --      1.3499                 1.3927                 1.3888
 Frc consts  --      0.7073                 0.8113                 0.8108
 IR Inten    --      1.5927                 0.2414                 0.1821

                     58                     59                     60
                      A                      A                      A
 Frequencies --   1002.0930              1012.1020              1013.9497
 Red. masses --      3.5739                 6.0011                 4.9819
 Frc consts  --      2.1145                 3.6218                 3.0177
 IR Inten    --     16.4937                16.2689                 7.7148

                     61                     62                     63
                      A                      A                      A
 Frequencies --   1017.4750              1017.8064              1035.8699
 Red. masses --      1.3272                 1.3304                 4.1191
 Frc consts  --      0.8096                 0.8120                 2.6041
 IR Inten    --      0.1919                 0.1245                64.0976

                     64                     65                     66
                      A                      A                      A
 Frequencies --   1037.7101              1057.0454              1057.3772
 Red. masses --      3.4352                 3.6163                 3.6718
 Frc consts  --      2.1795                 2.3807                 2.4188
 IR Inten    --     80.0616               311.9967               167.5606

                     67                     68                     69
                      A                      A                      A
 Frequencies --   1097.6077              1098.1225              1102.2185
 Red. masses --      1.5702                 1.6297                 3.7153
 Frc consts  --      1.1145                 1.1579                 2.6594
 IR Inten    --     20.6794                32.3943               117.8785

                     70                     71                     72
                      A                      A                      A
 Frequencies --   1102.5748              1155.9421              1180.2755
 Red. masses --      3.7887                 9.2186                 1.1111
 Frc consts  --      2.7136                 7.2575                 0.9119
 IR Inten    --    294.4458                 1.4717                 0.2155

                     73                     74                     75
                      A                      A                      A
 Frequencies --   1181.0957              1193.7473              1194.8254
 Red. masses --      1.1123                 1.1542                 1.1534
 Frc consts  --      0.9142                 0.9691                 0.9702
 IR Inten    --      0.2000                 3.5991                 2.9074

                     76                     77                     78
                      A                      A                      A
 Frequencies --   1208.5705              1211.1445              1221.8928
 Red. masses --      6.3422                17.3586                 1.5565
 Frc consts  --      5.4580                15.0022                 1.3692
 IR Inten    --    196.1235               493.8847                32.0368

                     79                     80                     81
                      A                      A                      A
 Frequencies --   1303.8668              1329.5192              1329.6098
 Red. masses --      2.1702                 2.9920                 2.9906
 Frc consts  --      2.1737                 3.1160                 3.1150
 IR Inten    --     64.9216                 0.1163                 1.2659

                     82                     83                     84
                      A                      A                      A
 Frequencies --   1342.0067              1342.8580              1403.0607
 Red. masses --      1.8266                 1.7979                 6.0377
 Frc consts  --      1.9383                 1.9102                 7.0028
 IR Inten    --      7.3162                 7.5874                 3.4733

                     85                     86                     87
                      A                      A                      A
 Frequencies --   1473.9903              1474.1513              1477.8852
 Red. masses --      2.1484                 2.1329                 4.7127
 Frc consts  --      2.7501                 2.7309                 6.0646
 IR Inten    --     35.6883                18.8708               198.0085

                     88                     89                     90
                      A                      A                      A
 Frequencies --   1504.0462              1504.2382              1509.2543
 Red. masses --      2.0280                 2.0225                12.3804
 Frc consts  --      2.7029                 2.6963                16.6154
 IR Inten    --      5.1325                 6.9075                 2.0804

                     91                     92                     93
                      A                      A                      A
 Frequencies --   1521.6697              1617.4085              1617.5828
 Red. masses --     11.2327                 5.4154                 5.3938
 Frc consts  --     15.3241                 8.3467                 8.3153
 IR Inten    --   1163.9116                 2.6854                 2.4589

                     94                     95                     96
                      A                      A                      A
 Frequencies --   1621.2373              1621.9012              1626.1187
 Red. masses --      5.9759                 5.8517                 7.7732
 Frc consts  --      9.2543                 9.0694                12.1103
 IR Inten    --      0.1188                 0.6690                 0.8150

                     97                     98                     99
                      A                      A                      A
 Frequencies --   3174.7830              3174.8331              3184.9920
 Red. masses --      1.0868                 1.0868                 1.0899
 Frc consts  --      6.4542                 6.4540                 6.5139
 IR Inten    --      0.6756                 0.6663                14.1817

                    100                    101                    102
                      A                      A                      A
 Frequencies --   3185.1889              3193.4504              3193.8388
 Red. masses --      1.0901                 1.0941                 1.0945
 Frc consts  --      6.5159                 6.5742                 6.5782
 IR Inten    --     14.7833                14.5390                15.9074

                    103                    104                    105
                      A                      A                      A
 Frequencies --   3194.4542              3196.3957              3202.4149
 Red. masses --      1.0896                 1.0904                 1.0957
 Frc consts  --      6.5511                 6.5638                 6.6206
 IR Inten    --     25.2576                 0.5609                 8.8390

                    106                    107                    108
                      A                      A                      A
 Frequencies --   3204.0029              3220.5987              3222.7945
 Red. masses --      1.0951                 1.0930                 1.0928
 Frc consts  --      6.6237                 6.6792                 6.6875
 IR Inten    --      7.9033                 3.3274                 3.1325

 - Thermochemistry -
 -------------------
 Temperature   298.150 Kelvin.  Pressure   1.00000 Atm.
 Atom     1 has atomic number  6 and mass  12.00000

 Molecular mass:   388.00753 amu.
 Principal axes and moments of inertia in atomic units:
                           1         2         3
     Eigenvalues --  5356.37602********************
           X            0.96347  -0.24271   0.11325
           Y            0.26701   0.83746  -0.47683
           Z            0.02089   0.48965   0.87167
 This molecule is an asymmetric top.
 Rotational symmetry number  1.
 Warning -- assumption of classical behavior for rotation
           may cause significant error
 Rotational temperatures (Kelvin)      0.01617     0.00465     0.00434
 Rotational constants (GHZ):           0.33693     0.09697     0.09052
 Zero-point vibrational energy     691277.9 (Joules/Mol)
                                  165.21939 (Kcal/Mol)
 Warning -- explicit consideration of  35 degrees of freedom as
           vibrations may cause significant error
 Vibrational temperatures:     22.58    26.79    37.03    52.47    57.95
          (Kelvin)             81.70   117.37   177.05   221.34   224.38
                              244.32   256.73   262.84   273.34   346.98
                              351.30   395.24   399.92   423.45   435.47
                              439.53   522.83   559.47   588.91   590.08
                              617.16   619.02   646.65   657.20   691.10
                              698.93   742.98   783.01   812.98   858.93
                              893.61   900.03   900.21   985.14  1000.55
                             1003.44  1005.12  1028.52  1051.11  1055.22
                             1097.73  1099.06  1215.98  1224.10  1226.04
                             1280.91  1318.80  1331.46  1356.02  1356.87
                             1430.62  1432.25  1441.79  1456.19  1458.85
                             1463.92  1464.40  1490.39  1493.03  1520.85
                             1521.33  1579.21  1579.95  1585.85  1586.36
                             1663.14  1698.15  1699.33  1717.54  1719.09
                             1738.86  1742.57  1758.03  1875.97  1912.88
                             1913.01  1930.85  1932.07  2018.69  2120.74
                             2120.97  2126.35  2163.99  2164.26  2171.48
                             2189.34  2327.09  2327.34  2332.60  2333.55
                             2339.62  4567.80  4567.88  4582.49  4582.78
                             4594.66  4595.22  4596.11  4598.90  4607.56
                             4609.85  4633.72  4636.88

 Zero-point correction=                           0.263294 (Hartree/Particle)
 Thermal correction to Energy=                    0.285743
 Thermal correction to Enthalpy=                  0.286687
 Thermal correction to Gibbs Free Energy=         0.207695
 Sum of electronic and zero-point Energies=          -1940.978449
 Sum of electronic and thermal Energies=             -1940.956000
 Sum of electronic and thermal Enthalpies=           -1940.955055
 Sum of electronic and thermal Free Energies=        -1941.034048

                     E (Thermal)             CV                S
                      KCal/Mol        Cal/Mol-Kelvin    Cal/Mol-Kelvin
 Total                  179.306             85.940            166.254
 Electronic               0.000              0.000              1.377
 Translational            0.889              2.981             43.760
 Rotational               0.889              2.981             35.940
 Vibrational            177.529             79.978             85.177
 Vibration     1          0.593              1.986              7.116
 Vibration     2          0.593              1.986              6.777
 Vibration     3          0.593              1.985              6.134
 Vibration     4          0.594              1.982              5.442
 Vibration     5          0.594              1.981              5.245
 Vibration     6          0.596              1.975              4.566
 Vibration     7          0.600              1.962              3.853
 Vibration     8          0.610              1.930              3.052
 Vibration     9          0.619              1.898              2.624
 Vibration    10          0.620              1.896              2.598
 Vibration    11          0.625              1.880              2.438
 Vibration    12          0.629              1.869              2.345
 Vibration    13          0.630              1.863              2.301
 Vibration    14          0.633              1.854              2.228
 Vibration    15          0.658              1.777              1.794
 Vibration    16          0.659              1.772              1.772
 Vibration    17          0.677              1.720              1.566
 Vibration    18          0.679              1.714              1.546
 Vibration    19          0.689              1.684              1.449
 Vibration    20          0.694              1.669              1.402
 Vibration    21          0.696              1.663              1.387
 Vibration    22          0.737              1.548              1.108
 Vibration    23          0.757              1.494              1.005
 Vibration    24          0.774              1.450              0.929
 Vibration    25          0.774              1.448              0.926
 Vibration    26          0.790              1.407              0.862
 Vibration    27          0.791              1.404              0.858
 Vibration    28          0.808              1.362              0.797
 Vibration    29          0.815              1.346              0.776
 Vibration    30          0.837              1.294              0.709
 Vibration    31          0.842              1.282              0.695
 Vibration    32          0.871              1.214              0.618
 Vibration    33          0.899              1.152              0.556
 Vibration    34          0.921              1.107              0.514
 Vibration    35          0.955              1.038              0.455

                           ! Non-Optimized Parameters !
 Normal termination of Gaussian 16 at Sat Feb 10 15:34:29 2024.
