 Gaussian 16, Revision A.03,
 Gaussian 16:  ES64L-G16RevA.03 25-Dec-2016

 ----------------------------------------------------------------------
 #P UB3LYP/6-311++G(d,p) nosym opt freq SCRF=(PCM,Solvent=n,n-DiMethylF
 ormamide)
 ----------------------------------------------------------------------

 --------
 Oxidized
 --------
 Symbolic Z-matrix:
 Charge =  0 Multiplicity = 1

 SCF Done:  E(UB3LYP) =  -1161.31700176     A.U. after   17 cycles
 SCF Done:  E(UB3LYP) =  -1161.31716212     A.U. after   18 cycles
 SCF Done:  E(UB3LYP) =  -1161.31748813     A.U. after   17 cycles
 SCF Done:  E(UB3LYP) =  -1161.31757694     A.U. after   14 cycles
 SCF Done:  E(UB3LYP) =  -1161.31764087     A.U. after   15 cycles
 SCF Done:  E(UB3LYP) =  -1161.31763670     A.U. after   14 cycles
 SCF Done:  E(UB3LYP) =  -1161.31764457     A.U. after   13 cycles
 SCF Done:  E(UB3LYP) =  -1161.31764646     A.U. after   11 cycles
 SCF Done:  E(UB3LYP) =  -1161.31764649     A.U. after   10 cycles
 Optimization completed.
    -- Stationary point found.
 Normal termination of Gaussian 16 at Sat Feb 10 11:15:52 2024.

 ----------------------------------------------------------------------
 #P Geom=AllCheck Guess=TCheck SCRF=Check GenChk UB3LYP/6-311++G(d,p) F
 req
 ----------------------------------------------------------------------

 Structure from the checkpoint file:  "066.chk"
 --------
 Oxidized
 --------
 Charge =  0 Multiplicity = 1

                          Input orientation:
 ---------------------------------------------------------------------
 Center     Atomic      Atomic             Coordinates (Angstroms)
 Number     Number       Type             X           Y           Z
 ---------------------------------------------------------------------
      1          6           0        1.218201   -0.638257    1.826626
      2          6           0        0.768998   -1.679493    0.871167
      3          6           0       -0.337770   -1.538874    0.130463
      4          6           0       -1.169586   -0.320753    0.226596
      5          6           0       -0.727711    0.744323    1.172866
      6          6           0        0.382697    0.598060    1.903105
      7          8           0        2.208550   -0.796804    2.517821
      8          8           0       -2.183552   -0.173428   -0.436042
      9         16           0        0.897735    1.977915    2.981271
     10          6           0        0.826362    1.337921    4.655720
     11          6           0       -0.401905    1.335613    5.318116
     12          6           0        1.996305    0.883987    5.261840
     13          6           0        1.928258    0.414242    6.571323
     14          6           0       -0.453715    0.855482    6.623988
     15          6           0        0.707910    0.397788    7.247712
     16          8           0        2.287352    2.316105    2.645787
     17          8           0       -0.145796    3.005165    2.837098
     18          1           0        1.392428   -2.564614    0.820251
     19          1           0       -0.671089   -2.301150   -0.563809
     20          1           0       -1.341627    1.635388    1.234067
     21          1           0       -1.292684    1.708132    4.828813
     22          1           0        2.932539    0.900824    4.721178
     23          1           0        2.828241    0.063263    7.061549
     24          1           0       -1.398044    0.847278    7.154616
     25          1           0        0.661820    0.028426    8.265498
 ---------------------------------------------------------------------

 SCF Done:  E(UB3LYP) =  -1161.31764649     A.U. after    2 cycles

 Alpha  occ. eigenvalues --  -89.07738 -19.16069 -19.16041 -19.14076 -19.14036
 Alpha  occ. eigenvalues --  -10.31141 -10.30600 -10.25585 -10.24129 -10.23066
 Alpha  occ. eigenvalues --  -10.22713 -10.22547 -10.20917 -10.20756 -10.20088
 Alpha  occ. eigenvalues --  -10.19877 -10.19837  -8.14111  -6.10375  -6.10304
 Alpha  occ. eigenvalues --   -6.10212  -1.13498  -1.09224  -1.08875  -1.02997
 Alpha  occ. eigenvalues --   -0.89268  -0.88836  -0.82480  -0.79536  -0.77754
 Alpha  occ. eigenvalues --   -0.73899  -0.70575  -0.65588  -0.64109  -0.63607
 Alpha  occ. eigenvalues --   -0.60107  -0.56102  -0.54641  -0.53365  -0.51799
 Alpha  occ. eigenvalues --   -0.50054  -0.49564  -0.49308  -0.47192  -0.46970
 Alpha  occ. eigenvalues --   -0.46802  -0.46562  -0.45217  -0.45008  -0.43854
 Alpha  occ. eigenvalues --   -0.42964  -0.40088  -0.39319  -0.37474  -0.36677
 Alpha  occ. eigenvalues --   -0.35304  -0.34078  -0.33140  -0.33014  -0.32165
 Alpha  occ. eigenvalues --   -0.30973  -0.29545  -0.28679  -0.28227
 Alpha virt. eigenvalues --   -0.15605  -0.07079  -0.04657  -0.03739  -0.02419
 Alpha virt. eigenvalues --   -0.00860   0.00290   0.00775   0.01330   0.01922
 Alpha virt. eigenvalues --    0.02158   0.03192   0.03339   0.03372   0.04884

  Beta  occ. eigenvalues --  -89.07738 -19.16069 -19.16041 -19.14076 -19.14036
  Beta  occ. eigenvalues --  -10.31141 -10.30600 -10.25585 -10.24129 -10.23066
  Beta  occ. eigenvalues --  -10.22713 -10.22547 -10.20917 -10.20756 -10.20088
  Beta  occ. eigenvalues --  -10.19877 -10.19837  -8.14111  -6.10375  -6.10304
  Beta  occ. eigenvalues --   -6.10212  -1.13498  -1.09224  -1.08875  -1.02997
  Beta  occ. eigenvalues --   -0.89268  -0.88836  -0.82480  -0.79536  -0.77754
  Beta  occ. eigenvalues --   -0.73899  -0.70575  -0.65588  -0.64109  -0.63607
  Beta  occ. eigenvalues --   -0.60107  -0.56102  -0.54641  -0.53365  -0.51799
  Beta  occ. eigenvalues --   -0.50054  -0.49564  -0.49308  -0.47192  -0.46970
  Beta  occ. eigenvalues --   -0.46802  -0.46562  -0.45217  -0.45008  -0.43854
  Beta  occ. eigenvalues --   -0.42964  -0.40088  -0.39319  -0.37474  -0.36677
  Beta  occ. eigenvalues --   -0.35304  -0.34078  -0.33140  -0.33014  -0.32165
  Beta  occ. eigenvalues --   -0.30973  -0.29545  -0.28679  -0.28227
  Beta virt. eigenvalues --   -0.15605  -0.07079  -0.04657  -0.03739  -0.02419
  Beta virt. eigenvalues --   -0.00860   0.00290   0.00775   0.01330   0.01922
  Beta virt. eigenvalues --    0.02158   0.03192   0.03339   0.03372   0.04884

 Mulliken charges and spin densities:
               1          2
     1  C   -0.810026   0.000000
     2  C    0.130571  -0.000000
     3  C    0.218190   0.000000
     4  C   -0.528659   0.000000
     5  C   -0.014889   0.000000
     6  C    0.392602  -0.000000
     7  O   -0.202065   0.000000
     8  O   -0.247767  -0.000000
     9  S    0.434412   0.000000
    10  C    0.711848  -0.000000
    11  C   -0.184356  -0.000000
    12  C   -0.232743   0.000000
    13  C   -0.411908  -0.000000
    14  C   -0.484829   0.000000
    15  C   -0.329238  -0.000000
    16  O   -0.203830   0.000000
    17  O   -0.213693  -0.000000
    18  H    0.259123  -0.000000
    19  H    0.259244  -0.000000
    20  H    0.307946  -0.000000
    21  H    0.242580  -0.000000
    22  H    0.265749   0.000000
    23  H    0.222157  -0.000000
    24  H    0.219683   0.000000
    25  H    0.199899  -0.000000
 Sum of Mulliken charges =  -0.00000   0.00000

 Dipole moment (field-independent basis, Debye):
    X=             -1.6451    Y=             -6.2492    Z=              3.1390  Tot=              7.1842
 Quadrupole moment (field-independent basis, Debye-Ang):
   XX=           -116.8677   YY=           -118.2726   ZZ=            -68.0928
   XY=             -7.2718   XZ=             -9.9273   YZ=            -10.4302

  Exact polarizability: 260.065 -18.001 174.887  57.719  -6.079 266.032
 Approx polarizability: 356.130 -31.530 195.085  82.244 -21.623 296.587

                      1                      2                      3
                      A                      A                      A
 Frequencies --     28.1308                36.6318                51.7292
 Red. masses --      5.3825                 5.9720                 5.2803
 Frc consts  --      0.0025                 0.0047                 0.0083
 IR Inten    --      0.2062                 0.6435                 3.4100

                      4                      5                      6
                      A                      A                      A
 Frequencies --     85.5947               135.9901               153.0663
 Red. masses --      8.2285                 6.7662                10.0254
 Frc consts  --      0.0355                 0.0737                 0.1384
 IR Inten    --     10.6748                14.6409                 2.1365

                      7                      8                      9
                      A                      A                      A
 Frequencies --    178.0215               205.6455               235.0472
 Red. masses --      6.6847                 5.6592                 8.4869
 Frc consts  --      0.1248                 0.1410                 0.2763
 IR Inten    --      1.1965                 1.0264                 1.4809

                     10                     11                     12
                      A                      A                      A
 Frequencies --    272.5780               280.8960               303.5419
 Red. masses --      8.8211                 6.6110                 8.4837
 Frc consts  --      0.3861                 0.3073                 0.4605
 IR Inten    --      0.5958                 0.8063                 5.0679

                     13                     14                     15
                      A                      A                      A
 Frequencies --    372.3453               409.4154               417.7566
 Red. masses --      4.9678                 2.8599                 6.8110
 Frc consts  --      0.4058                 0.2824                 0.7003
 IR Inten    --      6.5629                 0.0426                22.0764

                     16                     17                     18
                      A                      A                      A
 Frequencies --    426.7725               450.4812               466.8839
 Red. masses --      8.6906                 5.8325                 8.5532
 Frc consts  --      0.9326                 0.6974                 1.0985
 IR Inten    --     32.9323                17.5779                 5.2312

                     19                     20                     21
                      A                      A                      A
 Frequencies --    506.1646               533.0035               585.5448
 Red. masses --      5.6603                 6.6721                 6.1365
 Frc consts  --      0.8544                 1.1168                 1.2396
 IR Inten    --     70.1620               112.2372               155.5210

                     22                     23                     24
                      A                      A                      A
 Frequencies --    610.9207               624.5419               647.8457
 Red. masses --      2.9776                 6.4565                 7.5058
 Frc consts  --      0.6548                 1.4838                 1.8561
 IR Inten    --     34.6012                 0.1399                44.8374

                     25                     26                     27
                      A                      A                      A
 Frequencies --    695.9817               717.6074               763.6128
 Red. masses --      2.1147                 6.6321                 1.6080
 Frc consts  --      0.6035                 2.0122                 0.5524
 IR Inten    --     63.9637                76.7158                39.2932

                     28                     29                     30
                      A                      A                      A
 Frequencies --    784.8136               793.9336               825.4824
 Red. masses --      3.9220                 5.5633                 5.7415
 Frc consts  --      1.4233                 2.0661                 2.3051
 IR Inten    --      0.8226                 4.4825                32.7227

                     31                     32                     33
                      A                      A                      A
 Frequencies --    845.3608               851.2309               946.9628
 Red. masses --      2.0564                 1.2494                 1.3403
 Frc consts  --      0.8659                 0.5334                 0.7081
 IR Inten    --     81.5186                 0.2170                 0.3162

                     34                     35                     36
                      A                      A                      A
 Frequencies --    956.7044               981.6326               997.4026
 Red. masses --      1.5214                 4.2327                 1.3789
 Frc consts  --      0.8204                 2.4031                 0.8082
 IR Inten    --     40.8907                30.7515                 0.0122

                     37                     38                     39
                      A                      A                      A
 Frequencies --   1012.2743              1014.4274              1020.5200
 Red. masses --      6.1840                 1.2614                 1.3210
 Frc consts  --      3.7335                 0.7648                 0.8106
 IR Inten    --     11.2496                 0.0789                 0.1064

                     40                     41                     42
                      A                      A                      A
 Frequencies --   1036.8028              1062.2564              1100.1287
 Red. masses --      3.6238                 3.4233                 1.5752
 Frc consts  --      2.2951                 2.2759                 1.1232
 IR Inten    --     29.8175               120.7008                20.4587

                     43                     44                     45
                      A                      A                      A
 Frequencies --   1104.8448              1108.2634              1182.3649
 Red. masses --      4.2541                 1.6867                 1.1099
 Frc consts  --      3.0596                 1.2206                 0.9142
 IR Inten    --    285.7594               115.7711                 0.4135

                     46                     47                     48
                      A                      A                      A
 Frequencies --   1195.0802              1205.2593              1238.8284
 Red. masses --      1.1567                 1.6144                16.0992
 Frc consts  --      0.9733                 1.3817                14.5571
 IR Inten    --      3.2661                22.6208               349.9652

                     49                     50                     51
                      A                      A                      A
 Frequencies --   1280.7407              1329.6348              1332.4034
 Red. masses --      2.9713                 2.3480                 2.5622
 Frc consts  --      2.8716                 2.4458                 2.6800
 IR Inten    --    140.7714                36.1389                18.4828

                     52                     53                     54
                      A                      A                      A
 Frequencies --   1344.2548              1388.8779              1475.2628
 Red. masses --      1.8756                 1.8007                 2.1286
 Frc consts  --      1.9969                 2.0465                 2.7295
 IR Inten    --      8.5676                 5.3378                28.3633

                     55                     56                     57
                      A                      A                      A
 Frequencies --   1503.4676              1615.8206              1621.2615
 Red. masses --      2.0067                 5.3783                 5.7802
 Frc consts  --      2.6725                 8.2734                 8.9516
 IR Inten    --      3.8106                 8.7604                 0.1352

                     58                     59                     60
                      A                      A                      A
 Frequencies --   1641.0705              1674.4920              1709.2704
 Red. masses --      8.4875                 8.8968                11.3061
 Frc consts  --     13.4674                14.6976                19.4619
 IR Inten    --     38.5005                 8.6311              1063.8093

                     61                     62                     63
                      A                      A                      A
 Frequencies --   1716.6117              3178.9064              3188.9073
 Red. masses --     10.2116                 1.0871                 1.0882
 Frc consts  --     17.7291                 6.4728                 6.5199
 IR Inten    --     20.3042                 0.9041                 0.9989

                     64                     65                     66
                      A                      A                      A
 Frequencies --   3189.4181              3197.3302              3199.2139
 Red. masses --      1.0901                 1.0944                 1.0927
 Frc consts  --      6.5331                 6.5918                 6.5891
 IR Inten    --     11.6687                11.0010                 8.5898

                     67                     68                     69
                      A                      A                      A
 Frequencies --   3204.2589              3207.2657              3219.6341
 Red. masses --      1.0995                 1.0953                 1.0935
 Frc consts  --      6.6514                 6.6385                 6.6788
 IR Inten    --      1.2193                 6.1384                 4.0855

 - Thermochemistry -
 -------------------
 Temperature   298.150 Kelvin.  Pressure   1.00000 Atm.
 Atom     1 has atomic number  6 and mass  12.00000

 Molecular mass:   248.01433 amu.
 Principal axes and moments of inertia in atomic units:
                           1         2         3
     Eigenvalues --  2365.905226184.695396446.07840
           X            0.26235  -0.47226   0.84151
           Y            0.25298   0.87522   0.41231
           Z            0.93122  -0.10471  -0.34909
 This molecule is an asymmetric top.
 Rotational symmetry number  1.
 Warning -- assumption of classical behavior for rotation
           may cause significant error
 Rotational temperatures (Kelvin)      0.03661     0.01400     0.01344
 Rotational constants (GHZ):           0.76281     0.29181     0.27998
 Zero-point vibrational energy     458638.9 (Joules/Mol)
                                  109.61732 (Kcal/Mol)
 Warning -- explicit consideration of  22 degrees of freedom as
           vibrations may cause significant error
 Vibrational temperatures:     40.47    52.71    74.43   123.15   195.66
          (Kelvin)            220.23   256.13   295.88   338.18   392.18
                              404.15   436.73   535.72   589.06   601.06
                              614.03   648.14   671.74   728.26   766.87
                              842.47   878.98   898.58   932.11  1001.36
                             1032.48  1098.67  1129.17  1142.29  1187.69
                             1216.29  1224.73  1362.47  1376.48  1412.35
                             1435.04  1456.44  1459.53  1468.30  1491.73
                             1528.35  1582.84  1589.63  1594.54  1701.16
                             1719.45  1734.10  1782.40  1842.70  1913.05
                             1917.03  1934.08  1998.29  2122.57  2163.15
                             2324.81  2332.63  2361.13  2409.22  2459.26
                             2469.82  4573.74  4588.13  4588.86  4600.25
                             4602.96  4610.21  4614.54  4632.34

 Zero-point correction=                           0.174686 (Hartree/Particle)
 Thermal correction to Energy=                    0.189107
 Thermal correction to Enthalpy=                  0.190051
 Thermal correction to Gibbs Free Energy=         0.131662
 Sum of electronic and zero-point Energies=          -1161.142960
 Sum of electronic and thermal Energies=             -1161.128540
 Sum of electronic and thermal Enthalpies=           -1161.127596
 Sum of electronic and thermal Free Energies=        -1161.185985

                     E (Thermal)             CV                S
                      KCal/Mol        Cal/Mol-Kelvin    Cal/Mol-Kelvin
 Total                  118.666             54.698            122.890
 Electronic               0.000              0.000              0.000
 Translational            0.889              2.981             42.426
 Rotational               0.889              2.981             32.911
 Vibrational            116.889             48.737             47.554
 Vibration     1          0.593              1.984              5.957
 Vibration     2          0.594              1.982              5.433
 Vibration     3          0.596              1.977              4.750
 Vibration     4          0.601              1.959              3.758
 Vibration     5          0.614              1.917              2.860
 Vibration     6          0.619              1.899              2.634
 Vibration     7          0.628              1.869              2.349
 Vibration     8          0.640              1.832              2.082
 Vibration     9          0.655              1.787              1.840
 Vibration    10          0.676              1.724              1.580
 Vibration    11          0.681              1.709              1.528
 Vibration    12          0.695              1.667              1.397
 Vibration    13          0.744              1.529              1.070
 Vibration    14          0.774              1.450              0.929
 Vibration    15          0.781              1.432              0.900
 Vibration    16          0.788              1.412              0.869
 Vibration    17          0.809              1.360              0.794
 Vibration    18          0.824              1.324              0.746
 Vibration    19          0.861              1.236              0.643
 Vibration    20          0.888              1.177              0.581
 Vibration    21          0.943              1.063              0.475
 Vibration    22          0.970              1.009              0.431

 Optimization completed.
    -- Stationary point found.
 Normal termination of Gaussian 16 at Sat Feb 10 12:02:16 2024.
