 Gaussian 16, Revision A.03,
 Gaussian 16:  ES64L-G16RevA.03 25-Dec-2016

 ----------------------------------------------------------------
 #P UB3LYP/6-311++G(d,p) SCRF=(PCM,Solvent=n,n-DiMethylFormamide)
 ----------------------------------------------------------------

 ------------------
 Quinone PCM in DMF
 ------------------
 Symbolic Z-matrix:
 Charge =  0 Multiplicity = 1

                         Standard orientation:
 ---------------------------------------------------------------------
 Center     Atomic      Atomic             Coordinates (Angstroms)
 Number     Number       Type             X           Y           Z
 ---------------------------------------------------------------------
      1          6           0       -3.796289    0.586171    0.446132
      2          6           0       -4.624419   -0.531807    0.468240
      3          6           0       -4.101628   -1.793133    0.177073
      4          6           0       -2.443052    0.439255    0.132201
      5          6           0       -1.914167   -0.828321   -0.161335
      6          6           0       -2.751967   -1.941884   -0.137155
      7          6           0       -1.552617    1.613765    0.103862
      8          6           0       -0.115303    1.401151   -0.231741
      9          6           0        0.416554    0.189451   -0.527261
     10          6           0       -0.460248   -1.000158   -0.501463
     11          8           0       -1.920066    2.759383    0.339676
     12          8           0       -0.018087   -2.111973   -0.755655
     13          1           0       -4.178664    1.575002    0.667898
     14          1           0       -5.674866   -0.422351    0.711709
     15          1           0       -4.748435   -2.662986    0.194953
     16          1           0       -2.330377   -2.912815   -0.365727
     17          8           0        0.617667    2.526491   -0.223998
     18          1           0        0.001107    3.249071    0.001005
     19          6           0        1.872851    0.003715   -0.849546
     20          6           0        2.709368   -0.349326    0.400446
     21          6           0        4.191209   -0.649631    0.107537
     22          6           0        4.883446   -1.181959    1.370375
     23          6           0        4.942534    0.569638   -0.446048
     24          1           0        2.251152    0.919125   -1.307718
     25          1           0        1.965223   -0.807936   -1.575916
     26          1           0        2.261752   -1.226895    0.877895
     27          1           0        2.643779    0.473655    1.122954
     28          1           0        4.223624   -1.442897   -0.651681
     29          1           0        5.927897   -1.438759    1.170169
     30          1           0        4.384678   -2.078104    1.750868
     31          1           0        4.873989   -0.430177    2.167443
     32          1           0        5.993598    0.328105   -0.629765
     33          1           0        4.912373    1.401111    0.267002
     34          1           0        4.519416    0.924082   -1.389174
 ---------------------------------------------------------------------

 SCF Done:  E(UB3LYP) =  -807.154630757     A.U. after   15 cycles

 The electronic state is 1-A.
 Alpha  occ. eigenvalues --  -19.18055 -19.15130 -19.13082 -10.29516 -10.28230
 Alpha  occ. eigenvalues --  -10.26886 -10.21285 -10.21156 -10.20563 -10.20350
 Alpha  occ. eigenvalues --  -10.20179 -10.20011 -10.19969 -10.17779 -10.17382
 Alpha  occ. eigenvalues --  -10.16825 -10.15540 -10.15527  -1.11057  -1.06908
 Alpha  occ. eigenvalues --   -1.06437  -0.89481  -0.84648  -0.81330  -0.78624
 Alpha  occ. eigenvalues --   -0.78196  -0.73904  -0.69626  -0.68344  -0.66302
 Alpha  occ. eigenvalues --   -0.64919  -0.61428  -0.60588  -0.57618  -0.56104
 Alpha  occ. eigenvalues --   -0.54459  -0.52114  -0.49955  -0.48239  -0.47441
 Alpha  occ. eigenvalues --   -0.46951  -0.46733  -0.45531  -0.45218  -0.44447
 Alpha  occ. eigenvalues --   -0.43220  -0.42595  -0.42000  -0.41002  -0.40757
 Alpha  occ. eigenvalues --   -0.39686  -0.38465  -0.38097  -0.37890  -0.37263
 Alpha  occ. eigenvalues --   -0.36621  -0.35337  -0.33229  -0.32637  -0.32302
 Alpha  occ. eigenvalues --   -0.30484  -0.29178  -0.28231  -0.28057  -0.25839
 Alpha virt. eigenvalues --   -0.12738  -0.05816  -0.02774  -0.01004  -0.00080
 Alpha virt. eigenvalues --    0.00335   0.01137   0.01415   0.01826   0.02239
 Alpha virt. eigenvalues --    0.02919   0.03314   0.03418   0.03984   0.04114

  Beta  occ. eigenvalues --  -19.18055 -19.15130 -19.13082 -10.29516 -10.28230
  Beta  occ. eigenvalues --  -10.26886 -10.21285 -10.21156 -10.20563 -10.20350
  Beta  occ. eigenvalues --  -10.20179 -10.20011 -10.19969 -10.17779 -10.17382
  Beta  occ. eigenvalues --  -10.16825 -10.15540 -10.15527  -1.11057  -1.06908
  Beta  occ. eigenvalues --   -1.06437  -0.89481  -0.84648  -0.81330  -0.78624
  Beta  occ. eigenvalues --   -0.78196  -0.73904  -0.69626  -0.68344  -0.66302
  Beta  occ. eigenvalues --   -0.64919  -0.61428  -0.60588  -0.57618  -0.56104
  Beta  occ. eigenvalues --   -0.54459  -0.52114  -0.49955  -0.48239  -0.47441
  Beta  occ. eigenvalues --   -0.46951  -0.46733  -0.45531  -0.45218  -0.44447
  Beta  occ. eigenvalues --   -0.43220  -0.42595  -0.42000  -0.41002  -0.40757
  Beta  occ. eigenvalues --   -0.39686  -0.38465  -0.38097  -0.37890  -0.37263
  Beta  occ. eigenvalues --   -0.36621  -0.35337  -0.33229  -0.32637  -0.32302
  Beta  occ. eigenvalues --   -0.30484  -0.29178  -0.28231  -0.28057  -0.25839
  Beta virt. eigenvalues --   -0.12738  -0.05816  -0.02774  -0.01004  -0.00080
  Beta virt. eigenvalues --    0.00335   0.01137   0.01415   0.01826   0.02239
  Beta virt. eigenvalues --    0.02919   0.03314   0.03418   0.03984   0.04114

 Mulliken charges and spin densities:
               1          2
     1  C    0.251396  -0.000000
     2  C   -0.402005   0.000000
     3  C   -0.392713   0.000000
     4  C    0.225856  -0.000000
     5  C    0.027757   0.000000
     6  C    0.208898   0.000000
     7  C   -0.748915   0.000000
     8  C   -0.572821   0.000000
     9  C    1.994644  -0.000000
    10  C   -0.918118   0.000000
    11  O   -0.310531   0.000000
    12  O   -0.270734   0.000000
    13  H    0.191630   0.000000
    14  H    0.210905   0.000000
    15  H    0.208363   0.000000
    16  H    0.188597  -0.000000
    17  O   -0.211646  -0.000000
    18  H    0.305872   0.000000
    19  C   -0.207270  -0.000000
    20  C   -0.702999   0.000000
    21  C    0.428533  -0.000000
    22  C   -0.634676   0.000000
    23  C   -0.649225  -0.000000
    24  H    0.217200  -0.000000
    25  H    0.214206   0.000000
    26  H    0.165974  -0.000000
    27  H    0.169605   0.000000
    28  H    0.142340  -0.000000
    29  H    0.152333  -0.000000
    30  H    0.137171  -0.000000
    31  H    0.142535   0.000000
    32  H    0.150669  -0.000000
    33  H    0.146885  -0.000000
    34  H    0.140284   0.000000
 Sum of Mulliken charges =  -0.00000  -0.00000

 Dipole moment (field-independent basis, Debye):
    X=             -2.8534    Y=             -0.0127    Z=              0.7246  Tot=              2.9440
 Quadrupole moment (field-independent basis, Debye-Ang):
   XX=            -88.6662   YY=           -113.9824   ZZ=           -109.5964
   XY=              7.8383   XZ=             -1.9256   YZ=             -2.3507

 Normal termination of Gaussian 16 at Sun Jan 21 08:14:40 2024.
