 Q-Chem 5.4, Q-Chem, Inc., Pleasanton, CA (2021)
 Q-Chem 5.4.0 for Intel X86 EM64T Linux

User input:
--------------------------------------------------------------
$molecule
-2 1
C                  3.3219330000     -0.9344130000     -0.0939100000
O                  1.9457730000     -1.1614580000      0.0902320000
C                  1.0677350000     -0.1177050000     -0.0841630000
C                  1.5297320000      1.1412310000     -0.4556530000
C                  0.6190990000      2.2073330000     -0.6416280000
C                 -0.7248340000      2.0033680000     -0.4392520000
C                 -1.2310890000      0.7404580000     -0.0480150000
C                 -2.6796580000      0.6363950000      0.1422230000
O                 -3.4707770000      1.6395230000     -0.0159280000
C                 -3.1313780000     -0.6635150000      0.5016740000
C                 -2.2774520000     -1.7469010000      0.6670780000
C                 -0.8520710000     -1.7080920000      0.5067400000
O                 -0.1451200000     -2.7544320000      0.6925980000
C                 -0.3271300000     -0.3832960000      0.1273890000
H                  3.8214140000     -1.8768540000      0.1438170000
H                  3.5718600000     -0.6557200000     -1.1292600000
H                  3.7189410000     -0.1526850000      0.5721410000
H                  2.5852530000      1.3130410000     -0.6219420000
H                  0.9978590000      3.1835010000     -0.9395970000
H                 -1.4543950000      2.7957270000     -0.5672300000
H                 -4.2049330000     -0.7856720000      0.6469560000
H                 -2.6807630000     -2.7198340000      0.9457300000
$end

$rem
BASIS  =  6-311++G(d,p)
GUI  =  2
JOB_TYPE  =  SP
METHOD  =  B3LYP
SCF_CONVERGENCE  = 8
SOLVENT_METHOD = sm12
$end

$smx
solvent dimethylformamide
charges CM5
$end

--------------------------------------------------------------

             Standard Nuclear Orientation (Angstroms)
    I     Atom           X                Y                Z
 ----------------------------------------------------------------
    1      C       3.3219330000    -0.9344130000    -0.0939100000
    2      O       1.9457730000    -1.1614580000     0.0902320000
    3      C       1.0677350000    -0.1177050000    -0.0841630000
    4      C       1.5297320000     1.1412310000    -0.4556530000
    5      C       0.6190990000     2.2073330000    -0.6416280000
    6      C      -0.7248340000     2.0033680000    -0.4392520000
    7      C      -1.2310890000     0.7404580000    -0.0480150000
    8      C      -2.6796580000     0.6363950000     0.1422230000
    9      O      -3.4707770000     1.6395230000    -0.0159280000
   10      C      -3.1313780000    -0.6635150000     0.5016740000
   11      C      -2.2774520000    -1.7469010000     0.6670780000
   12      C      -0.8520710000    -1.7080920000     0.5067400000
   13      O      -0.1451200000    -2.7544320000     0.6925980000
   14      C      -0.3271300000    -0.3832960000     0.1273890000
   15      H       3.8214140000    -1.8768540000     0.1438170000
   16      H       3.5718600000    -0.6557200000    -1.1292600000
   17      H       3.7189410000    -0.1526850000     0.5721410000
   18      H       2.5852530000     1.3130410000    -0.6219420000
   19      H       0.9978590000     3.1835010000    -0.9395970000
   20      H      -1.4543950000     2.7957270000    -0.5672300000
   21      H      -4.2049330000    -0.7856720000     0.6469560000
   22      H      -2.6807630000    -2.7198340000     0.9457300000
 ----------------------------------------------------------------

   22    -649.7519706832      9.92e-09  Convergence criterion met
 Total energy in the final basis set =     -650.0593058679

                    Orbital Energies (a.u.)
 --------------------------------------------------------------

 Alpha MOs
 -- Occupied --
-19.1461 -19.0242 -19.0192 -10.2352 -10.2219 -10.1899 -10.1834 -10.1750
-10.1667 -10.1628 -10.1613 -10.1573 -10.1428 -10.1394  -1.0631  -0.9424
 -0.9394  -0.8430  -0.7808  -0.7524  -0.7275  -0.6924  -0.6534  -0.6049
 -0.5977  -0.5531  -0.5095  -0.4940  -0.4737  -0.4645  -0.4621  -0.4388
 -0.4190  -0.4054  -0.3955  -0.3901  -0.3717  -0.3609  -0.3467  -0.3401
 -0.3308  -0.3299  -0.3243  -0.3065  -0.2407  -0.2330  -0.2232  -0.2013
 -0.1912  -0.1189

          Ground-State Mulliken Net Atomic Charges

     Atom                 Charge (a.u.)
  ----------------------------------------
      1 C                     0.397879
      2 O                    -0.039824
      3 C                     1.108337
      4 C                     3.185485
      5 C                     1.285577
      6 C                    -0.488483
      7 C                    -3.689747
      8 C                    -1.067146
      9 O                    -0.374456
     10 C                    -1.507919
     11 C                    -0.443791
     12 C                    -1.481798
     13 O                    -0.278500
     14 C                    -0.345669
     15 H                     0.346689
     16 H                     0.237199
     17 H                     0.236892
     18 H                     0.444434
     19 H                     0.410742
     20 H                     0.044702
     21 H                     0.024529
     22 H                    -0.005133
  ----------------------------------------
  Sum of atomic charges =    -2.000000

                    Cartesian Multipole Moments
 -----------------------------------------------------------------
    Charge (ESU x 10^10)
                -9.6064
    Dipole Moment (Debye)
         X      17.2551      Y       3.2702      Z      -2.6447
       Tot      17.7602
    Quadrupole Moments (Debye-Ang)
        XX    -141.6346     XY      12.0516     YY    -136.0726
        XZ       2.3317     YZ       8.7465     ZZ     -97.0969

 Total job time:  544.28s(wall), 3660.25s(cpu)
        *  Thank you very much for using Q-Chem.  Have a nice day.  *
