 Gaussian 16, Revision A.03,
 Gaussian 16:  ES64L-G16RevA.03 25-Dec-2016

 ----------------------------------------------------------------
 #P UB3LYP/6-311++G(d,p) SCRF=(PCM,Solvent=n,n-DiMethylFormamide)
 ----------------------------------------------------------------

 -------
 Reduced
 -------
 Symbolic Z-matrix:
 Charge = -2 Multiplicity = 1

                         Standard orientation:
 ---------------------------------------------------------------------
 Center     Atomic      Atomic             Coordinates (Angstroms)
 Number     Number       Type             X           Y           Z
 ---------------------------------------------------------------------
      1         17           0        2.722780    1.599381   -0.000058
      2          6           0        1.181920    0.700350    0.000043
      3          6           0        1.181600   -0.699878   -0.000003
      4         17           0        2.722911   -1.599343    0.000036
      5          6           0        0.000021   -1.519550   -0.000027
      6          8           0        0.000283   -2.796034   -0.000087
      7          6           0       -1.181663   -0.700257   -0.000019
      8          6           0       -1.181661    0.700137    0.000027
      9         17           0       -2.723050    1.599066   -0.000059
     10          6           0       -0.000121    1.519655    0.000082
     11          8           0       -0.000002    2.796092    0.000090
     12         17           0       -2.722807   -1.599293    0.000043
 ---------------------------------------------------------------------

 SCF Done:  E(UB3LYP) =  -2220.33915533     A.U. after   22 cycles

 The electronic state is 1-A.
 Alpha  occ. eigenvalues -- -101.53737-101.53734-101.53733-101.53731 -19.03450
 Alpha  occ. eigenvalues --  -19.03449 -10.20735 -10.20731 -10.20689 -10.20680
 Alpha  occ. eigenvalues --  -10.20584 -10.20582  -9.45170  -9.45167  -9.45165
 Alpha  occ. eigenvalues --   -9.45163  -7.21599  -7.21595  -7.21594  -7.21592
 Alpha  occ. eigenvalues --   -7.20696  -7.20692  -7.20691  -7.20689  -7.20622
 Alpha  occ. eigenvalues --   -7.20619  -7.20617  -7.20616  -0.96332  -0.95802
 Alpha  occ. eigenvalues --   -0.86878  -0.86176  -0.82545  -0.82270  -0.77205
 Alpha  occ. eigenvalues --   -0.68104  -0.66817  -0.56148  -0.55487  -0.48872
 Alpha  occ. eigenvalues --   -0.45347  -0.43080  -0.41081  -0.40854  -0.38224
 Alpha  occ. eigenvalues --   -0.37426  -0.37336  -0.35920  -0.35581  -0.32258
 Alpha  occ. eigenvalues --   -0.31607  -0.31054  -0.30788  -0.30209  -0.29411
 Alpha  occ. eigenvalues --   -0.28627  -0.24219  -0.22002  -0.21816  -0.21674
 Alpha  occ. eigenvalues --   -0.14029
 Alpha virt. eigenvalues --   -0.01845   0.00012   0.01264   0.02197   0.02233
 Alpha virt. eigenvalues --    0.03967   0.04897   0.05014   0.05374   0.05768
 Alpha virt. eigenvalues --    0.05797   0.06338   0.07353   0.07480   0.08814

  Beta  occ. eigenvalues -- -101.53737-101.53734-101.53733-101.53731 -19.03450
  Beta  occ. eigenvalues --  -19.03449 -10.20735 -10.20731 -10.20689 -10.20680
  Beta  occ. eigenvalues --  -10.20584 -10.20582  -9.45170  -9.45167  -9.45165
  Beta  occ. eigenvalues --   -9.45163  -7.21599  -7.21595  -7.21594  -7.21592
  Beta  occ. eigenvalues --   -7.20696  -7.20692  -7.20691  -7.20689  -7.20622
  Beta  occ. eigenvalues --   -7.20619  -7.20617  -7.20616  -0.96332  -0.95802
  Beta  occ. eigenvalues --   -0.86878  -0.86176  -0.82545  -0.82270  -0.77205
  Beta  occ. eigenvalues --   -0.68104  -0.66817  -0.56148  -0.55487  -0.48872
  Beta  occ. eigenvalues --   -0.45347  -0.43080  -0.41081  -0.40854  -0.38224
  Beta  occ. eigenvalues --   -0.37426  -0.37336  -0.35920  -0.35581  -0.32258
  Beta  occ. eigenvalues --   -0.31607  -0.31054  -0.30788  -0.30209  -0.29411
  Beta  occ. eigenvalues --   -0.28627  -0.24219  -0.22002  -0.21816  -0.21674
  Beta  occ. eigenvalues --   -0.14029
  Beta virt. eigenvalues --   -0.01845   0.00012   0.01264   0.02197   0.02233
  Beta virt. eigenvalues --    0.03967   0.04897   0.05014   0.05374   0.05768
  Beta virt. eigenvalues --    0.05797   0.06338   0.07353   0.07480   0.08814

 Mulliken charges and spin densities:
               1          2
     1  Cl   0.217712   0.000000
     2  C    0.569767  -0.000000
     3  C    0.570293  -0.000000
     4  Cl   0.217394   0.000000
     5  C   -2.023082   0.000000
     6  O   -0.553176  -0.000000
     7  C    0.570767  -0.000000
     8  C    0.570355  -0.000000
     9  Cl   0.217407   0.000000
    10  C   -2.021958   0.000000
    11  O   -0.553137  -0.000000
    12  Cl   0.217658   0.000000
 Sum of Mulliken charges =  -2.00000  -0.00000

 Dipole moment (field-independent basis, Debye):
    X=              0.0012    Y=              0.0026    Z=              0.0000  Tot=              0.0029
 Quadrupole moment (field-independent basis, Debye-Ang):
   XX=           -128.7137   YY=           -165.5423   ZZ=           -102.6591
   XY=              0.0130   XZ=             -0.0000   YZ=             -0.0015

 Normal termination of Gaussian 16 at Sun Jan 21 07:37:25 2024.
