 Q-Chem 5.4, Q-Chem, Inc., Pleasanton, CA (2021)
 Q-Chem 5.4.0 for Intel X86 EM64T Linux

User input:
--------------------------------------------------------------
$molecule
-1 2
C                 -2.4783930000      1.3957840000      0.3568510000
C                 -1.9795530000     -0.0608110000      0.4304450000
C                 -2.7608620000     -0.9571700000     -0.5504020000
C                 -0.4741890000     -0.1662380000      0.2352180000
C                  0.3203310000     -0.6505770000      1.2469110000
C                  1.7567560000     -0.7905900000      1.1627480000
O                  2.4496860000     -1.2426540000      2.1219670000
C                  2.3620240000     -0.3786590000     -0.0974080000
C                  1.5740120000      0.1052890000     -1.1100020000
C                  0.1359910000      0.2458140000     -1.0264490000
O                 -0.5396470000      0.7013340000     -1.9995030000
C                  3.8558920000     -0.5063680000     -0.2314690000
H                 -2.2843590000      1.8079600000     -0.6349590000
H                 -3.5559450000      1.4470150000      0.5589880000
H                 -1.9646270000      2.0186230000      1.0958230000
H                 -2.1858010000     -0.4271330000      1.4449080000
H                 -2.5777660000     -0.6361200000     -1.5773410000
H                 -2.4471480000     -2.0013430000     -0.4542620000
H                 -3.8383690000     -0.9057130000     -0.3480780000
H                 -0.1257110000     -0.9599360000      2.1901950000
H                  2.0183670000      0.4149580000     -2.0537490000
H                  4.3703940000      0.0770810000      0.5400180000
H                  4.1931490000     -0.1674970000     -1.2154940000
H                  4.1757690000     -1.5439400000     -0.0849570000
$end
$rem
MAX_SCF_CYCLES=200
BASIS  =  6-311++G(d,p)
GUI  =  2
JOB_TYPE  =  SP
METHOD  =  B3LYP
SOLVENT_METHOD = PCM
$end
$pcm
theory = CPCM
$end
$solvent
dielectric 37.219
opticaldielectric 1.43
$end

--------------------------------------------------------------

             Standard Nuclear Orientation (Angstroms)
    I     Atom           X                Y                Z
 ----------------------------------------------------------------
    1      C      -2.4783930000     1.3957840000     0.3568510000
    2      C      -1.9795530000    -0.0608110000     0.4304450000
    3      C      -2.7608620000    -0.9571700000    -0.5504020000
    4      C      -0.4741890000    -0.1662380000     0.2352180000
    5      C       0.3203310000    -0.6505770000     1.2469110000
    6      C       1.7567560000    -0.7905900000     1.1627480000
    7      O       2.4496860000    -1.2426540000     2.1219670000
    8      C       2.3620240000    -0.3786590000    -0.0974080000
    9      C       1.5740120000     0.1052890000    -1.1100020000
   10      C       0.1359910000     0.2458140000    -1.0264490000
   11      O      -0.5396470000     0.7013340000    -1.9995030000
   12      C       3.8558920000    -0.5063680000    -0.2314690000
   13      H      -2.2843590000     1.8079600000    -0.6349590000
   14      H      -3.5559450000     1.4470150000     0.5589880000
   15      H      -1.9646270000     2.0186230000     1.0958230000
   16      H      -2.1858010000    -0.4271330000     1.4449080000
   17      H      -2.5777660000    -0.6361200000    -1.5773410000
   18      H      -2.4471480000    -2.0013430000    -0.4542620000
   19      H      -3.8383690000    -0.9057130000    -0.3480780000
   20      H      -0.1257110000    -0.9599360000     2.1901950000
   21      H       2.0183670000     0.4149580000    -2.0537490000
   22      H       4.3703940000     0.0770810000     0.5400180000
   23      H       4.1931490000    -0.1674970000    -1.2154940000
   24      H       4.1757690000    -1.5439400000    -0.0849570000
 ----------------------------------------------------------------

    8    -539.0284780829      7.96e-06  Convergence criterion met
 Total energy in the final basis set =     -539.0284780829

                    Orbital Energies (a.u.)
 --------------------------------------------------------------

 Alpha MOs
 -- Occupied --
-19.0749 -19.0720 -10.2151 -10.2141 -10.1678 -10.1675 -10.1655 -10.1545
-10.1539 -10.1537 -10.1453 -10.1453  -0.9953  -0.9920  -0.8263  -0.7921
 -0.7434  -0.6925  -0.6721  -0.6593  -0.5882  -0.5832  -0.5246  -0.4833
 -0.4564  -0.4395  -0.4249  -0.4231  -0.4174  -0.4029  -0.3994  -0.3867
 -0.3819  -0.3704  -0.3697  -0.3602  -0.3496  -0.3318  -0.3303  -0.3227
 -0.2733  -0.2423  -0.2393  -0.2315  -0.1579

 Beta MOs
 -- Occupied --
-19.0685 -19.0653 -10.2135 -10.2124 -10.1675 -10.1665 -10.1641 -10.1546
-10.1531 -10.1529 -10.1453 -10.1452  -0.9838  -0.9800  -0.8210  -0.7901
 -0.7415  -0.6877  -0.6719  -0.6521  -0.5849  -0.5804  -0.5211  -0.4814
 -0.4536  -0.4361  -0.4240  -0.4157  -0.4140  -0.3999  -0.3940  -0.3806
 -0.3804  -0.3677  -0.3597  -0.3472  -0.3375  -0.3292  -0.3286  -0.3223
 -0.2426  -0.2348  -0.2335  -0.2258

          Ground-State Mulliken Net Atomic Charges

     Atom                 Charge (a.u.)    Spin (a.u.)
  --------------------------------------------------------
      1 C                    -0.696894       0.010321
      2 C                     0.150298      -0.022622
      3 C                    -0.695970       0.010311
      4 C                     1.093280       0.123041
      5 C                    -0.181837       0.042756
      6 C                    -0.822591       0.120456
      7 O                    -0.530982       0.232862
      8 C                     1.046907       0.103465
      9 C                    -0.732442       0.053700
     10 C                    -0.685945       0.084975
     11 O                    -0.490918       0.243782
     12 C                    -0.396308       0.004071
     13 H                     0.174652      -0.001503
     14 H                     0.150424       0.000571
     15 H                     0.132242       0.000284
     16 H                     0.183067      -0.001108
     17 H                     0.174503      -0.001521
     18 H                     0.131963       0.000302
     19 H                     0.150299       0.000559
     20 H                     0.182335      -0.006950
     21 H                     0.167634      -0.006758
     22 H                     0.171073       0.004672
     23 H                     0.154100      -0.000367
     24 H                     0.171111       0.004706
  --------------------------------------------------------
  Sum of atomic charges =    -1.000000

                    Cartesian Multipole Moments
 -----------------------------------------------------------------
    Charge (ESU x 10^10)
                -4.8032
    Dipole Moment (Debye)
         X      -4.5173      Y       1.3469      Z      -0.4428
       Tot       4.7345
    Quadrupole Moments (Debye-Ang)
        XX     -90.2038     XY       9.5830     YY     -83.5217
        XZ     -19.5375     YZ      11.0636     ZZ    -100.4488

 Total job time:  32.14s(wall), 207.16s(cpu)
        *  Thank you very much for using Q-Chem.  Have a nice day.  *
