 Q-Chem 5.4, Q-Chem, Inc., Pleasanton, CA (2021)
 Q-Chem 5.4.0 for Intel X86 EM64T Linux

User input:
--------------------------------------------------------------
$molecule
-2 1
C                 -2.0264270000      3.0455010000     -0.2542180000
C                 -2.9877060000      2.4984360000      0.5724990000
C                 -2.7075270000      1.3114580000      1.2983520000
C                 -0.7452180000      2.4511090000     -0.4055440000
C                 -0.4570400000      1.2425370000      0.3381110000
C                 -1.4623430000      0.7137520000      1.1694720000
C                  0.2375010000      3.0243900000     -1.2706590000
C                  1.4819640000      2.3348100000     -1.3337370000
C                  1.8034710000      1.1691270000     -0.6358940000
C                  0.8406800000      0.5656720000      0.2462570000
O                  0.0969650000      4.1037910000     -1.9944540000
O                  1.0917800000     -0.5021560000      0.9062740000
H                 -2.2200250000      3.9522940000     -0.8192100000
H                 -3.9611060000      2.9772800000      0.6679740000
H                 -3.4626350000      0.8763640000      1.9497990000
H                 -1.2143490000     -0.1933560000      1.7125420000
O                  2.3829280000      2.9371870000     -2.1876970000
H                  1.8293590000      3.7000460000     -2.4921770000
C                  3.1491900000      0.5096930000     -0.8005750000
C                  4.1839690000      0.9412060000      0.2634530000
C                  5.5255220000      0.1813940000      0.2264120000
C                  6.3886350000      0.5290760000      1.4492600000
C                  6.3126990000      0.4321560000     -1.0686630000
H                  3.5403410000      0.7286120000     -1.7997800000
H                  3.0059340000     -0.5740120000     -0.7084820000
H                  3.7239060000      0.7943880000      1.2462260000
H                  4.3773200000      2.0171920000      0.1580730000
H                  5.2959040000     -0.8927700000      0.2765940000
H                  7.3328220000     -0.0314810000      1.4597950000
H                  5.8568450000      0.3111610000      2.3816670000
H                  6.6426460000      1.5963440000      1.4554130000
H                  7.2666730000     -0.1103680000     -1.0706110000
H                  6.5372630000      1.4998490000     -1.1824880000
H                  5.7459390000      0.1202570000     -1.9499720000
$end
$rem
MAX_SCF_CYCLES=200
BASIS  =  6-311++G(d,p)
GUI  =  2
JOB_TYPE  =  SP
METHOD  =  B3LYP
SOLVENT_METHOD = COSMO
$end
$solvent
dielectric 37.219
opticaldielectric 1.43
$end

--------------------------------------------------------------

             Standard Nuclear Orientation (Angstroms)
    I     Atom           X                Y                Z
 ----------------------------------------------------------------
    1      C       3.7936721667    -0.5723247392     0.4149072050
    2      C       4.6190866784     0.5344408158     0.4385571150
    3      C       4.0878347880     1.8220162565     0.1661593622
    4      C       2.4078195863    -0.4645459067     0.1225131932
    5      C       1.8641631015     0.8493310832    -0.1511297859
    6      C       2.7366959728     1.9534519412    -0.1193126565
    7      C       1.5668392212    -1.6198653892     0.0942179636
    8      C       0.1965648666    -1.3785755713    -0.2096158488
    9      C      -0.3705452091    -0.1316583800    -0.4793418957
   10      C       0.4444413792     1.0534992140    -0.4566886014
   11      O       1.9375810176    -2.8532667807     0.3178417904
   12      O      -0.0324251635     2.2170138935    -0.6970262366
   13      H       4.1794324157    -1.5664905323     0.6193408048
   14      H       5.6778748398     0.4200171226     0.6661300914
   15      H       4.7350273443     2.6965192003     0.1824219172
   16      H       2.2975209406     2.9241137361    -0.3295790200
   17      O      -0.5579788300    -2.5336895023    -0.2243629658
   18      H       0.1499304057    -3.1900863851    -0.0027592466
   19      C      -1.8343252368     0.0013043264    -0.8149035267
   20      C      -2.7230397943     0.3206961804     0.4087393590
   21      C      -4.2034155666     0.6142261492     0.0912830735
   22      C      -4.9413458450     1.1298722135     1.3365830758
   23      C      -4.9358553476    -0.6020228685    -0.4952480507
   24      H      -2.1832010691    -0.9227145994    -1.2879890833
   25      H      -1.9414495123     0.8253806206    -1.5310338082
   26      H      -2.2908820566     1.1939763747     0.9084169056
   27      H      -2.6666819037    -0.5150156827     1.1191229848
   28      H      -4.2250727351     1.4143568008    -0.6626352678
   29      H      -5.9884745683     1.3803007788     1.1206404957
   30      H      -4.4565907102     2.0258229725     1.7390194830
   31      H      -4.9439745619     0.3713295143     2.1291904785
   32      H      -5.9886075688    -0.3742587131    -0.7055780963
   33      H      -4.9119297665    -1.4427351789     0.2090131514
   34      H      -4.4718822540    -0.9400488646    -1.4256623840
 ----------------------------------------------------------------

   21    -807.1328032002      1.40e-06  Convergence criterion met
 Total energy in the final basis set =     -807.1328032002
    6    -807.4027958617      2.64e-06  Convergence criterion met
 Total energy in the final basis set =     -807.4027958617

                    Orbital Energies (a.u.)
 --------------------------------------------------------------

 Alpha MOs
 -- Occupied --
-19.1129 -19.0314 -19.0226 -10.1785 -10.1759 -10.1642 -10.1591 -10.1490
-10.1455 -10.1455 -10.1451 -10.1445 -10.1444 -10.1432 -10.1395 -10.1389
-10.1344 -10.1259  -1.0265  -0.9433  -0.9335  -0.8250  -0.7978  -0.7693
 -0.7305  -0.7226  -0.6857  -0.6716  -0.6401  -0.6119  -0.5826  -0.5597
 -0.5424  -0.5354  -0.5033  -0.4719  -0.4555  -0.4460  -0.4327  -0.4267
 -0.4204  -0.4058  -0.3996  -0.3938  -0.3905  -0.3760  -0.3726  -0.3618
 -0.3589  -0.3519  -0.3499  -0.3455  -0.3324  -0.3220  -0.3177  -0.3086
 -0.3060  -0.3045  -0.2987  -0.2951  -0.2315  -0.2278  -0.2203  -0.2008
 -0.1933  -0.1126

          Ground-State Mulliken Net Atomic Charges

     Atom                 Charge (a.u.)
  ----------------------------------------
      1 C                    -0.020049
      2 C                    -0.419178
      3 C                    -0.518350
      4 C                     0.276962
      5 C                    -0.043679
      6 C                     0.053840
      7 C                    -0.916619
      8 C                    -0.727605
      9 C                     2.085551
     10 C                    -0.865947
     11 O                    -0.775303
     12 O                    -0.679822
     13 H                     0.157178
     14 H                     0.177628
     15 H                     0.172542
     16 H                     0.152408
     17 O                    -0.345581
     18 H                     0.290697
     19 C                    -0.139405
     20 C                    -0.705146
     21 C                     0.425930
     22 C                    -0.657147
     23 C                    -0.667055
     24 H                     0.186292
     25 H                     0.168191
     26 H                     0.170530
     27 H                     0.148475
     28 H                     0.133692
     29 H                     0.151711
     30 H                     0.139131
     31 H                     0.145776
     32 H                     0.148608
     33 H                     0.147734
     34 H                     0.148009
  ----------------------------------------
  Sum of atomic charges =    -2.000000

                    Cartesian Multipole Moments
 -----------------------------------------------------------------
    Charge (ESU x 10^10)
                -9.6064
    Dipole Moment (Debye)
         X     -10.1252      Y       2.6350      Z       1.5515
       Tot      10.5769
    Quadrupole Moments (Debye-Ang)
        XX    -151.0783     XY      12.9601     YY    -166.5734
        XZ      -2.1785     YZ       6.8727     ZZ    -122.9880

 Total job time:  136.32s(wall), 1061.58s(cpu)
        *  Thank you very much for using Q-Chem.  Have a nice day.  *
