 Q-Chem 5.4, Q-Chem, Inc., Pleasanton, CA (2021)
 Q-Chem 5.4.0 for Intel X86 EM64T Linux

User input:
--------------------------------------------------------------
$molecule
-1 2
C                 -6.3714900000      0.9794560000     -1.8663630000
C                 -6.4511220000      1.2446440000     -3.2208810000
C                 -5.4585690000      0.7572700000     -4.0949580000
C                 -5.3033370000      0.2217460000     -1.3393040000
C                 -4.2990550000     -0.2711750000     -2.2210590000
C                 -4.4031320000      0.0125230000     -3.5939310000
C                 -5.2213900000     -0.0556640000      0.0793320000
C                 -4.0922890000     -0.8394020000      0.5240280000
C                 -3.1082290000     -1.3384400000     -0.3031150000
C                 -3.1580860000     -1.0689760000     -1.7237940000
O                 -6.0624910000      0.3349690000      0.9538810000
O                 -2.2729110000     -1.4953010000     -2.5108980000
O                 -4.0794630000     -1.0596470000      1.8707270000
C                 -1.9613750000     -2.1528680000      0.2350100000
H                 -7.1226360000      1.3433930000     -1.1744110000
H                 -7.2787010000      1.8290610000     -3.6125920000
H                 -5.5219380000      0.9661590000     -5.1587270000
H                 -3.6253300000     -0.3738970000     -4.2428460000
H                 -4.8962700000     -0.5949950000      2.1591950000
C                 -0.6994850000     -1.3128290000      0.5086600000
C                  0.4818420000     -2.1745290000      0.9974430000
C                  1.7382750000     -1.3810330000      1.2675810000
C                  2.6158070000     -1.0396020000      0.2300960000
C                  2.0555190000     -0.9284670000      2.5516180000
C                  3.2004700000     -0.1683240000      2.7893170000
C                  4.0763660000      0.1710790000      1.7543820000
C                  3.7589310000     -0.2815820000      0.4669400000
C                  5.3210340000      0.9965520000      2.0300020000
C                  6.6247750000      0.2249040000      1.7273410000
C                  5.3162650000      2.3494980000      1.2844120000
C                  6.5659830000      3.1843390000      1.5991700000
C                  7.8747240000      1.0597010000      2.0414270000
C                  7.8565490000      2.4068250000      1.3057830000
H                 -1.7097450000     -2.9194780000     -0.5053620000
H                 -2.2673360000     -2.6537100000      1.1592070000
H                 -0.9246520000     -0.5452540000      1.2570740000
H                 -0.4159410000     -0.7928140000     -0.4111060000
H                  0.6908390000     -2.9412330000      0.2423620000
H                  0.1847040000     -2.7054370000      1.9092740000
H                  2.3946900000     -1.3714730000     -0.7797700000
H                  1.3952730000     -1.1728650000      3.3783980000
H                  3.4164180000      0.1670970000      3.8000430000
H                  4.4103430000     -0.0414300000     -0.3677360000
H                  5.3238540000      1.2223780000      3.1054260000
H                  6.6358000000     -0.0604890000      0.6680250000
H                  6.6364760000     -0.7090550000      2.2985030000
H                  4.4101440000      2.9056570000      1.5440930000
H                  5.2661190000      2.1654120000      0.2041380000
H                  6.5515840000      3.4707290000      2.6594400000
H                  6.5467980000      4.1179580000      1.0263720000
H                  8.7776100000      0.4964880000      1.7802660000
H                  7.9246270000      1.2416510000      3.1234840000
H                  7.9309500000      2.2277070000      0.2248940000
H                  8.7323570000      3.0038680000      1.5836050000
$end
$rem
MAX_SCF_CYCLES=200
BASIS  =  6-311++G(d,p)
GUI  =  2
THRESH = 14
SCF_CONVERGENCE = 8
SCF_ALGORITHM = RCA_DIIS
scf_guess = GWH
JOB_TYPE  =  SP
METHOD  =  B3LYP
SOLVENT_METHOD = PCM
$end
$pcm
theory = CPCM
$end
$solvent
dielectric 37.219
opticaldielectric 1.43
$end

--------------------------------------------------------------

             Standard Nuclear Orientation (Angstroms)
    I     Atom           X                Y                Z
 ----------------------------------------------------------------
    1      C      -6.3714900000     0.9794560000    -1.8663630000
    2      C      -6.4511220000     1.2446440000    -3.2208810000
    3      C      -5.4585690000     0.7572700000    -4.0949580000
    4      C      -5.3033370000     0.2217460000    -1.3393040000
    5      C      -4.2990550000    -0.2711750000    -2.2210590000
    6      C      -4.4031320000     0.0125230000    -3.5939310000
    7      C      -5.2213900000    -0.0556640000     0.0793320000
    8      C      -4.0922890000    -0.8394020000     0.5240280000
    9      C      -3.1082290000    -1.3384400000    -0.3031150000
   10      C      -3.1580860000    -1.0689760000    -1.7237940000
   11      O      -6.0624910000     0.3349690000     0.9538810000
   12      O      -2.2729110000    -1.4953010000    -2.5108980000
   13      O      -4.0794630000    -1.0596470000     1.8707270000
   14      C      -1.9613750000    -2.1528680000     0.2350100000
   15      H      -7.1226360000     1.3433930000    -1.1744110000
   16      H      -7.2787010000     1.8290610000    -3.6125920000
   17      H      -5.5219380000     0.9661590000    -5.1587270000
   18      H      -3.6253300000    -0.3738970000    -4.2428460000
   19      H      -4.8962700000    -0.5949950000     2.1591950000
   20      C      -0.6994850000    -1.3128290000     0.5086600000
   21      C       0.4818420000    -2.1745290000     0.9974430000
   22      C       1.7382750000    -1.3810330000     1.2675810000
   23      C       2.6158070000    -1.0396020000     0.2300960000
   24      C       2.0555190000    -0.9284670000     2.5516180000
   25      C       3.2004700000    -0.1683240000     2.7893170000
   26      C       4.0763660000     0.1710790000     1.7543820000
   27      C       3.7589310000    -0.2815820000     0.4669400000
   28      C       5.3210340000     0.9965520000     2.0300020000
   29      C       6.6247750000     0.2249040000     1.7273410000
   30      C       5.3162650000     2.3494980000     1.2844120000
   31      C       6.5659830000     3.1843390000     1.5991700000
   32      C       7.8747240000     1.0597010000     2.0414270000
   33      C       7.8565490000     2.4068250000     1.3057830000
   34      H      -1.7097450000    -2.9194780000    -0.5053620000
   35      H      -2.2673360000    -2.6537100000     1.1592070000
   36      H      -0.9246520000    -0.5452540000     1.2570740000
   37      H      -0.4159410000    -0.7928140000    -0.4111060000
   38      H       0.6908390000    -2.9412330000     0.2423620000
   39      H       0.1847040000    -2.7054370000     1.9092740000
   40      H       2.3946900000    -1.3714730000    -0.7797700000
   41      H       1.3952730000    -1.1728650000     3.3783980000
   42      H       3.4164180000     0.1670970000     3.8000430000
   43      H       4.4103430000    -0.0414300000    -0.3677360000
   44      H       5.3238540000     1.2223780000     3.1054260000
   45      H       6.6358000000    -0.0604890000     0.6680250000
   46      H       6.6364760000    -0.7090550000     2.2985030000
   47      H       4.4101440000     2.9056570000     1.5440930000
   48      H       5.2661190000     2.1654120000     0.2041380000
   49      H       6.5515840000     3.4707290000     2.6594400000
   50      H       6.5467980000     4.1179580000     1.0263720000
   51      H       8.7776100000     0.4964880000     1.7802660000
   52      H       7.9246270000     1.2416510000     3.1234840000
   53      H       7.9309500000     2.2277070000     0.2248940000
   54      H       8.7323570000     3.0038680000     1.5836050000
 ----------------------------------------------------------------

  100   -1194.5003047835      9.54E-09 Convergence criterion met
 Total energy in the final basis set = -1194.50030478

                    Orbital Energies (a.u.)
 --------------------------------------------------------------

 Alpha MOs
 -- Occupied --
-19.1439 -19.0874 -19.0760 -10.2245 -10.2222 -10.2218 -10.1757 -10.1750
-10.1745 -10.1728 -10.1720 -10.1710 -10.1706 -10.1695 -10.1693 -10.1679
-10.1678 -10.1674 -10.1672 -10.1633 -10.1630 -10.1596 -10.1585 -10.1573
-10.1572 -10.1565 -10.1564 -10.1557  -1.0640  -1.0017  -0.9975  -0.8616
 -0.8587  -0.8276  -0.8128  -0.7901  -0.7660  -0.7511  -0.7425  -0.7411
 -0.7348  -0.7152  -0.6833  -0.6595  -0.6245  -0.6144  -0.6070  -0.6036
 -0.5965  -0.5786  -0.5691  -0.5659  -0.5445  -0.5371  -0.5055  -0.4975
 -0.4845  -0.4748  -0.4646  -0.4607  -0.4523  -0.4461  -0.4390  -0.4365
 -0.4320  -0.4288  -0.4261  -0.4216  -0.4178  -0.4132  -0.4089  -0.4005
 -0.3964  -0.3894  -0.3864  -0.3809  -0.3723  -0.3712  -0.3678  -0.3643
 -0.3535  -0.3485  -0.3444  -0.3416  -0.3390  -0.3376  -0.3334  -0.3286
 -0.3280  -0.3211  -0.3100  -0.2973  -0.2955  -0.2681  -0.2616  -0.2581
 -0.2535  -0.2423  -0.2372  -0.2262  -0.1521

 Beta MOs
 -- Occupied --
-19.1434 -19.0812 -19.0708 -10.2231 -10.2210 -10.2190 -10.1757 -10.1748
-10.1745 -10.1719 -10.1717 -10.1702 -10.1701 -10.1695 -10.1694 -10.1679
-10.1678 -10.1674 -10.1672 -10.1633 -10.1623 -10.1595 -10.1586 -10.1573
-10.1572 -10.1565 -10.1564 -10.1557  -1.0618  -0.9925  -0.9869  -0.8616
 -0.8563  -0.8276  -0.8103  -0.7888  -0.7646  -0.7489  -0.7424  -0.7402
 -0.7348  -0.7144  -0.6788  -0.6544  -0.6234  -0.6129  -0.6066  -0.6036
 -0.5954  -0.5776  -0.5670  -0.5655  -0.5445  -0.5353  -0.5034  -0.4971
 -0.4824  -0.4740  -0.4643  -0.4595  -0.4515  -0.4459  -0.4375  -0.4320
 -0.4290  -0.4269  -0.4246  -0.4212  -0.4141  -0.4118  -0.4049  -0.3978
 -0.3954  -0.3866  -0.3795  -0.3779  -0.3723  -0.3697  -0.3646  -0.3581
 -0.3507  -0.3450  -0.3419  -0.3382  -0.3376  -0.3321  -0.3297  -0.3274
 -0.3271  -0.3200  -0.3100  -0.2973  -0.2955  -0.2561  -0.2535  -0.2511
 -0.2485  -0.2385  -0.2350  -0.2185

          Ground-State Mulliken Net Atomic Charges

     Atom                 Charge (a.u.)    Spin (a.u.)
  --------------------------------------------------------
      1 C                     0.060434       0.075005
      2 C                    -0.426397      -0.000736
      3 C                    -0.489803       0.070732
      4 C                     0.194529      -0.011796
      5 C                     0.275199       0.068368
      6 C                     0.095300       0.003784
      7 C                    -0.725532       0.185162
      8 C                    -0.619322       0.050416
      9 C                     1.732639       0.038322
     10 C                    -0.798948       0.084794
     11 O                    -0.538504       0.226052
     12 O                    -0.474809       0.192453
     13 O                    -0.294614       0.016967
     14 C                    -0.406083       0.010069
     15 H                     0.180530      -0.003814
     16 H                     0.194716      -0.000599
     17 H                     0.195253      -0.005039
     18 H                     0.173712      -0.000182
     19 H                     0.303273      -0.003228
     20 C                    -0.427010      -0.004216
     21 C                    -0.667439       0.006691
     22 C                     1.016459      -0.001676
     23 C                    -0.338911      -0.000370
     24 C                    -0.568174       0.000115
     25 C                    -0.413854       0.000018
     26 C                     0.492628       0.000131
     27 C                    -0.549753      -0.000188
     28 C                     0.286673       0.000206
     29 C                    -0.462735      -0.000013
     30 C                    -0.458052      -0.000149
     31 C                    -0.414686      -0.000016
     32 C                    -0.400115      -0.000002
     33 C                    -0.394530       0.000003
     34 H                     0.189042       0.002528
     35 H                     0.217377      -0.000879
     36 H                     0.180074       0.001540
     37 H                     0.189693      -0.001161
     38 H                     0.170737       0.000743
     39 H                     0.157199      -0.000042
     40 H                     0.203751      -0.000064
     41 H                     0.200138       0.000025
     42 H                     0.191752       0.000000
     43 H                     0.203556       0.000029
     44 H                     0.192632       0.000010
     45 H                     0.148594       0.000001
     46 H                     0.176543       0.000004
     47 H                     0.176596      -0.000002
     48 H                     0.147571      -0.000000
     49 H                     0.134925       0.000000
     50 H                     0.177239       0.000001
     51 H                     0.176822       0.000003
     52 H                     0.134246      -0.000001
     53 H                     0.119969      -0.000000
     54 H                     0.179475      -0.000000
  --------------------------------------------------------
  Sum of atomic charges =    -1.000000

                    Cartesian Multipole Moments
 -----------------------------------------------------------------
    Charge (ESU x 10^10)
                -4.8032
    Dipole Moment (Debye)
         X      19.0422      Y       3.6449      Z       3.2141
       Tot      19.6525
    Quadrupole Moments (Debye-Ang)
        XX    -257.9001     XY      -2.4481     YY    -180.0113
        XZ      -0.2567     YZ      -7.6382     ZZ    -183.0342

 Total job time:  6123.95s(wall), 35728.68s(cpu)
        *  Thank you very much for using Q-Chem.  Have a nice day.  *
