 Q-Chem 5.4, Q-Chem, Inc., Pleasanton, CA (2021)
 Q-Chem 5.4.0 for Intel X86 EM64T Linux

User input:
--------------------------------------------------------------
$molecule
-1 2
C                  5.7601050000     -5.2944380000      1.2614460000
C                  6.6944770000     -5.1481350000      0.2417360000
C                  6.5751730000     -4.1517910000     -0.7409080000
C                  4.6425500000     -4.4044310000      1.3131480000
C                  4.5298440000     -3.3938910000      0.3089260000
C                  5.5017910000     -3.2865190000     -0.7024620000
C                  3.6129550000     -4.5029570000      2.3675550000
C                  2.5243660000     -3.5472270000      2.3204500000
C                  2.4425320000     -2.5837260000      1.3396190000
C                  3.4065520000     -2.4351860000      0.2905290000
O                  3.6534060000     -5.3730250000      3.2843120000
O                  3.3113200000     -1.5446490000     -0.5982870000
C                  5.9868980000     -6.4019460000      2.2675450000
H                  7.5410360000     -5.8291690000      0.2099460000
C                  1.4797510000     -3.6560160000      3.3998240000
H                  1.6135290000     -1.8798370000      1.3300920000
H                  5.3672880000     -2.5024000000     -1.4384480000
H                  7.3253990000     -4.0683960000     -1.5222320000
H                  6.9056790000     -6.9436760000      2.0162200000
H                  5.1508300000     -7.1033130000      2.2911740000
H                  6.0654670000     -6.0133880000      3.2846080000
H                  1.0080600000     -4.6446950000      3.3922840000
H                  0.7064620000     -2.8927580000      3.2739460000
H                  1.9281740000     -3.5474200000      4.3933810000
$end

$rem
BASIS  =  6-311++G(d,p)
GUI  =  2
JOB_TYPE  =  SP
METHOD  =  B3LYP
SCF_CONVERGENCE  = 8
SOLVENT_METHOD = sm12
$end

$smx
solvent dimethylformamide
charges CM5
$end

--------------------------------------------------------------

             Standard Nuclear Orientation (Angstroms)
    I     Atom           X                Y                Z
 ----------------------------------------------------------------
    1      C       5.7601050000    -5.2944380000     1.2614460000
    2      C       6.6944770000    -5.1481350000     0.2417360000
    3      C       6.5751730000    -4.1517910000    -0.7409080000
    4      C       4.6425500000    -4.4044310000     1.3131480000
    5      C       4.5298440000    -3.3938910000     0.3089260000
    6      C       5.5017910000    -3.2865190000    -0.7024620000
    7      C       3.6129550000    -4.5029570000     2.3675550000
    8      C       2.5243660000    -3.5472270000     2.3204500000
    9      C       2.4425320000    -2.5837260000     1.3396190000
   10      C       3.4065520000    -2.4351860000     0.2905290000
   11      O       3.6534060000    -5.3730250000     3.2843120000
   12      O       3.3113200000    -1.5446490000    -0.5982870000
   13      C       5.9868980000    -6.4019460000     2.2675450000
   14      H       7.5410360000    -5.8291690000     0.2099460000
   15      C       1.4797510000    -3.6560160000     3.3998240000
   16      H       1.6135290000    -1.8798370000     1.3300920000
   17      H       5.3672880000    -2.5024000000    -1.4384480000
   18      H       7.3253990000    -4.0683960000    -1.5222320000
   19      H       6.9056790000    -6.9436760000     2.0162200000
   20      H       5.1508300000    -7.1033130000     2.2911740000
   21      H       6.0654670000    -6.0133880000     3.2846080000
   22      H       1.0080600000    -4.6446950000     3.3922840000
   23      H       0.7064620000    -2.8927580000     3.2739460000
   24      H       1.9281740000    -3.5474200000     4.3933810000
 ----------------------------------------------------------------

   17    -613.9790326763      7.08e-09  Convergence criterion met
 Total energy in the final basis set =     -614.0645599397

                    Orbital Energies (a.u.)
 --------------------------------------------------------------

 Alpha MOs
 -- Occupied --
-19.0739 -19.0735 -10.2220 -10.2210 -10.1922 -10.1828 -10.1806 -10.1786
-10.1774 -10.1759 -10.1745 -10.1657 -10.1642 -10.1629  -0.9990  -0.9957
 -0.8645  -0.8167  -0.7778  -0.7598  -0.7057  -0.6946  -0.6568  -0.6162
 -0.5974  -0.5455  -0.5135  -0.4996  -0.4750  -0.4546  -0.4359  -0.4351
 -0.4152  -0.4151  -0.4090  -0.3951  -0.3945  -0.3894  -0.3822  -0.3685
 -0.3661  -0.3523  -0.3488  -0.3429  -0.2744  -0.2557  -0.2541  -0.2404
 -0.2335  -0.1524

 Beta MOs
 -- Occupied --
-19.0671 -19.0671 -10.2206 -10.2197 -10.1921 -10.1824 -10.1802 -10.1779
-10.1770 -10.1745 -10.1742 -10.1658 -10.1642 -10.1617  -0.9874  -0.9843
 -0.8627  -0.8116  -0.7766  -0.7578  -0.7021  -0.6927  -0.6513  -0.6134
 -0.5951  -0.5429  -0.5117  -0.4974  -0.4727  -0.4533  -0.4329  -0.4284
 -0.4135  -0.4126  -0.4061  -0.3923  -0.3873  -0.3842  -0.3814  -0.3665
 -0.3506  -0.3424  -0.3413  -0.3394  -0.2508  -0.2496  -0.2421  -0.2343
 -0.2274

          Ground-State Mulliken Net Atomic Charges

     Atom                 Charge (a.u.)    Spin (a.u.)
  --------------------------------------------------------
      1 C                    -0.241276       0.016126
      2 C                     0.534121       0.024288
      3 C                     1.075252       0.033067
      4 C                    -0.103302       0.020493
      5 C                    -0.909871       0.061440
      6 C                    -0.281518       0.021687
      7 C                    -1.855441       0.087865
      8 C                     0.504137       0.100748
      9 C                    -0.748860       0.079456
     10 C                    -1.936838       0.056457
     11 O                    -0.255527       0.253974
     12 O                    -0.359786       0.235524
     13 C                     0.651744       0.006686
     14 H                     0.269067      -0.002833
     15 C                     0.847316       0.007040
     16 H                     0.115345      -0.009014
     17 H                     0.127120      -0.002565
     18 H                     0.386895      -0.002206
     19 H                     0.258508      -0.000306
     20 H                     0.132040      -0.000192
     21 H                     0.131933      -0.000186
     22 H                     0.195958       0.006167
     23 H                     0.267144       0.000081
     24 H                     0.195840       0.006203
  --------------------------------------------------------
  Sum of atomic charges =    -1.000000

                    Cartesian Multipole Moments
 -----------------------------------------------------------------
    Charge (ESU x 10^10)
                -4.8032
    Dipole Moment (Debye)
         X     -17.6029      Y      16.2837      Z      -5.2861
       Tot      24.5553
    Quadrupole Moments (Debye-Ang)
        XX    -153.0466     XY      61.1550     YY    -159.3260
        XZ     -21.1216     YZ      33.4733     ZZ    -109.9446

 Total job time:  448.19s(wall), 3472.33s(cpu)
        *  Thank you very much for using Q-Chem.  Have a nice day.  *
