 Gaussian 16, Revision A.03,
 Gaussian 16:  ES64L-G16RevA.03 25-Dec-2016

 --------------------------------------
 #P UB3LYP/6-311++G(d,p) nosym opt freq
 --------------------------------------

 --------
 Oxidized
 --------
 Symbolic Z-matrix:
 Charge = -1 Multiplicity = 1

 SCF Done:  E(UB3LYP) =  -1312.28703694     A.U. after   23 cycles
 SCF Done:  E(UB3LYP) =  -1312.32624867     A.U. after   15 cycles
 SCF Done:  E(UB3LYP) =  -1312.33913550     A.U. after   14 cycles
 SCF Done:  E(UB3LYP) =  -1312.33963721     A.U. after   13 cycles
 SCF Done:  E(UB3LYP) =  -1312.33965981     A.U. after   12 cycles
 SCF Done:  E(UB3LYP) =  -1312.33963420     A.U. after   12 cycles
 SCF Done:  E(UB3LYP) =  -1312.33966473     A.U. after   12 cycles
 SCF Done:  E(UB3LYP) =  -1312.33966610     A.U. after   12 cycles
 SCF Done:  E(UB3LYP) =  -1312.33966664     A.U. after   11 cycles
 SCF Done:  E(UB3LYP) =  -1312.33966741     A.U. after   11 cycles
 SCF Done:  E(UB3LYP) =  -1312.33966904     A.U. after   12 cycles
 SCF Done:  E(UB3LYP) =  -1312.33967016     A.U. after   12 cycles
 SCF Done:  E(UB3LYP) =  -1312.33967118     A.U. after   12 cycles
 SCF Done:  E(UB3LYP) =  -1312.33967145     A.U. after   10 cycles
 Optimization completed.
    -- Stationary point found.
 Normal termination of Gaussian 16 at Sat Dec 23 05:54:44 2023.

 ----------------------------------------------------------------------
 #P Geom=AllCheck Guess=TCheck SCRF=Check GenChk UB3LYP/6-311++G(d,p) F
 req
 ----------------------------------------------------------------------

 Structure from the checkpoint file:  "223.chk"
 --------
 Oxidized
 --------
 Charge = -1 Multiplicity = 1

                          Input orientation:
 ---------------------------------------------------------------------
 Center     Atomic      Atomic             Coordinates (Angstroms)
 Number     Number       Type             X           Y           Z
 ---------------------------------------------------------------------
      1          6           0        2.780098    0.533512    0.207458
      2          6           0        2.739218   -0.674579    0.906480
      3          6           0        1.536662   -1.355113    1.057564
      4          6           0       -0.907695   -1.589427    0.697047
      5          8           0       -0.962193   -2.648541    1.310808
      6          6           0       -2.149302   -1.004988    0.095436
      7          6           0       -3.362931   -1.684664    0.243237
      8          6           0       -4.528706   -1.164397   -0.305552
      9          6           0       -4.492248    0.043170   -1.009554
     10          6           0       -3.290318    0.724018   -1.160830
     11          6           0       -2.112833    0.207242   -0.610926
     12          6           0       -0.830883    0.965660   -0.791802
     13          8           0       -0.825638    2.018692   -1.410676
     14          6           0        0.397872    0.383147   -0.194804
     15          6           0        1.611452    1.057575   -0.342925
     16          1           0        3.665513   -1.064505    1.311302
     17          1           0        1.490180   -2.294588    1.595182
     18          1           0       -3.363275   -2.618036    0.792899
     19          1           0       -5.467084   -1.695694   -0.187699
     20          1           0       -5.402252    0.449199   -1.438145
     21          1           0       -3.234107    1.661086   -1.701277
     22          1           0        1.641135    1.987332   -0.896804
     23          6           0        0.354796   -0.840572    0.514917
     24         16           0        4.359777    1.452256    0.054346
     25          8           0        5.389215    0.448775    0.418287
     26          8           0        4.381395    1.884892   -1.362186
     27          8           0        4.202232    2.556265    1.032228
 ---------------------------------------------------------------------

 SCF Done:  E(UB3LYP) =  -1312.33967145     A.U. after    2 cycles

 Alpha  occ. eigenvalues --  -88.90462 -19.03868 -19.03763 -18.94696 -18.94648
 Alpha  occ. eigenvalues --  -18.94648 -10.19155 -10.19017 -10.12973 -10.12967
 Alpha  occ. eigenvalues --  -10.12911 -10.12908 -10.12359 -10.12298 -10.11067
 Alpha  occ. eigenvalues --  -10.10993 -10.09958 -10.09956 -10.09408 -10.09251
 Alpha  occ. eigenvalues --   -7.96307  -5.92563  -5.92547  -5.92538  -0.97224
 Alpha  occ. eigenvalues --   -0.97032  -0.96722  -0.83095  -0.82890  -0.81354
 Alpha  occ. eigenvalues --   -0.78701  -0.72667  -0.70266  -0.68110  -0.67878
 Alpha  occ. eigenvalues --   -0.60284  -0.58411  -0.55750  -0.53235  -0.49712
 Alpha  occ. eigenvalues --   -0.48918  -0.47131  -0.44072  -0.41982  -0.40310
 Alpha  occ. eigenvalues --   -0.39544  -0.38211  -0.37621  -0.36633  -0.36282
 Alpha  occ. eigenvalues --   -0.35476  -0.35265  -0.34828  -0.32693  -0.32039
 Alpha  occ. eigenvalues --   -0.31183  -0.30453  -0.30285  -0.30032  -0.29301
 Alpha  occ. eigenvalues --   -0.27425  -0.26745  -0.20832  -0.20418  -0.19567
 Alpha  occ. eigenvalues --   -0.19229  -0.18804  -0.18602  -0.18431  -0.17740
 Alpha  occ. eigenvalues --   -0.15398  -0.15082  -0.14023  -0.10824
 Alpha virt. eigenvalues --   -0.02889   0.01099   0.04749   0.04883   0.06233
 Alpha virt. eigenvalues --    0.06948   0.08106   0.09569   0.10549   0.11173
 Alpha virt. eigenvalues --    0.11279   0.12047   0.12792   0.13097   0.13177

  Beta  occ. eigenvalues --  -88.90462 -19.03868 -19.03763 -18.94696 -18.94648
  Beta  occ. eigenvalues --  -18.94648 -10.19155 -10.19017 -10.12973 -10.12967
  Beta  occ. eigenvalues --  -10.12911 -10.12908 -10.12359 -10.12298 -10.11067
  Beta  occ. eigenvalues --  -10.10993 -10.09958 -10.09956 -10.09408 -10.09251
  Beta  occ. eigenvalues --   -7.96307  -5.92563  -5.92547  -5.92538  -0.97224
  Beta  occ. eigenvalues --   -0.97032  -0.96722  -0.83095  -0.82890  -0.81354
  Beta  occ. eigenvalues --   -0.78701  -0.72667  -0.70266  -0.68110  -0.67878
  Beta  occ. eigenvalues --   -0.60284  -0.58411  -0.55750  -0.53235  -0.49712
  Beta  occ. eigenvalues --   -0.48918  -0.47131  -0.44072  -0.41982  -0.40310
  Beta  occ. eigenvalues --   -0.39544  -0.38211  -0.37621  -0.36633  -0.36282
  Beta  occ. eigenvalues --   -0.35476  -0.35265  -0.34828  -0.32693  -0.32039
  Beta  occ. eigenvalues --   -0.31183  -0.30453  -0.30285  -0.30032  -0.29301
  Beta  occ. eigenvalues --   -0.27425  -0.26745  -0.20832  -0.20418  -0.19567
  Beta  occ. eigenvalues --   -0.19229  -0.18804  -0.18602  -0.18431  -0.17740
  Beta  occ. eigenvalues --   -0.15398  -0.15082  -0.14023  -0.10824
  Beta virt. eigenvalues --   -0.02889   0.01099   0.04749   0.04883   0.06233
  Beta virt. eigenvalues --    0.06948   0.08106   0.09569   0.10549   0.11173
  Beta virt. eigenvalues --    0.11279   0.12047   0.12792   0.13097   0.13177

 Mulliken charges and spin densities:
               1          2
     1  C   -0.894210  -0.000000
     2  C   -0.096070  -0.000000
     3  C    0.180848   0.000000
     4  C   -0.698935  -0.000000
     5  O   -0.239806   0.000000
     6  C    0.268525  -0.000000
     7  C    0.142436   0.000000
     8  C   -0.376917  -0.000000
     9  C   -0.347768  -0.000000
    10  C    0.084888   0.000000
    11  C    0.438972  -0.000000
    12  C   -0.779431  -0.000000
    13  O   -0.216051   0.000000
    14  C    0.322865   0.000000
    15  C   -0.181727   0.000000
    16  H    0.231166   0.000000
    17  H    0.168436  -0.000000
    18  H    0.173855  -0.000000
    19  H    0.156083  -0.000000
    20  H    0.158068  -0.000000
    21  H    0.173267  -0.000000
    22  H    0.214743  -0.000000
    23  C    0.331297   0.000000
    24  S    0.670480   0.000000
    25  O   -0.323376   0.000000
    26  O   -0.296262   0.000000
    27  O   -0.265376   0.000000
 Sum of Mulliken charges =  -1.00000   0.00000

 Dipole moment (field-independent basis, Debye):
    X=            -18.8170    Y=             -6.7587    Z=             -0.0446  Tot=             19.9941
 Quadrupole moment (field-independent basis, Debye-Ang):
   XX=           -211.3040   YY=           -152.4103   ZZ=           -135.0786
   XY=            -33.3298   XZ=              2.9432   YZ=              4.3811

  Exact polarizability: 319.475  37.780 196.818  23.338 -42.239 139.519
 Approx polarizability: 436.180  42.422 372.258  31.336-100.439 247.783

                      1                      2                      3
                      A                      A                      A
 Frequencies --     10.5428                29.7135                70.7266
 Red. masses --     13.5309                 8.4460                 8.5501
 Frc consts  --      0.0009                 0.0044                 0.0252
 IR Inten    --      0.0508                 0.0892                 8.0556

                      4                      5                      6
                      A                      A                      A
 Frequencies --    102.4257               112.1742               128.7529
 Red. masses --     10.1580                 4.5624                 6.0564
 Frc consts  --      0.0628                 0.0338                 0.0592
 IR Inten    --      2.8478                 0.2155                 0.3787

                      7                      8                      9
                      A                      A                      A
 Frequencies --    162.2548               202.2811               216.4219
 Red. masses --      8.9107                10.1904                 6.6730
 Frc consts  --      0.1382                 0.2457                 0.1841
 IR Inten    --      1.2828                 3.7866                 0.2073

                     10                     11                     12
                      A                      A                      A
 Frequencies --    231.9782               288.3685               314.8138
 Red. masses --      9.2654                 7.8359                 6.7535
 Frc consts  --      0.2938                 0.3839                 0.3944
 IR Inten    --      1.0212                 0.9003                 1.0616

                     13                     14                     15
                      A                      A                      A
 Frequencies --    374.5054               382.3944               406.3632
 Red. masses --      7.0921                 9.1377                 9.4158
 Frc consts  --      0.5861                 0.7872                 0.9161
 IR Inten    --      5.2734                10.7574                19.4136

                     16                     17                     18
                      A                      A                      A
 Frequencies --    411.6763               440.9006               445.9392
 Red. masses --      3.4604                 3.5042                 9.1893
 Frc consts  --      0.3455                 0.4013                 1.0767
 IR Inten    --      0.4172                 0.0332                10.0695

                     19                     20                     21
                      A                      A                      A
 Frequencies --    451.4176               486.3062               486.7919
 Red. masses --      5.3815                 8.5925                 9.5007
 Frc consts  --      0.6461                 1.1973                 1.3264
 IR Inten    --      0.6607                12.0188                14.3173

                     22                     23                     24
                      A                      A                      A
 Frequencies --    518.7444               563.3533               605.2091
 Red. masses --     14.1920                 6.3368                13.6811
 Frc consts  --      2.2501                 1.1849                 2.9524
 IR Inten    --      8.7009                22.0034               162.1032

                     25                     26                     27
                      A                      A                      A
 Frequencies --    644.0302               660.9122               670.9176
 Red. masses --      7.1097                 7.4061                 4.4366
 Frc consts  --      1.7374                 1.9060                 1.1766
 IR Inten    --      3.5719                39.2040                10.7907

                     28                     29                     30
                      A                      A                      A
 Frequencies --    696.2541               713.3967               717.8314
 Red. masses --      6.7046                 7.9425                 4.8523
 Frc consts  --      1.9150                 2.3816                 1.4731
 IR Inten    --      0.1135                16.4932                 3.6847

                     31                     32                     33
                      A                      A                      A
 Frequencies --    729.7237               795.8331               804.6341
 Red. masses --      2.1390                 4.9067                 1.9013
 Frc consts  --      0.6711                 1.8310                 0.7253
 IR Inten    --     71.5514                 0.0236                 7.1094

                     34                     35                     36
                      A                      A                      A
 Frequencies --    822.4156               876.9013               909.9102
 Red. masses --      6.8467                 1.4825                 1.3862
 Frc consts  --      2.7284                 0.6717                 0.6762
 IR Inten    --      0.5807                16.2425                 0.1709

                     37                     38                     39
                      A                      A                      A
 Frequencies --    934.8895               939.2524               964.4998
 Red. masses --      1.3822                 7.0461                 7.5576
 Frc consts  --      0.7118                 3.6624                 4.1423
 IR Inten    --      1.8704                86.7551                11.0410

                     40                     41                     42
                      A                      A                      A
 Frequencies --    988.7007               996.9504              1007.2884
 Red. masses --      9.6312                 1.3771                 1.3023
 Frc consts  --      5.5470                 0.8064                 0.7785
 IR Inten    --    263.9789                 2.0432                 0.0358

                     43                     44                     45
                      A                      A                      A
 Frequencies --   1009.5721              1054.3765              1088.4390
 Red. masses --      1.3428                 1.9956                 2.2027
 Frc consts  --      0.8064                 1.3071                 1.5375
 IR Inten    --      0.6825                 2.0322                12.9479

                     46                     47                     48
                      A                      A                      A
 Frequencies --   1108.5992              1128.3289              1170.4589
 Red. masses --      2.2004                 1.9743                 4.1040
 Frc consts  --      1.5933                 1.4809                 3.3126
 IR Inten    --      0.0593                26.2095               188.8981

                     49                     50                     51
                      A                      A                      A
 Frequencies --   1171.4869              1178.6560              1187.3067
 Red. masses --      1.8063                 5.5656                 3.0595
 Frc consts  --      1.4606                 4.5555                 2.5412
 IR Inten    --     90.6059               212.6485                85.6720

                     52                     53                     54
                      A                      A                      A
 Frequencies --   1190.4789              1231.4800              1277.0977
 Red. masses --      2.1083                 1.7974                 1.4511
 Frc consts  --      1.7605                 1.6060                 1.3944
 IR Inten    --      5.9746                 1.2393                 9.9236

                     55                     56                     57
                      A                      A                      A
 Frequencies --   1299.9862              1310.4791              1350.6428
 Red. masses --      3.5054                 2.7224                 7.6917
 Frc consts  --      3.4903                 2.7546                 8.2672
 IR Inten    --    495.5766               230.3271                61.0212

                     58                     59                     60
                      A                      A                      A
 Frequencies --   1364.0326              1424.0888              1478.8150
 Red. masses --     10.0481                 4.3418                 2.4342
 Frc consts  --     11.0150                 5.1880                 3.1364
 IR Inten    --      9.1696                 4.6240                 1.2305

                     61                     62                     63
                      A                      A                      A
 Frequencies --   1494.0124              1504.6755              1587.4649
 Red. masses --      2.7386                 2.5814                 7.5855
 Frc consts  --      3.6015                 3.4434                11.2627
 IR Inten    --     18.6077                 0.0767                 6.9244

                     64                     65                     66
                      A                      A                      A
 Frequencies --   1599.5676              1614.6829              1631.3925
 Red. masses --      5.9305                 7.2170                 5.9120
 Frc consts  --      8.9402                11.0861                 9.2705
 IR Inten    --    224.1767                 0.9178                36.3720

                     67                     68                     69
                      A                      A                      A
 Frequencies --   1701.2127              1720.1575              3157.9935
 Red. masses --     12.1770                12.0914                 1.0862
 Frc consts  --     20.7638                21.0797                 6.3826
 IR Inten    --    125.6027               264.2054                 6.4425

                     70                     71                     72
                      A                      A                      A
 Frequencies --   3174.4493              3184.6331              3195.2596
 Red. masses --      1.0921                 1.0877                 1.0920
 Frc consts  --      6.4841                 6.4994                 6.5687
 IR Inten    --     26.7900                 2.5568                 1.8694

                     73                     74                     75
                      A                      A                      A
 Frequencies --   3197.5785              3198.2589              3207.7999
 Red. masses --      1.0939                 1.0939                 1.0906
 Frc consts  --      6.5895                 6.5928                 6.6122
 IR Inten    --     17.4602                 3.6743                 3.2193

 - Thermochemistry -
 -------------------
 Temperature   298.150 Kelvin.  Pressure   1.00000 Atm.
 Atom     1 has atomic number  6 and mass  12.00000

 Molecular mass:   287.00142 amu.
 Principal axes and moments of inertia in atomic units:
                           1         2         3
     Eigenvalues --  2138.13152********************
           X            0.96505  -0.18951  -0.18099
           Y            0.25595   0.82985   0.49582
           Z            0.05623  -0.52482   0.84935
 This molecule is an asymmetric top.
 Rotational symmetry number  1.
 Warning -- assumption of classical behavior for rotation
           may cause significant error
 Rotational temperatures (Kelvin)      0.04051     0.00798     0.00685
 Rotational constants (GHZ):           0.84407     0.16628     0.14282
 Zero-point vibrational energy     475586.5 (Joules/Mol)
                                  113.66791 (Kcal/Mol)
 Warning -- explicit consideration of  24 degrees of freedom as
           vibrations may cause significant error
 Vibrational temperatures:     15.17    42.75   101.76   147.37   161.39
          (Kelvin)            185.25   233.45   291.04   311.38   333.76
                              414.90   452.95   538.83   550.18   584.67
                              592.31   634.36   641.61   649.49   699.69
                              700.38   746.36   810.54   870.76   926.62
                              950.91   965.30  1001.75  1026.42  1032.80
                             1049.91  1145.03  1157.69  1183.27  1261.67
                             1309.16  1345.10  1351.37  1387.70  1422.52
                             1434.39  1449.26  1452.55  1517.01  1566.02
                             1595.03  1623.41  1684.03  1685.51  1695.82
                             1708.27  1712.83  1771.83  1837.46  1870.39
                             1885.49  1943.27  1962.54  2048.95  2127.68
                             2149.55  2164.89  2284.01  2301.42  2323.17
                             2347.21  2447.67  2474.92  4543.65  4567.32
                             4581.98  4597.27  4600.60  4601.58  4615.31

 Zero-point correction=                           0.181141 (Hartree/Particle)
 Thermal correction to Energy=                    0.196575
 Thermal correction to Enthalpy=                  0.197519
 Thermal correction to Gibbs Free Energy=         0.135934
 Sum of electronic and zero-point Energies=          -1312.158530
 Sum of electronic and thermal Energies=             -1312.143096
 Sum of electronic and thermal Enthalpies=           -1312.142152
 Sum of electronic and thermal Free Energies=        -1312.203737

                     E (Thermal)             CV                S
                      KCal/Mol        Cal/Mol-Kelvin    Cal/Mol-Kelvin
 Total                  123.353             59.747            129.616
 Electronic               0.000              0.000              0.000
 Translational            0.889              2.981             42.861
 Rotational               0.889              2.981             34.038
 Vibrational            121.575             53.785             52.717
 Vibration     1          0.593              1.987              7.906
 Vibration     2          0.593              1.984              5.848
 Vibration     3          0.598              1.968              4.133
 Vibration     4          0.604              1.947              3.408
 Vibration     5          0.607              1.939              3.231
 Vibration     6          0.611              1.924              2.965
 Vibration     7          0.622              1.889              2.523
 Vibration     8          0.639              1.837              2.112
 Vibration     9          0.645              1.816              1.989
 Vibration    10          0.653              1.792              1.864
 Vibration    11          0.685              1.695              1.484
 Vibration    12          0.702              1.645              1.337
 Vibration    13          0.746              1.524              1.061
 Vibration    14          0.752              1.508              1.030
 Vibration    15          0.771              1.456              0.940
 Vibration    16          0.776              1.445              0.921
 Vibration    17          0.801              1.381              0.824
 Vibration    18          0.805              1.370              0.808
 Vibration    19          0.810              1.358              0.791
 Vibration    20          0.842              1.280              0.693
 Vibration    21          0.843              1.279              0.692
 Vibration    22          0.874              1.208              0.613
 Vibration    23          0.919              1.111              0.517
 Vibration    24          0.964              1.021              0.441

 Optimization completed.
    -- Stationary point found.
 Normal termination of Gaussian 16 at Sat Dec 23 06:55:29 2023.
