 Gaussian 16, Revision A.03,
 Gaussian 16:  ES64L-G16RevA.03 25-Dec-2016

 ----------------------------------------------------------------------
 #P UB3LYP/6-311++G(d,p) nosym opt freq SCRF=(PCM,Solvent=n,n-DiMethylF
 ormamide)
 ----------------------------------------------------------------------

 -------
 Reduced
 -------
 Symbolic Z-matrix:
 Charge = -2 Multiplicity = 1

 SCF Done:  E(UB3LYP) =  -727.495720517     A.U. after   18 cycles
 SCF Done:  E(UB3LYP) =  -727.498165880     A.U. after   14 cycles
 SCF Done:  E(UB3LYP) =  -727.498548465     A.U. after   11 cycles
 SCF Done:  E(UB3LYP) =  -727.498554045     A.U. after   12 cycles
 SCF Done:  E(UB3LYP) =  -727.498569835     A.U. after   11 cycles
 SCF Done:  E(UB3LYP) =  -727.498572149     A.U. after   12 cycles
 SCF Done:  E(UB3LYP) =  -727.498572309     A.U. after    9 cycles
 SCF Done:  E(UB3LYP) =  -727.498572379     A.U. after   10 cycles
 Optimization completed.
    -- Stationary point found.
 Normal termination of Gaussian 16 at Sat Feb 10 12:20:25 2024.

 ----------------------------------------------------------------------
 #P Geom=AllCheck Guess=TCheck SCRF=Check GenChk UB3LYP/6-311++G(d,p) F
 req
 ----------------------------------------------------------------------

 Structure from the checkpoint file:  "065-an.chk"
 -------
 Reduced
 -------
 Charge = -2 Multiplicity = 1

                          Input orientation:
 ---------------------------------------------------------------------
 Center     Atomic      Atomic             Coordinates (Angstroms)
 Number     Number       Type             X           Y           Z
 ---------------------------------------------------------------------
      1          6           0       -1.360808   -2.053461    1.159690
      2          6           0       -1.404312   -1.989408   -0.256868
      3          6           0       -0.753336   -0.994933   -0.999511
      4          6           0        0.011533    0.038239   -0.392720
      5          6           0        0.052459   -0.024318    1.030865
      6          6           0       -0.596807   -1.014204    1.778153
      7          8           0       -1.967263   -2.986875    1.869275
      8          8           0        0.632452    0.976988   -1.081830
      9          6           0       -0.542945   -1.065239    3.282818
     10          8           0        0.236024    0.023747    3.811475
     11          6           0        0.393154    0.119858    5.158594
     12          6           0       -0.172316   -0.758522    6.092312
     13          6           0        1.184500    1.188890    5.609003
     14          6           0        1.405165    1.373732    6.968061
     15          6           0        0.058940   -0.558342    7.456571
     16          6           0        0.843395    0.500447    7.905387
     17          1           0       -1.974449   -2.757878   -0.778262
     18          1           0       -0.828131   -1.005689   -2.086245
     19          1           0        0.620454    0.741297    1.552143
     20          1           0       -0.104825   -2.013471    3.620518
     21          1           0       -1.555744   -1.021826    3.704718
     22          1           0       -0.785656   -1.589433    5.772733
     23          1           0        1.616644    1.860681    4.876188
     24          1           0        2.019841    2.203949    7.298650
     25          1           0       -0.384771   -1.245067    8.169413
     26          1           0        1.016731    0.646126    8.965137
 ---------------------------------------------------------------------

 SCF Done:  E(UB3LYP) =  -727.498572379     A.U. after    1 cycles

 Alpha  occ. eigenvalues --  -19.14589 -19.01055 -19.00775 -10.23523 -10.20814
 Alpha  occ. eigenvalues --  -10.17687 -10.17659 -10.17182 -10.17060 -10.16835
 Alpha  occ. eigenvalues --  -10.16238 -10.16220 -10.13155 -10.11946 -10.11776
 Alpha  occ. eigenvalues --  -10.11749  -1.06079  -0.91489  -0.90887  -0.85420
 Alpha  occ. eigenvalues --   -0.78392  -0.75473  -0.74816  -0.71522  -0.66835
 Alpha  occ. eigenvalues --   -0.63753  -0.60999  -0.59327  -0.55390  -0.53083
 Alpha  occ. eigenvalues --   -0.51786  -0.48388  -0.46885  -0.46236  -0.44370
 Alpha  occ. eigenvalues --   -0.42643  -0.42160  -0.41384  -0.40193  -0.38330
 Alpha  occ. eigenvalues --   -0.38092  -0.36654  -0.35440  -0.34633  -0.34523
 Alpha  occ. eigenvalues --   -0.32814  -0.32139  -0.31384  -0.30806  -0.29733
 Alpha  occ. eigenvalues --   -0.25950  -0.22529  -0.21710  -0.20902  -0.19050
 Alpha  occ. eigenvalues --   -0.18862  -0.11667
 Alpha virt. eigenvalues --   -0.01664  -0.00183  -0.00163   0.00827   0.01272
 Alpha virt. eigenvalues --    0.01995   0.02140   0.02541   0.03791   0.03999
 Alpha virt. eigenvalues --    0.04095   0.04458   0.06054   0.06374   0.06631

  Beta  occ. eigenvalues --  -19.14589 -19.01055 -19.00775 -10.23523 -10.20814
  Beta  occ. eigenvalues --  -10.17687 -10.17659 -10.17182 -10.17060 -10.16835
  Beta  occ. eigenvalues --  -10.16238 -10.16220 -10.13155 -10.11946 -10.11776
  Beta  occ. eigenvalues --  -10.11749  -1.06079  -0.91489  -0.90887  -0.85420
  Beta  occ. eigenvalues --   -0.78392  -0.75473  -0.74816  -0.71522  -0.66835
  Beta  occ. eigenvalues --   -0.63753  -0.60999  -0.59327  -0.55390  -0.53083
  Beta  occ. eigenvalues --   -0.51786  -0.48388  -0.46885  -0.46236  -0.44370
  Beta  occ. eigenvalues --   -0.42643  -0.42160  -0.41384  -0.40193  -0.38330
  Beta  occ. eigenvalues --   -0.38092  -0.36654  -0.35440  -0.34633  -0.34523
  Beta  occ. eigenvalues --   -0.32814  -0.32139  -0.31384  -0.30806  -0.29733
  Beta  occ. eigenvalues --   -0.25950  -0.22529  -0.21710  -0.20902  -0.19050
  Beta  occ. eigenvalues --   -0.18862  -0.11667
  Beta virt. eigenvalues --   -0.01664  -0.00183  -0.00163   0.00827   0.01272
  Beta virt. eigenvalues --    0.01995   0.02140   0.02541   0.03791   0.03999
  Beta virt. eigenvalues --    0.04095   0.04458   0.06054   0.06374   0.06631

 Mulliken charges and spin densities:
               1          2
     1  C   -1.054267  -0.000000
     2  C    0.101946   0.000000
     3  C    0.027155  -0.000000
     4  C   -0.537499   0.000000
     5  C   -0.324133  -0.000000
     6  C    0.493418  -0.000000
     7  O   -0.746052   0.000000
     8  O   -0.767574  -0.000000
     9  C   -0.088211   0.000000
    10  O   -0.128128  -0.000000
    11  C    0.395188   0.000000
    12  C    0.051371  -0.000000
    13  C   -0.127967  -0.000000
    14  C   -0.271443  -0.000000
    15  C   -0.342688   0.000000
    16  C   -0.383006   0.000000
    17  H    0.126610   0.000000
    18  H    0.130491  -0.000000
    19  H    0.131133  -0.000000
    20  H    0.196905   0.000000
    21  H    0.195115   0.000000
    22  H    0.174142  -0.000000
    23  H    0.175893  -0.000000
    24  H    0.197441  -0.000000
    25  H    0.208239  -0.000000
    26  H    0.165922   0.000000
 Sum of Mulliken charges =  -2.00000   0.00000

 Dipole moment (field-independent basis, Debye):
    X=              5.1922    Y=              7.9106    Z=             -4.4705  Tot=             10.4653
 Quadrupole moment (field-independent basis, Debye-Ang):
   XX=           -121.3198   YY=           -141.1779   ZZ=           -125.5333
   XY=            -22.9508   XZ=             14.5855   YZ=             22.3807

  Exact polarizability: 202.157  70.927 253.129   5.126  -8.588 330.131
 Approx polarizability: 223.704  83.662 284.530   0.759 -15.734 351.680

                      1                      2                      3
                      A                      A                      A
 Frequencies --     31.2825                42.8204                68.7674
 Red. masses --      4.3696                 5.3065                 6.4497
 Frc consts  --      0.0025                 0.0057                 0.0180
 IR Inten    --      0.0057                 0.0526                 0.3184

                      4                      5                      6
                      A                      A                      A
 Frequencies --     97.2551               154.7468               183.3776
 Red. masses --      4.2068                 7.4564                 7.0730
 Frc consts  --      0.0234                 0.1052                 0.1401
 IR Inten    --      1.1297                29.4717                 9.3375

                      7                      8                      9
                      A                      A                      A
 Frequencies --    216.0656               237.5602               238.5884
 Red. masses --      2.7539                 6.7276                 4.8726
 Frc consts  --      0.0757                 0.2237                 0.1634
 IR Inten    --      8.4277                11.7506                 3.8335

                     10                     11                     12
                      A                      A                      A
 Frequencies --    349.0726               381.1473               422.8029
 Red. masses --      7.5458                 9.9602                 3.0322
 Frc consts  --      0.5417                 0.8525                 0.3194
 IR Inten    --      0.0156                 8.2632                 0.0019

                     13                     14                     15
                      A                      A                      A
 Frequencies --    450.1931               451.1136               482.7157
 Red. masses --      5.0337                 3.3076                10.8829
 Frc consts  --      0.6011                 0.3966                 1.4941
 IR Inten    --     10.3019                 4.8606                 0.1877

                     16                     17                     18
                      A                      A                      A
 Frequencies --    517.8439               529.0357               591.1601
 Red. masses --      2.7379                 6.4337                 2.3381
 Frc consts  --      0.4326                 1.0609                 0.4814
 IR Inten    --     18.4669                 1.2647                15.6132

                     19                     20                     21
                      A                      A                      A
 Frequencies --    594.0188               627.0656               631.3637
 Red. masses --      4.3958                 6.2508                 6.4029
 Frc consts  --      0.9139                 1.4481                 1.5038
 IR Inten    --      3.1455                 4.2373                 4.6689

                     22                     23                     24
                      A                      A                      A
 Frequencies --    701.2142               725.5277               752.4429
 Red. masses --      2.0637                 3.3298                 6.2146
 Frc consts  --      0.5978                 1.0327                 2.0731
 IR Inten    --     49.0293                 0.0175               112.0267

                     25                     26                     27
                      A                      A                      A
 Frequencies --    762.1536               797.4154               806.9534
 Red. masses --      1.7440                 1.6971                 6.3661
 Frc consts  --      0.5969                 0.6358                 2.4424
 IR Inten    --    114.0947                44.7303               157.0020

                     28                     29                     30
                      A                      A                      A
 Frequencies --    827.4916               849.9184               853.9410
 Red. masses --      1.2506                 1.6114                 6.2699
 Frc consts  --      0.5046                 0.6858                 2.6938
 IR Inten    --      0.8564                60.5665                21.7629

                     31                     32                     33
                      A                      A                      A
 Frequencies --    888.4655               890.5962               963.2062
 Red. masses --      1.3430                 1.4661                 2.8020
 Frc consts  --      0.6246                 0.6851                 1.5316
 IR Inten    --      2.6539                14.7036                17.7930

                     34                     35                     36
                      A                      A                      A
 Frequencies --    973.2105               988.3520              1001.1766
 Red. masses --      1.3424                 1.2565                 6.2018
 Frc consts  --      0.7491                 0.7232                 3.6626
 IR Inten    --      0.0414                 0.0521                37.9642

                     37                     38                     39
                      A                      A                      A
 Frequencies --   1015.5556              1030.3231              1043.6203
 Red. masses --      6.2673                 1.6607                 2.1176
 Frc consts  --      3.8083                 1.0387                 1.3589
 IR Inten    --    163.4978                 1.4327                66.8585

                     40                     41                     42
                      A                      A                      A
 Frequencies --   1095.5203              1103.7388              1151.0965
 Red. masses --      1.6859                 1.6084                 1.9000
 Frc consts  --      1.1921                 1.1545                 1.4833
 IR Inten    --      9.3206                50.8323               180.0377

                     43                     44                     45
                      A                      A                      A
 Frequencies --   1171.1289              1189.5555              1201.6730
 Red. masses --      1.1030                 1.1644                 6.1921
 Frc consts  --      0.8913                 0.9708                 5.2682
 IR Inten    --      6.6259                63.1542               266.8275

                     46                     47                     48
                      A                      A                      A
 Frequencies --   1235.5270              1251.9501              1258.3637
 Red. masses --      1.7097                 1.0674                 4.3202
 Frc consts  --      1.5377                 0.9857                 4.0305
 IR Inten    --    300.3204                 5.4276               512.9053

                     49                     50                     51
                      A                      A                      A
 Frequencies --   1277.6555              1308.1852              1324.6435
 Red. masses --      2.3594                 7.8585                 3.3219
 Frc consts  --      2.2692                 7.9237                 3.4343
 IR Inten    --    772.5905                27.8308                43.4574

                     52                     53                     54
                      A                      A                      A
 Frequencies --   1353.9908              1388.2491              1422.3653
 Red. masses --      1.7402                 2.2392                 2.2552
 Frc consts  --      1.8796                 2.5426                 2.6882
 IR Inten    --     19.7473               551.9300               159.8838

                     55                     56                     57
                      A                      A                      A
 Frequencies --   1457.8765              1480.5310              1493.1081
 Red. masses --      2.6348                 2.2062                 1.2122
 Frc consts  --      3.2995                 2.8493                 1.5922
 IR Inten    --    677.5610                 4.4231                60.0945

                     58                     59                     60
                      A                      A                      A
 Frequencies --   1514.1175              1522.1777              1611.2899
 Red. masses --      3.8667                 2.3343                 6.0634
 Frc consts  --      5.2229                 3.1866                 9.2750
 IR Inten    --    145.3783                82.9453                60.5770

                     61                     62                     63
                      A                      A                      A
 Frequencies --   1616.8090              1632.9680              2983.1939
 Red. masses --      6.4170                 5.6609                 1.0550
 Frc consts  --      9.8832                 8.8939                 5.5317
 IR Inten    --      7.7023               133.7763                77.4524

                     64                     65                     66
                      A                      A                      A
 Frequencies --   3005.5369              3090.1033              3113.4566
 Red. masses --      1.1049                 1.0843                 1.0924
 Frc consts  --      5.8808                 6.1003                 6.2392
 IR Inten    --     79.6189                88.4846               137.8073

                     67                     68                     69
                      A                      A                      A
 Frequencies --   3139.4049              3161.9235              3168.3227
 Red. masses --      1.0873                 1.0856                 1.0893
 Frc consts  --      6.3140                 6.3945                 6.4422
 IR Inten    --     51.2961                 3.5646                17.6377

                     70                     71                     72
                      A                      A                      A
 Frequencies --   3181.9762              3189.8609              3211.8441
 Red. masses --      1.0924                 1.0970                 1.0919
 Frc consts  --      6.5167                 6.5768                 6.6366
 IR Inten    --     34.1013                20.8512                 6.1776

 - Thermochemistry -
 -------------------
 Temperature   298.150 Kelvin.  Pressure   1.00000 Atm.
 Atom     1 has atomic number  6 and mass  12.00000

 Molecular mass:   214.06299 amu.
 Principal axes and moments of inertia in atomic units:
                           1         2         3
     Eigenvalues --  1479.685047408.024518876.49503
           X            0.18218   0.54681   0.81720
           Y            0.17674   0.79936  -0.57427
           Z            0.96725  -0.24905  -0.04899
 This molecule is an asymmetric top.
 Rotational symmetry number  1.
 Warning -- assumption of classical behavior for rotation
           may cause significant error
 Rotational temperatures (Kelvin)      0.05854     0.01169     0.00976
 Rotational constants (GHZ):           1.21968     0.24362     0.20332
 Zero-point vibrational energy     511270.2 (Joules/Mol)
                                  122.19651 (Kcal/Mol)
 Warning -- explicit consideration of  19 degrees of freedom as
           vibrations may cause significant error
 Vibrational temperatures:     45.01    61.61    98.94   139.93   222.65
          (Kelvin)            263.84   310.87   341.80   343.28   502.24
                              548.39   608.32   647.73   649.05   694.52
                              745.06   761.16   850.55   854.66   902.21
                              908.39  1008.89  1043.87  1082.60  1096.57
                             1147.30  1161.03  1190.58  1222.84  1228.63
                             1278.30  1281.37  1385.84  1400.23  1422.02
                             1440.47  1461.16  1482.41  1501.54  1576.21
                             1588.03  1656.17  1684.99  1711.51  1728.94
                             1777.65  1801.28  1810.50  1838.26  1882.19
                             1905.87  1948.09  1997.38  2046.47  2097.56
                             2130.15  2148.25  2178.48  2190.07  2318.29
                             2326.23  2349.48  4292.15  4324.30  4445.97
                             4479.57  4516.90  4549.30  4558.51  4578.15
                             4589.50  4621.13

 Zero-point correction=                           0.194733 (Hartree/Particle)
 Thermal correction to Energy=                    0.207744
 Thermal correction to Enthalpy=                  0.208689
 Thermal correction to Gibbs Free Energy=         0.153611
 Sum of electronic and zero-point Energies=           -727.303840
 Sum of electronic and thermal Energies=              -727.290828
 Sum of electronic and thermal Enthalpies=            -727.289884
 Sum of electronic and thermal Free Energies=         -727.344961

                     E (Thermal)             CV                S
                      KCal/Mol        Cal/Mol-Kelvin    Cal/Mol-Kelvin
 Total                  130.362             50.957            115.920
 Electronic               0.000              0.000              0.000
 Translational            0.889              2.981             41.987
 Rotational               0.889              2.981             32.942
 Vibrational            128.584             44.996             40.991
 Vibration     1          0.594              1.983              5.746
 Vibration     2          0.595              1.980              5.124
 Vibration     3          0.598              1.969              4.188
 Vibration     4          0.603              1.951              3.509
 Vibration     5          0.620              1.897              2.613
 Vibration     6          0.631              1.862              2.294
 Vibration     7          0.645              1.817              1.992
 Vibration     8          0.656              1.783              1.821
 Vibration     9          0.657              1.782              1.813
 Vibration    10          0.726              1.577              1.170
 Vibration    11          0.751              1.510              1.035
 Vibration    12          0.785              1.421              0.882
 Vibration    13          0.809              1.360              0.795
 Vibration    14          0.810              1.358              0.792
 Vibration    15          0.839              1.288              0.703
 Vibration    16          0.873              1.210              0.615
 Vibration    17          0.884              1.186              0.589
 Vibration    18          0.949              1.051              0.465
 Vibration    19          0.952              1.045              0.460

                           ! Non-Optimized Parameters !
 Normal termination of Gaussian 16 at Sat Feb 10 13:07:39 2024.
