 Gaussian 16, Revision A.03,
 Gaussian 16:  ES64L-G16RevA.03 25-Dec-2016

 ----------------------------------------------------------------------
 #P UB3LYP/6-311++G(d,p) nosym opt freq SCRF=(PCM,Solvent=n,n-DiMethylF
 ormamide)
 ----------------------------------------------------------------------

 --------
 Oxidized
 --------
 Symbolic Z-matrix:
 Charge =  0 Multiplicity = 1

 SCF Done:  E(UB3LYP) =  -817.244990977     A.U. after   17 cycles
 SCF Done:  E(UB3LYP) =  -817.244497946     A.U. after   14 cycles
 SCF Done:  E(UB3LYP) =  -817.243286217     A.U. after   16 cycles
 SCF Done:  E(UB3LYP) =  -817.242770307     A.U. after   15 cycles
 SCF Done:  E(UB3LYP) =  -817.245069389     A.U. after   12 cycles
 SCF Done:  E(UB3LYP) =  -817.245209844     A.U. after   14 cycles
 SCF Done:  E(UB3LYP) =  -817.245261359     A.U. after   13 cycles
 SCF Done:  E(UB3LYP) =  -817.245269697     A.U. after   13 cycles
 SCF Done:  E(UB3LYP) =  -817.245281515     A.U. after   12 cycles
 SCF Done:  E(UB3LYP) =  -817.245280803     A.U. after   11 cycles
 SCF Done:  E(UB3LYP) =  -817.245282213     A.U. after   11 cycles
 SCF Done:  E(UB3LYP) =  -817.245282822     A.U. after   11 cycles
 Optimization completed.
    -- Stationary point found.
 Normal termination of Gaussian 16 at Sat Feb 10 11:30:46 2024.

 ----------------------------------------------------------------------
 #P Geom=AllCheck Guess=TCheck SCRF=Check GenChk UB3LYP/6-311++G(d,p) F
 req
 ----------------------------------------------------------------------

 Structure from the checkpoint file:  "099.chk"
 --------
 Oxidized
 --------
 Charge =  0 Multiplicity = 1

                          Input orientation:
 ---------------------------------------------------------------------
 Center     Atomic      Atomic             Coordinates (Angstroms)
 Number     Number       Type             X           Y           Z
 ---------------------------------------------------------------------
      1          6           0        0.043683   -0.889921    1.450872
      2          6           0       -0.081937   -0.800519   -0.045175
      3          6           0       -0.720615   -1.778370   -0.713595
      4          6           0       -1.356406   -2.919968   -0.024463
      5          6           0       -1.275677   -2.968901    1.453509
      6          6           0       -0.626149   -2.018384    2.135885
      7          8           0        0.701003   -0.076812    2.081649
      8          8           0       -1.938280   -3.793703   -0.656353
      9          6           0        0.606151    0.309149   -0.748734
     10          1           0       -1.759481   -3.807731    1.940436
     11          1           0       -0.820204   -1.761378   -1.792922
     12          1           0       -0.540788   -2.032718    3.216288
     13          6           0        0.410565    1.673813   -0.473568
     14          6           0        1.128107    2.675931   -1.118649
     15          6           0        2.064454    2.329084   -2.085935
     16          6           0        2.277639    0.986328   -2.387496
     17          6           0        1.562667   -0.006457   -1.720648
     18          7           0       -0.621453    2.107876    0.481298
     19          8           0       -0.476856    3.192810    1.032731
     20          8           0       -1.588256    1.372503    0.662725
     21          1           0        0.931907    3.710551   -0.874130
     22          1           0        2.617598    3.104214   -2.601092
     23          1           0        3.007234    0.705503   -3.137320
     24          1           0        1.761941   -1.048948   -1.935086
 ---------------------------------------------------------------------

 SCF Done:  E(UB3LYP) =  -817.245282822     A.U. after    2 cycles

 Alpha  occ. eigenvalues --  -19.18195 -19.18183 -19.15221 -19.14792 -14.57509
 Alpha  occ. eigenvalues --  -10.29936 -10.29311 -10.25900 -10.23810 -10.23475
 Alpha  occ. eigenvalues --  -10.21893 -10.21806 -10.21697 -10.21402 -10.20919
 Alpha  occ. eigenvalues --  -10.20769 -10.20572  -1.25881  -1.08552  -1.08161
 Alpha  occ. eigenvalues --   -1.07520  -0.91515  -0.87461  -0.82654  -0.82310
 Alpha  occ. eigenvalues --   -0.77554  -0.72774  -0.71226  -0.66657  -0.63276
 Alpha  occ. eigenvalues --   -0.63096  -0.60575  -0.57594  -0.56228  -0.54321
 Alpha  occ. eigenvalues --   -0.53437  -0.52792  -0.51365  -0.49356  -0.49236
 Alpha  occ. eigenvalues --   -0.47462  -0.46494  -0.45657  -0.45542  -0.44025
 Alpha  occ. eigenvalues --   -0.42835  -0.42090  -0.40437  -0.40022  -0.38741
 Alpha  occ. eigenvalues --   -0.34772  -0.34161  -0.33094  -0.31877  -0.31234
 Alpha  occ. eigenvalues --   -0.30083  -0.29282  -0.28889  -0.28157
 Alpha virt. eigenvalues --   -0.14398  -0.11604  -0.05597  -0.03765  -0.02079
 Alpha virt. eigenvalues --   -0.00909  -0.00551   0.00386   0.01163   0.01847
 Alpha virt. eigenvalues --    0.02241   0.03130   0.04088   0.04426   0.04626

  Beta  occ. eigenvalues --  -19.18195 -19.18183 -19.15221 -19.14792 -14.57509
  Beta  occ. eigenvalues --  -10.29936 -10.29311 -10.25900 -10.23810 -10.23475
  Beta  occ. eigenvalues --  -10.21893 -10.21806 -10.21697 -10.21402 -10.20919
  Beta  occ. eigenvalues --  -10.20769 -10.20572  -1.25881  -1.08552  -1.08161
  Beta  occ. eigenvalues --   -1.07520  -0.91515  -0.87461  -0.82654  -0.82310
  Beta  occ. eigenvalues --   -0.77554  -0.72774  -0.71226  -0.66657  -0.63276
  Beta  occ. eigenvalues --   -0.63096  -0.60575  -0.57594  -0.56228  -0.54321
  Beta  occ. eigenvalues --   -0.53437  -0.52792  -0.51365  -0.49356  -0.49236
  Beta  occ. eigenvalues --   -0.47462  -0.46494  -0.45657  -0.45542  -0.44025
  Beta  occ. eigenvalues --   -0.42835  -0.42090  -0.40437  -0.40022  -0.38741
  Beta  occ. eigenvalues --   -0.34772  -0.34161  -0.33094  -0.31877  -0.31234
  Beta  occ. eigenvalues --   -0.30083  -0.29282  -0.28889  -0.28157
  Beta virt. eigenvalues --   -0.14398  -0.11604  -0.05597  -0.03765  -0.02079
  Beta virt. eigenvalues --   -0.00909  -0.00551   0.00386   0.01163   0.01847
  Beta virt. eigenvalues --    0.02241   0.03130   0.04088   0.04426   0.04626

 Mulliken charges and spin densities:
               1          2
     1  C   -1.312558  -0.000000
     2  C    1.864892   0.000000
     3  C   -0.340438  -0.000000
     4  C   -0.374774  -0.000000
     5  C    0.134116   0.000000
     6  C   -0.087402  -0.000000
     7  O   -0.229118  -0.000000
     8  O   -0.286673  -0.000000
     9  C    0.948958   0.000000
    10  H    0.250759   0.000000
    11  H    0.259291  -0.000000
    12  H    0.248625  -0.000000
    13  C   -0.258299  -0.000000
    14  C   -0.078401   0.000000
    15  C   -0.369016  -0.000000
    16  C   -0.411517  -0.000000
    17  C   -0.591890   0.000000
    18  N   -0.260658   0.000000
    19  O   -0.002040  -0.000000
    20  O   -0.021762  -0.000000
    21  H    0.259020   0.000000
    22  H    0.215618  -0.000000
    23  H    0.218870   0.000000
    24  H    0.224398  -0.000000
 Sum of Mulliken charges =   0.00000   0.00000

 Dipole moment (field-independent basis, Debye):
    X=              4.4247    Y=             -0.9201    Z=             -3.9937  Tot=              6.0310
 Quadrupole moment (field-independent basis, Debye-Ang):
   XX=            -98.4043   YY=           -104.1552   ZZ=            -89.7823
   XY=              0.9104   XZ=            -13.1370   YZ=            -20.6488

  Exact polarizability: 197.999  67.456 282.376 -28.626  25.407 209.325
 Approx polarizability: 244.263  91.935 350.705 -15.457  61.049 248.974

                      1                      2                      3
                      A                      A                      A
 Frequencies --     38.3085                63.7068                66.1680
 Red. masses --     11.1027                 7.0524                 7.1870
 Frc consts  --      0.0096                 0.0169                 0.0185
 IR Inten    --      1.1438                10.8439                 3.9463

                      4                      5                      6
                      A                      A                      A
 Frequencies --     84.6242               119.5833               146.9981
 Red. masses --      6.0948                 8.8959                 6.4927
 Frc consts  --      0.0257                 0.0750                 0.0827
 IR Inten    --      3.4523                 7.4316                 0.3696

                      7                      8                      9
                      A                      A                      A
 Frequencies --    183.7914               232.1246               261.1151
 Red. masses --      7.3622                 6.2685                 7.0574
 Frc consts  --      0.1465                 0.1990                 0.2835
 IR Inten    --      5.8260                 1.3154                10.7089

                     10                     11                     12
                      A                      A                      A
 Frequencies --    274.0068               312.0878               389.7828
 Red. masses --      5.4715                 5.5689                 8.0679
 Frc consts  --      0.2420                 0.3196                 0.7222
 IR Inten    --      0.5788                 2.8488                 6.8131

                     13                     14                     15
                      A                      A                      A
 Frequencies --    416.3697               427.6642               458.6956
 Red. masses --      3.9011                 8.8755                 5.2530
 Frc consts  --      0.3985                 0.9564                 0.6512
 IR Inten    --      2.3972                37.6946                 3.6082

                     16                     17                     18
                      A                      A                      A
 Frequencies --    470.4814               503.3317               555.7705
 Red. masses --      6.5740                 4.2007                 5.1580
 Frc consts  --      0.8574                 0.6270                 0.9387
 IR Inten    --      2.2773                 1.8237                13.3189

                     19                     20                     21
                      A                      A                      A
 Frequencies --    563.0266               625.0799               631.4907
 Red. masses --      4.9431                 5.0880                 3.0721
 Frc consts  --      0.9232                 1.1713                 0.7218
 IR Inten    --      0.6483                 2.9836                 3.4219

                     22                     23                     24
                      A                      A                      A
 Frequencies --    668.3876               715.2972               717.8040
 Red. masses --      6.4235                 6.7560                 4.6325
 Frc consts  --      1.6907                 2.0366                 1.4063
 IR Inten    --      3.6032                17.3234                26.5234

                     25                     26                     27
                      A                      A                      A
 Frequencies --    749.9189               794.8133               803.5996
 Red. masses --      2.2011                 3.0852                 2.1519
 Frc consts  --      0.7293                 1.1483                 0.8188
 IR Inten    --     54.0046                 5.2358                27.0615

                     28                     29                     30
                      A                      A                      A
 Frequencies --    808.4606               844.1489               850.8213
 Red. masses --      4.4943                 5.1702                 2.4717
 Frc consts  --      1.7307                 2.1707                 1.0542
 IR Inten    --      4.3316                37.3262                26.6608

                     31                     32                     33
                      A                      A                      A
 Frequencies --    875.9629               903.1295               938.6723
 Red. masses --      7.2386                 1.5195                 1.5869
 Frc consts  --      3.2725                 0.7302                 0.8238
 IR Inten    --     20.6654                10.5358                68.5280

                     34                     35                     36
                      A                      A                      A
 Frequencies --    985.0717               990.1474              1019.5797
 Red. masses --      2.3310                 1.8913                 1.2734
 Frc consts  --      1.3327                 1.0925                 0.7800
 IR Inten    --     29.3105                36.4359                 0.4061

                     37                     38                     39
                      A                      A                      A
 Frequencies --   1020.4889              1063.9995              1095.5796
 Red. masses --      1.3392                 2.5666                 2.8158
 Frc consts  --      0.8217                 1.7119                 1.9913
 IR Inten    --      1.2948                 0.1200                10.8646

                     40                     41                     42
                      A                      A                      A
 Frequencies --   1115.9654              1164.2130              1185.7290
 Red. masses --      1.6023                 1.8668                 1.1041
 Frc consts  --      1.1757                 1.4908                 0.9146
 IR Inten    --    128.6073                18.1546                 2.6298

                     43                     44                     45
                      A                      A                      A
 Frequencies --   1207.0436              1259.4553              1287.0162
 Red. masses --      1.9549                 2.0186                 2.3967
 Frc consts  --      1.6781                 1.8866                 2.3390
 IR Inten    --     17.1378                25.5652                88.0105

                     46                     47                     48
                      A                      A                      A
 Frequencies --   1297.7203              1341.7775              1353.4823
 Red. masses --      2.2177                 4.8145                 2.3317
 Frc consts  --      2.2005                 5.1069                 2.5167
 IR Inten    --    146.1106                25.9386                35.5364

                     49                     50                     51
                      A                      A                      A
 Frequencies --   1363.0927              1391.7380              1466.9778
 Red. masses --     12.2052                 1.9252                 2.2018
 Frc consts  --     13.3612                 2.1971                 2.7917
 IR Inten    --    551.1557                 3.4465                28.3526

                     52                     53                     54
                      A                      A                      A
 Frequencies --   1502.7842              1544.1597              1603.8198
 Red. masses --      2.7664                 9.0480                 5.5421
 Frc consts  --      3.6810                12.7113                 8.3992
 IR Inten    --     57.8803               632.6620                45.3521

                     55                     56                     57
                      A                      A                      A
 Frequencies --   1638.0362              1646.0259              1671.6395
 Red. masses --      7.0023                 7.9465                10.5312
 Frc consts  --     11.0697                12.6852                17.3385
 IR Inten    --     49.7513                77.4983                24.3979

                     58                     59                     60
                      A                      A                      A
 Frequencies --   1694.0100              1713.2935              3184.9934
 Red. masses --     10.3180                 9.1027                 1.0878
 Frc consts  --     17.4453                15.7428                 6.5014
 IR Inten    --   1124.2641                33.7467                 2.7601

                     61                     62                     63
                      A                      A                      A
 Frequencies --   3186.6216              3188.3334              3197.3750
 Red. masses --      1.0879                 1.0925                 1.0914
 Frc consts  --      6.5090                 6.5434                 6.5736
 IR Inten    --      1.4686                 1.0592                 4.5350

                     64                     65                     66
                      A                      A                      A
 Frequencies --   3200.9584              3205.2344              3222.6637
 Red. masses --      1.0997                 1.0962                 1.0941
 Frc consts  --      6.6390                 6.6354                 6.6947
 IR Inten    --      2.6484                 8.2908                 2.7070

 - Thermochemistry -
 -------------------
 Temperature   298.150 Kelvin.  Pressure   1.00000 Atm.
 Atom     1 has atomic number  6 and mass  12.00000

 Molecular mass:   229.03751 amu.
 Principal axes and moments of inertia in atomic units:
                           1         2         3
     Eigenvalues --  2187.465234890.002066028.02995
           X            0.38724  -0.39621   0.83250
           Y            0.88385   0.41650  -0.21290
           Z           -0.26239   0.81825   0.51148
 This molecule is an asymmetric top.
 Rotational symmetry number  1.
 Warning -- assumption of classical behavior for rotation
           may cause significant error
 Rotational temperatures (Kelvin)      0.03960     0.01771     0.01437
 Rotational constants (GHZ):           0.82504     0.36907     0.29939
 Zero-point vibrational energy     439653.1 (Joules/Mol)
                                  105.07960 (Kcal/Mol)
 Warning -- explicit consideration of  19 degrees of freedom as
           vibrations may cause significant error
 Vibrational temperatures:     55.12    91.66    95.20   121.76   172.05
          (Kelvin)            211.50   264.43   333.98   375.69   394.23
                              449.02   560.81   599.06   615.31   659.96
                              676.92   724.18   799.63   810.07   899.35
                              908.57   961.66  1029.15  1032.76  1078.97
                             1143.56  1156.20  1163.19  1214.54  1224.14
                             1260.32  1299.40  1350.54  1417.30  1424.60
                             1466.95  1468.26  1530.86  1576.29  1605.63
                             1675.04  1706.00  1736.67  1812.08  1851.73
                             1867.13  1930.52  1947.36  1961.19  2002.40
                             2110.65  2162.17  2221.70  2307.54  2356.77
                             2368.26  2405.12  2437.30  2465.05  4582.50
                             4584.84  4587.30  4600.31  4605.47  4611.62
                             4636.69

 Zero-point correction=                           0.167455 (Hartree/Particle)
 Thermal correction to Energy=                    0.180907
 Thermal correction to Enthalpy=                  0.181852
 Thermal correction to Gibbs Free Energy=         0.126136
 Sum of electronic and zero-point Energies=           -817.077828
 Sum of electronic and thermal Energies=              -817.064375
 Sum of electronic and thermal Enthalpies=            -817.063431
 Sum of electronic and thermal Free Energies=         -817.119147

                     E (Thermal)             CV                S
                      KCal/Mol        Cal/Mol-Kelvin    Cal/Mol-Kelvin
 Total                  113.521             51.101            117.264
 Electronic               0.000              0.000              0.000
 Translational            0.889              2.981             42.188
 Rotational               0.889              2.981             32.533
 Vibrational            111.744             45.139             42.542
 Vibration     1          0.594              1.982              5.345
 Vibration     2          0.597              1.972              4.339
 Vibration     3          0.598              1.970              4.264
 Vibration     4          0.601              1.960              3.781
 Vibration     5          0.609              1.933              3.107
 Vibration     6          0.617              1.906              2.711
 Vibration     7          0.631              1.862              2.290
 Vibration     8          0.653              1.792              1.862
 Vibration     9          0.669              1.744              1.654
 Vibration    10          0.676              1.721              1.571
 Vibration    11          0.700              1.651              1.351
 Vibration    12          0.758              1.492              1.001
 Vibration    13          0.780              1.435              0.904
 Vibration    14          0.789              1.410              0.866
 Vibration    15          0.817              1.342              0.770
 Vibration    16          0.828              1.316              0.736
 Vibration    17          0.859              1.243              0.650
 Vibration    18          0.911              1.127              0.532
 Vibration    19          0.919              1.111              0.518

 Optimization completed.
    -- Stationary point found.
 Normal termination of Gaussian 16 at Sat Feb 10 12:06:24 2024.
