 Gaussian 16, Revision A.03,
 Gaussian 16:  ES64L-G16RevA.03 25-Dec-2016

 --------------------------------------
 #P UB3LYP/6-311++G(d,p) nosym opt freq
 --------------------------------------

 --------
 Oxidized
 --------
 Symbolic Z-matrix:
 Charge =  0 Multiplicity = 1

 SCF Done:  E(UB3LYP) =  -910.311385730     A.U. after   18 cycles
 SCF Done:  E(UB3LYP) =  -910.356660177     A.U. after   15 cycles
 SCF Done:  E(UB3LYP) =  -910.383553487     A.U. after   15 cycles
 SCF Done:  E(UB3LYP) =  -910.409150305     A.U. after   14 cycles
 SCF Done:  E(UB3LYP) =  -910.441873791     A.U. after   15 cycles
 SCF Done:  E(UB3LYP) =  -910.452368684     A.U. after   14 cycles
 SCF Done:  E(UB3LYP) =  -910.459769585     A.U. after   15 cycles
 SCF Done:  E(UB3LYP) =  -910.463148428     A.U. after   14 cycles
 SCF Done:  E(UB3LYP) =  -910.466606842     A.U. after   14 cycles
 SCF Done:  E(UB3LYP) =  -910.471378482     A.U. after   16 cycles
 SCF Done:  E(UB3LYP) =  -910.479078441     A.U. after   13 cycles
 SCF Done:  E(UB3LYP) =  -910.479111750     A.U. after   11 cycles
 SCF Done:  E(UB3LYP) =  -910.479138077     A.U. after   11 cycles
 SCF Done:  E(UB3LYP) =  -910.479156751     A.U. after   11 cycles
 SCF Done:  E(UB3LYP) =  -910.479163762     A.U. after   11 cycles
 SCF Done:  E(UB3LYP) =  -910.479165488     A.U. after   11 cycles
 SCF Done:  E(UB3LYP) =  -910.479166791     A.U. after   10 cycles
 SCF Done:  E(UB3LYP) =  -910.479167382     A.U. after    9 cycles
 SCF Done:  E(UB3LYP) =  -910.479167431     A.U. after    8 cycles
 Optimization completed.
    -- Stationary point found.
 Normal termination of Gaussian 16 at Thu Dec 21 09:38:03 2023.

 ----------------------------------------------------------------------
 #P Geom=AllCheck Guess=TCheck SCRF=Check GenChk UB3LYP/6-311++G(d,p) F
 req
 ----------------------------------------------------------------------

 Structure from the checkpoint file:  "169.chk"
 --------
 Oxidized
 --------
 Charge =  0 Multiplicity = 1

                          Input orientation:
 ---------------------------------------------------------------------
 Center     Atomic      Atomic             Coordinates (Angstroms)
 Number     Number       Type             X           Y           Z
 ---------------------------------------------------------------------
      1          7           0       -3.446467    1.582647    0.424753
      2          6           0       -2.846019    0.361183    0.276189
      3          6           0       -3.674664   -0.788156    0.248238
      4          6           0       -3.155248   -2.046548    0.134196
      5          6           0       -1.758733   -2.272302    0.049650
      6          7           0       -1.324107   -3.562624   -0.095039
      7          6           0       -0.897544   -1.147709    0.083376
      8          6           0        0.555149   -1.341569    0.039662
      9          8           0        1.035225   -2.501741   -0.016493
     10          6           0        1.445706   -0.176997    0.061627
     11          6           0        2.849796   -0.364396    0.031926
     12          7           0        3.456894   -1.591432    0.054784
     13          6           0        3.676700    0.786391    0.014071
     14          6           0        3.153200    2.048228    0.021785
     15          6           0        1.754902    2.275507    0.060272
     16          7           0        1.313679    3.571353    0.032997
     17          6           0        0.896046    1.148963    0.088124
     18          6           0       -0.555190    1.341578    0.169559
     19          8           0       -1.035311    2.501737    0.225976
     20          6           0       -1.444279    0.175795    0.185015
     21          1           0       -2.856141    2.397357    0.309835
     22          1           0       -4.438208    1.650079    0.268946
     23          1           0       -4.749551   -0.654886    0.321069
     24          1           0       -3.822032   -2.902722    0.105691
     25          1           0       -1.968730   -4.309234    0.103570
     26          1           0       -0.326294   -3.718012   -0.019641
     27          1           0        4.433343   -1.646212   -0.181746
     28          1           0        2.857393   -2.398406   -0.067055
     29          1           0        4.753657    0.651338   -0.005132
     30          1           0        3.817917    2.906119   -0.003043
     31          1           0        0.325129    3.719304    0.195224
     32          1           0        1.973784    4.305366    0.227622
 ---------------------------------------------------------------------

 SCF Done:  E(UB3LYP) =  -910.479167431     A.U. after    1 cycles

 Alpha  occ. eigenvalues --  -19.09721 -19.09721 -14.31764 -14.31763 -14.31762
 Alpha  occ. eigenvalues --  -14.31761 -10.25237 -10.25237 -10.22644 -10.22643
 Alpha  occ. eigenvalues --  -10.22642 -10.22641 -10.18703 -10.18703 -10.18636
 Alpha  occ. eigenvalues --  -10.18636 -10.18351 -10.18349 -10.18309 -10.18309
 Alpha  occ. eigenvalues --   -1.03040  -1.02802  -0.93376  -0.92860  -0.92338
 Alpha  occ. eigenvalues --   -0.91844  -0.84757  -0.83035  -0.79397  -0.75816
 Alpha  occ. eigenvalues --   -0.73543  -0.72178  -0.67133  -0.65255  -0.65064
 Alpha  occ. eigenvalues --   -0.60200  -0.57878  -0.57834  -0.55853  -0.54008
 Alpha  occ. eigenvalues --   -0.52864  -0.52004  -0.50447  -0.50043  -0.49151
 Alpha  occ. eigenvalues --   -0.48306  -0.46370  -0.45699  -0.45036  -0.43812
 Alpha  occ. eigenvalues --   -0.42481  -0.42410  -0.41357  -0.40951  -0.40342
 Alpha  occ. eigenvalues --   -0.39692  -0.38365  -0.38312  -0.36788  -0.36661
 Alpha  occ. eigenvalues --   -0.35646  -0.34050  -0.28461  -0.27451  -0.26783
 Alpha  occ. eigenvalues --   -0.26055  -0.25897  -0.25186  -0.19984  -0.17871
 Alpha virt. eigenvalues --   -0.09172  -0.03508  -0.02498  -0.01024  -0.00853
 Alpha virt. eigenvalues --   -0.00175   0.00351   0.01437   0.01715   0.02458
 Alpha virt. eigenvalues --    0.03331   0.03428   0.04364   0.04864   0.05538

  Beta  occ. eigenvalues --  -19.09721 -19.09721 -14.31764 -14.31763 -14.31762
  Beta  occ. eigenvalues --  -14.31761 -10.25237 -10.25237 -10.22644 -10.22643
  Beta  occ. eigenvalues --  -10.22642 -10.22641 -10.18703 -10.18703 -10.18636
  Beta  occ. eigenvalues --  -10.18636 -10.18351 -10.18349 -10.18309 -10.18309
  Beta  occ. eigenvalues --   -1.03040  -1.02802  -0.93376  -0.92860  -0.92338
  Beta  occ. eigenvalues --   -0.91844  -0.84757  -0.83035  -0.79397  -0.75816
  Beta  occ. eigenvalues --   -0.73543  -0.72178  -0.67133  -0.65255  -0.65064
  Beta  occ. eigenvalues --   -0.60200  -0.57878  -0.57834  -0.55853  -0.54008
  Beta  occ. eigenvalues --   -0.52864  -0.52004  -0.50447  -0.50043  -0.49151
  Beta  occ. eigenvalues --   -0.48306  -0.46370  -0.45699  -0.45036  -0.43812
  Beta  occ. eigenvalues --   -0.42481  -0.42410  -0.41357  -0.40951  -0.40342
  Beta  occ. eigenvalues --   -0.39692  -0.38365  -0.38312  -0.36788  -0.36661
  Beta  occ. eigenvalues --   -0.35646  -0.34050  -0.28461  -0.27451  -0.26783
  Beta  occ. eigenvalues --   -0.26055  -0.25897  -0.25186  -0.19984  -0.17871
  Beta virt. eigenvalues --   -0.09172  -0.03508  -0.02498  -0.01024  -0.00853
  Beta virt. eigenvalues --   -0.00175   0.00351   0.01437   0.01715   0.02458
  Beta virt. eigenvalues --    0.03331   0.03428   0.04364   0.04864   0.05538

 Mulliken charges and spin densities:
               1          2
     1  N   -0.373067   0.000000
     2  C   -0.066594   0.000000
     3  C   -0.310443  -0.000000
     4  C   -0.310611  -0.000000
     5  C   -0.067451   0.000000
     6  N   -0.372650  -0.000000
     7  C    0.552679   0.000000
     8  C   -0.690586  -0.000000
     9  O   -0.338973   0.000000
    10  C    0.552350  -0.000000
    11  C   -0.067026   0.000000
    12  N   -0.372827  -0.000000
    13  C   -0.310231   0.000000
    14  C   -0.310064   0.000000
    15  C   -0.067664  -0.000000
    16  N   -0.372770  -0.000000
    17  C    0.552581  -0.000000
    18  C   -0.690320   0.000000
    19  O   -0.339092  -0.000000
    20  C    0.552015  -0.000000
    21  H    0.323395  -0.000000
    22  H    0.243138   0.000000
    23  H    0.146282  -0.000000
    24  H    0.146302  -0.000000
    25  H    0.243012   0.000000
    26  H    0.323276   0.000000
    27  H    0.243089  -0.000000
    28  H    0.323296   0.000000
    29  H    0.146286   0.000000
    30  H    0.146268   0.000000
    31  H    0.323304   0.000000
    32  H    0.243095  -0.000000
 Sum of Mulliken charges =  -0.00000   0.00000

 Dipole moment (field-independent basis, Debye):
    X=             -0.0001    Y=              0.0018    Z=              0.0019  Tot=              0.0027
 Quadrupole moment (field-independent basis, Debye-Ang):
   XX=            -83.5603   YY=           -101.5365   ZZ=           -124.0277
   XY=              9.0342   XZ=             -1.2880   YZ=              0.3703

  Exact polarizability: 365.816  43.469 279.602  -8.833   4.056 102.306
 Approx polarizability: 650.885  73.284 505.655 -16.469   8.161 166.020

                      1                      2                      3
                      A                      A                      A
 Frequencies --     39.6537                54.4270               112.7494
 Red. masses --      6.2755                 5.7983                10.9470
 Frc consts  --      0.0058                 0.0101                 0.0820
 IR Inten    --      6.6610                 0.0000                 3.9068

                      4                      5                      6
                      A                      A                      A
 Frequencies --    125.2439               137.9870               183.1611
 Red. masses --      5.1060                 5.7890                 5.2515
 Frc consts  --      0.0472                 0.0649                 0.1038
 IR Inten    --      1.6074                 0.0951                29.9336

                      7                      8                      9
                      A                      A                      A
 Frequencies --    219.3487               239.0735               296.3229
 Red. masses --      4.8881                 2.6129                 2.1525
 Frc consts  --      0.1386                 0.0880                 0.1114
 IR Inten    --      7.8437                28.7540                 0.4478

                     10                     11                     12
                      A                      A                      A
 Frequencies --    302.1976               308.3848               319.5882
 Red. masses --      1.9185                 1.1790                 1.5887
 Frc consts  --      0.1032                 0.0661                 0.0956
 IR Inten    --    295.5500               239.3426               147.2680

                     13                     14                     15
                      A                      A                      A
 Frequencies --    327.9237               331.7937               348.1634
 Red. masses --      2.1237                 1.6650                 5.1764
 Frc consts  --      0.1346                 0.1080                 0.3697
 IR Inten    --    175.4943                 0.4475                 0.1072

                     16                     17                     18
                      A                      A                      A
 Frequencies --    348.6607               380.6660               420.8279
 Red. masses --      5.4727                 3.0838                 4.6071
 Frc consts  --      0.3920                 0.2633                 0.4807
 IR Inten    --      6.0711                11.2599                 0.0001

                     19                     20                     21
                      A                      A                      A
 Frequencies --    434.2577               445.2879               457.8107
 Red. masses --      6.9446                 9.0400                 6.0043
 Frc consts  --      0.7716                 1.0561                 0.7415
 IR Inten    --      0.1557                13.7606                 0.0001

                     22                     23                     24
                      A                      A                      A
 Frequencies --    469.8478               474.7529               475.7883
 Red. masses --      6.5016                 3.4772                 3.1879
 Frc consts  --      0.8456                 0.4618                 0.4252
 IR Inten    --     26.5181                 9.0973                 0.2452

                     25                     26                     27
                      A                      A                      A
 Frequencies --    500.9275               502.0608               540.5869
 Red. masses --      5.7970                 7.3804                 5.7070
 Frc consts  --      0.8570                 1.0961                 0.9826
 IR Inten    --      0.0052                19.5074                 0.0002

                     28                     29                     30
                      A                      A                      A
 Frequencies --    562.1561               577.5982               598.4907
 Red. masses --      3.0737                 1.7429                 2.9467
 Frc consts  --      0.5723                 0.3426                 0.6219
 IR Inten    --     54.7903                26.7106                 1.5687

                     31                     32                     33
                      A                      A                      A
 Frequencies --    631.3270               648.5742               650.3479
 Red. masses --      1.0817                 1.1513                 1.1530
 Frc consts  --      0.2540                 0.2853                 0.2873
 IR Inten    --      0.0002               128.2534                 4.0210

                     34                     35                     36
                      A                      A                      A
 Frequencies --    661.4362               682.6812               726.3842
 Red. masses --      1.7047                 4.6418                 5.9408
 Frc consts  --      0.4394                 1.2746                 1.8468
 IR Inten    --     16.5893                 2.5251                 0.0178

                     37                     38                     39
                      A                      A                      A
 Frequencies --    741.3772               761.6528               793.3713
 Red. masses --      7.2825                 6.2026                 4.8306
 Frc consts  --      2.3583                 2.1200                 1.7915
 IR Inten    --      0.0000                 1.7332                 1.2812

                     40                     41                     42
                      A                      A                      A
 Frequencies --    801.0562               829.0980               830.5574
 Red. masses --     10.3860                 1.6788                 7.9996
 Frc consts  --      3.9267                 0.6799                 3.2513
 IR Inten    --      0.0058                 0.1435                30.8754

                     43                     44                     45
                      A                      A                      A
 Frequencies --    832.7136               867.4375               950.6697
 Red. masses --      1.9004                 6.6465                 1.3152
 Frc consts  --      0.7764                 2.9466                 0.7003
 IR Inten    --     58.6342                 2.9432                 0.0000

                     46                     47                     48
                      A                      A                      A
 Frequencies --    951.2201               967.4349               981.5241
 Red. masses --      1.3179                 4.4785                 5.2560
 Frc consts  --      0.7026                 2.4696                 2.9834
 IR Inten    --      0.0475                 0.0702                39.6583

                     49                     50                     51
                      A                      A                      A
 Frequencies --    985.0226              1041.6108              1102.4109
 Red. masses --      3.3177                 1.7265                 1.6266
 Frc consts  --      1.8966                 1.1037                 1.1647
 IR Inten    --      0.0001               103.7525                34.8516

                     52                     53                     54
                      A                      A                      A
 Frequencies --   1109.1011              1114.0878              1191.6698
 Red. masses --      1.4323                 1.9851                 1.1551
 Frc consts  --      1.0381                 1.4517                 0.9664
 IR Inten    --      0.4891                 0.0004               149.5771

                     55                     56                     57
                      A                      A                      A
 Frequencies --   1204.6384              1220.4183              1263.1735
 Red. masses --      1.1644                 3.2052                 5.4574
 Frc consts  --      0.9956                 2.8127                 5.1306
 IR Inten    --      0.0002                 2.0698              1346.6439

                     58                     59                     60
                      A                      A                      A
 Frequencies --   1299.2714              1305.3129              1320.8215
 Red. masses --      5.0725                 4.6556                 1.9879
 Frc consts  --      5.0452                 4.6736                 2.0433
 IR Inten    --      0.0008                34.3433                 0.0621

                     61                     62                     63
                      A                      A                      A
 Frequencies --   1334.3754              1390.9416              1400.7501
 Red. masses --      2.4397                 5.2985                 5.0430
 Frc consts  --      2.5594                 6.0398                 5.8299
 IR Inten    --     39.6645                 0.4260                 0.0000

                     64                     65                     66
                      A                      A                      A
 Frequencies --   1422.2338              1443.9610              1447.9475
 Red. masses --      6.1313                 6.3990                 4.7552
 Frc consts  --      7.3071                 7.8610                 5.8739
 IR Inten    --     68.5073                 0.0033                29.0227

                     67                     68                     69
                      A                      A                      A
 Frequencies --   1449.8869              1484.1381              1532.8315
 Red. masses --      2.1572                 2.3892                 3.4088
 Frc consts  --      2.6718                 3.1006                 4.7188
 IR Inten    --     29.5740                 2.0896                 0.0000

                     70                     71                     72
                      A                      A                      A
 Frequencies --   1572.2973              1577.7012              1578.7013
 Red. masses --      1.3044                 4.0991                 4.9693
 Frc consts  --      1.8999                 6.0115                 7.2970
 IR Inten    --     55.7873               777.8290                 0.1456

                     73                     74                     75
                      A                      A                      A
 Frequencies --   1589.2033              1602.9337              1626.3705
 Red. masses --      1.4203                 3.3047                 1.5662
 Frc consts  --      2.1135                 5.0028                 2.4408
 IR Inten    --      2.0059               691.7016                 0.0032

                     76                     77                     78
                      A                      A                      A
 Frequencies --   1629.3440              1657.3885              1688.5778
 Red. masses --      2.0935                 4.9190                 7.4186
 Frc consts  --      3.2746                 7.9611                12.4627
 IR Inten    --      2.3141               466.1142                 0.0002

                     79                     80                     81
                      A                      A                      A
 Frequencies --   3149.9864              3150.0743              3167.7907
 Red. masses --      1.0862                 1.0862                 1.0955
 Frc consts  --      6.3500                 6.3504                 6.4768
 IR Inten    --      0.5270                22.0278                56.5262

                     82                     83                     84
                      A                      A                      A
 Frequencies --   3168.0078              3500.3839              3501.4171
 Red. masses --      1.0954                 1.0523                 1.0523
 Frc consts  --      6.4775                 7.5964                 7.6010
 IR Inten    --      0.2188                15.2999                 2.1404

                     85                     86                     87
                      A                      A                      A
 Frequencies --   3507.7907              3509.4980              3685.9790
 Red. masses --      1.0526                 1.0521                 1.0966
 Frc consts  --      7.6312                 7.6347                 8.7783
 IR Inten    --      0.0591               143.0699                17.7772

                     88                     89                     90
                      A                      A                      A
 Frequencies --   3686.3483              3687.0881              3687.3058
 Red. masses --      1.0967                 1.0972                 1.0972
 Frc consts  --      8.7810                 8.7886                 8.7894
 IR Inten    --    221.0414                 9.1739                 3.6979

 - Thermochemistry -
 -------------------
 Temperature   298.150 Kelvin.  Pressure   1.00000 Atm.
 Atom     1 has atomic number  7 and mass  14.00307

 Molecular mass:   268.09603 amu.
 Principal axes and moments of inertia in atomic units:
                           1         2         3
     Eigenvalues --  3430.403155551.344508972.98994
           X            0.92336  -0.38198   0.03873
           Y            0.38322   0.92309  -0.03227
           Z           -0.02343   0.04464   0.99873
 This molecule is an asymmetric top.
 Rotational symmetry number  1.
 Warning -- assumption of classical behavior for rotation
           may cause significant error
 Rotational temperatures (Kelvin)      0.02525     0.01560     0.00965
 Rotational constants (GHZ):           0.52610     0.32510     0.20113
 Zero-point vibrational energy     644986.9 (Joules/Mol)
                                  154.15558 (Kcal/Mol)
 Warning -- explicit consideration of  30 degrees of freedom as
           vibrations may cause significant error
 Vibrational temperatures:     57.05    78.31   162.22   180.20   198.53
          (Kelvin)            263.53   315.59   343.97   426.34   434.79
                              443.70   459.82   471.81   477.38   500.93
                              501.65   547.69   605.48   624.80   640.67
                              658.69   676.01   683.06   684.55   720.72
                              722.35   777.78   808.82   831.03   861.09
                              908.34   933.15   935.71   951.66   982.23
                             1045.10  1066.68  1095.85  1141.48  1152.54
                             1192.89  1194.99  1198.09  1248.05  1367.80
                             1368.59  1391.92  1412.19  1417.23  1498.65
                             1586.12  1595.75  1602.92  1714.55  1733.21
                             1755.91  1817.42  1869.36  1878.05  1900.37
                             1919.87  2001.25  2015.37  2046.28  2077.54
                             2083.27  2086.06  2135.34  2205.40  2262.19
                             2269.96  2271.40  2286.51  2306.26  2339.98
                             2344.26  2384.61  2429.49  4532.13  4532.25
                             4557.74  4558.06  5036.27  5037.76  5046.93
                             5049.38  5303.30  5303.83  5304.90  5305.21

 Zero-point correction=                           0.245663 (Hartree/Particle)
 Thermal correction to Energy=                    0.262191
 Thermal correction to Enthalpy=                  0.263135
 Thermal correction to Gibbs Free Energy=         0.203050
 Sum of electronic and zero-point Energies=           -910.233505
 Sum of electronic and thermal Energies=              -910.216977
 Sum of electronic and thermal Enthalpies=            -910.216032
 Sum of electronic and thermal Free Energies=         -910.276118

                     E (Thermal)             CV                S
                      KCal/Mol        Cal/Mol-Kelvin    Cal/Mol-Kelvin
 Total                  164.527             68.289            126.460
 Electronic               0.000              0.000              0.000
 Translational            0.889              2.981             42.658
 Rotational               0.889              2.981             33.502
 Vibrational            162.750             62.327             50.300
 Vibration     1          0.594              1.981              5.276
 Vibration     2          0.596              1.976              4.650
 Vibration     3          0.607              1.939              3.221
 Vibration     4          0.610              1.928              3.018
 Vibration     5          0.614              1.915              2.832
 Vibration     6          0.631              1.863              2.296
 Vibration     7          0.647              1.812              1.964
 Vibration     8          0.657              1.781              1.810
 Vibration     9          0.690              1.681              1.438
 Vibration    10          0.694              1.670              1.405
 Vibration    11          0.698              1.658              1.371
 Vibration    12          0.706              1.636              1.312
 Vibration    13          0.711              1.620              1.270
 Vibration    14          0.714              1.612              1.251
 Vibration    15          0.726              1.579              1.174
 Vibration    16          0.726              1.578              1.172
 Vibration    17          0.750              1.511              1.037
 Vibration    18          0.783              1.425              0.889
 Vibration    19          0.795              1.396              0.845
 Vibration    20          0.805              1.371              0.810
 Vibration    21          0.816              1.344              0.773
 Vibration    22          0.827              1.317              0.738
 Vibration    23          0.831              1.306              0.724
 Vibration    24          0.832              1.304              0.722
 Vibration    25          0.856              1.248              0.656
 Vibration    26          0.857              1.245              0.653
 Vibration    27          0.896              1.160              0.564
 Vibration    28          0.918              1.113              0.520
 Vibration    29          0.934              1.080              0.490
 Vibration    30          0.956              1.035              0.452

 Optimization completed.
    -- Stationary point found.
 Normal termination of Gaussian 16 at Thu Dec 21 11:01:30 2023.
