 Gaussian 16, Revision A.03,
 Gaussian 16:  ES64L-G16RevA.03 25-Dec-2016

 ----------------------------------------------------------------
 #P UB3LYP/6-311++G(d,p) SCRF=(PCM,Solvent=n,n-DiMethylFormamide)
 ----------------------------------------------------------------

 ------------------
 Radical PCM in DMF
 ------------------
 Symbolic Z-matrix:
 Charge = -1 Multiplicity = 2

                         Standard orientation:
 ---------------------------------------------------------------------
 Center     Atomic      Atomic             Coordinates (Angstroms)
 Number     Number       Type             X           Y           Z
 ---------------------------------------------------------------------
      1          6           0       -0.823616    1.220669   -0.125272
      2          6           0        0.350821    2.037740    0.059336
      3          6           0        1.612152    1.512365    0.148340
      4          6           0        1.860417    0.090977    0.074361
      5          6           0        0.687937   -0.766412   -0.084061
      6          6           0       -0.573554   -0.220008   -0.168647
      7          8           0       -1.982925    1.716313   -0.253558
      8          8           0        3.026706   -0.393838    0.151802
      9          6           0        0.929392   -2.249904   -0.164056
     10          8           0       -1.643947   -1.074421   -0.393982
     11          6           0       -2.703767   -1.011290    0.557838
     12          1           0        0.180720    3.110033    0.103916
     13          1           0        2.482473    2.150358    0.274461
     14          1           0        1.399286   -2.517605   -1.118668
     15          1           0       -0.002682   -2.807990   -0.073310
     16          1           0        1.633153   -2.558001    0.614302
     17          1           0       -3.449141   -1.741716    0.232593
     18          1           0       -3.140073   -0.011728    0.588651
     19          1           0       -2.341095   -1.292616    1.556922
 ---------------------------------------------------------------------

 SCF Done:  E(UB3LYP) =  -535.604388435     A.U. after   19 cycles

 The electronic state is 2-A.
 Alpha  occ. eigenvalues --  -19.13411 -19.07627 -19.07479 -10.21924 -10.21700
 Alpha  occ. eigenvalues --  -10.21476 -10.20361 -10.16717 -10.16106 -10.15988
 Alpha  occ. eigenvalues --  -10.15347  -1.04791  -0.99563  -0.99288  -0.82167
 Alpha  occ. eigenvalues --   -0.76263  -0.71172  -0.66627  -0.66261  -0.57813
 Alpha  occ. eigenvalues --   -0.56062  -0.49654  -0.48577  -0.45688  -0.45460
 Alpha  occ. eigenvalues --   -0.43112  -0.41559  -0.41462  -0.39981  -0.39475
 Alpha  occ. eigenvalues --   -0.38586  -0.36660  -0.36269  -0.36072  -0.34089
 Alpha  occ. eigenvalues --   -0.29227  -0.27747  -0.24178  -0.23688  -0.23052
 Alpha  occ. eigenvalues --   -0.16000
 Alpha virt. eigenvalues --   -0.00352   0.00029   0.01134   0.01275   0.02545
 Alpha virt. eigenvalues --    0.03240   0.03371   0.03878   0.04497   0.05047
 Alpha virt. eigenvalues --    0.06223   0.06919   0.07266   0.08440   0.09146

  Beta  occ. eigenvalues --  -19.13396 -19.06930 -19.06810 -10.21753 -10.21558
  Beta  occ. eigenvalues --  -10.21394 -10.20358 -10.16640 -10.15994 -10.15839
  Beta  occ. eigenvalues --  -10.15354  -1.04684  -0.98391  -0.98080  -0.81601
  Beta  occ. eigenvalues --   -0.76000  -0.70890  -0.66346  -0.65468  -0.57456
  Beta  occ. eigenvalues --   -0.55712  -0.49502  -0.48263  -0.45399  -0.45124
  Beta  occ. eigenvalues --   -0.42936  -0.41094  -0.40906  -0.39717  -0.39054
  Beta  occ. eigenvalues --   -0.37094  -0.36027  -0.35838  -0.34208  -0.33645
  Beta  occ. eigenvalues --   -0.28897  -0.24716  -0.23494  -0.23041  -0.22365
  Beta virt. eigenvalues --   -0.08758  -0.00227   0.00953   0.01198   0.01608
  Beta virt. eigenvalues --    0.02819   0.03376   0.03907   0.04534   0.04970
  Beta virt. eigenvalues --    0.05281   0.06252   0.07167   0.07384   0.08504

 Mulliken charges and spin densities:
               1          2
     1  C   -0.040121   0.099917
     2  C   -0.055871   0.095318
     3  C    0.225463   0.114664
     4  C   -1.125683   0.091435
     5  C    2.021504   0.057878
     6  C   -1.592240   0.052165
     7  O   -0.502528   0.249548
     8  O   -0.493395   0.238993
     9  C   -0.229144   0.007087
    10  O   -0.214507   0.000986
    11  C   -0.301417   0.003156
    12  H    0.185837  -0.007317
    13  H    0.179001  -0.009743
    14  H    0.168765   0.003921
    15  H    0.165113  -0.000143
    16  H    0.153686   0.002643
    17  H    0.149195   0.000358
    18  H    0.173445  -0.001061
    19  H    0.132899   0.000193
 Sum of Mulliken charges =  -1.00000   1.00000

 Dipole moment (field-independent basis, Debye):
    X=             -2.9340    Y=             -2.6763    Z=              1.5533  Tot=              4.2642
 Quadrupole moment (field-independent basis, Debye-Ang):
   XX=           -100.4916   YY=            -75.1156   ZZ=            -69.4230
   XY=             12.9485   XZ=             -5.6061   YZ=              0.1470

 Normal termination of Gaussian 16 at Wed Jan 24 22:49:49 2024.
