 Gaussian 16, Revision A.03,
 Gaussian 16:  ES64L-G16RevA.03 25-Dec-2016

 --------------------------------------
 #P UB3LYP/6-311++G(d,p) nosym opt freq
 --------------------------------------

 --------
 Oxidized
 --------
 Symbolic Z-matrix:
 Charge =  0 Multiplicity = 1

 SCF Done:  E(UB3LYP) =  -878.734054947     A.U. after   16 cycles
 SCF Done:  E(UB3LYP) =  -878.771918298     A.U. after   14 cycles
 SCF Done:  E(UB3LYP) =  -878.794053267     A.U. after   16 cycles
 SCF Done:  E(UB3LYP) =  -878.799850914     A.U. after   14 cycles
 SCF Done:  E(UB3LYP) =  -878.800332529     A.U. after   13 cycles
 SCF Done:  E(UB3LYP) =  -878.800445117     A.U. after   12 cycles
 SCF Done:  E(UB3LYP) =  -878.800491870     A.U. after   11 cycles
 SCF Done:  E(UB3LYP) =  -878.800500715     A.U. after   11 cycles
 SCF Done:  E(UB3LYP) =  -878.800504765     A.U. after   11 cycles
 SCF Done:  E(UB3LYP) =  -878.800511217     A.U. after   10 cycles
 SCF Done:  E(UB3LYP) =  -878.800576031     A.U. after   11 cycles
 SCF Done:  E(UB3LYP) =  -878.800583605     A.U. after   10 cycles
 SCF Done:  E(UB3LYP) =  -878.800641422     A.U. after   12 cycles
 SCF Done:  E(UB3LYP) =  -878.800655804     A.U. after   11 cycles
 SCF Done:  E(UB3LYP) =  -878.800658770     A.U. after   10 cycles
 SCF Done:  E(UB3LYP) =  -878.800659772     A.U. after   10 cycles
 SCF Done:  E(UB3LYP) =  -878.800660178     A.U. after    9 cycles
 SCF Done:  E(UB3LYP) =  -878.800660222     A.U. after    8 cycles
 SCF Done:  E(UB3LYP) =  -878.800660234     A.U. after    8 cycles
 Optimization completed.
    -- Stationary point found.
 Normal termination of Gaussian 16 at Thu Dec 21 21:39:48 2023.

 ----------------------------------------------------------------------
 #P Geom=AllCheck Guess=TCheck SCRF=Check GenChk UB3LYP/6-311++G(d,p) F
 req
 ----------------------------------------------------------------------

 Structure from the checkpoint file:  "196.chk"
 --------
 Oxidized
 --------
 Charge =  0 Multiplicity = 1

                          Input orientation:
 ---------------------------------------------------------------------
 Center     Atomic      Atomic             Coordinates (Angstroms)
 Number     Number       Type             X           Y           Z
 ---------------------------------------------------------------------
      1          6           0       -4.676319    0.294709   -0.093440
      2          6           0       -3.224961   -0.104706   -0.026269
      3          6           0       -2.849955   -1.440352   -0.013609
      4          6           0       -1.499717   -1.818968    0.047415
      5          8           0       -1.225594   -3.129490    0.055513
      6          6           0       -0.492404   -0.824730    0.097419
      7          6           0        0.913968   -1.198473    0.160590
      8          8           0        1.249328   -2.413403    0.171876
      9          6           0        1.936283   -0.154012    0.210511
     10          6           0        3.309441   -0.500234    0.270959
     11          8           0        3.739707   -1.768259    0.285963
     12          6           0        4.278406    0.514954    0.317843
     13          6           0        3.897112    1.845022    0.305380
     14          6           0        2.545971    2.203786    0.246141
     15          6           0        1.573500    1.215440    0.199047
     16          6           0        0.137724    1.622654    0.135952
     17          8           0       -0.185314    2.799090    0.126810
     18          6           0       -0.886596    0.536593    0.084328
     19          6           0       -2.224366    0.884377    0.023871
     20          1           0       -4.871704    0.895298   -0.986879
     21          1           0       -5.332645   -0.576256   -0.117891
     22          1           0       -4.950685    0.906060    0.771348
     23          1           0       -3.591183   -2.230299   -0.050596
     24          1           0       -0.246065   -3.225749    0.100398
     25          1           0        2.945402   -2.350054    0.248338
     26          1           0        5.320343    0.222526    0.363525
     27          1           0        4.656906    2.617536    0.342051
     28          1           0        2.236633    3.240621    0.235901
     29          1           0       -2.483216    1.936317    0.015998
 ---------------------------------------------------------------------

 SCF Done:  E(UB3LYP) =  -878.800660234     A.U. after    1 cycles

 Alpha  occ. eigenvalues --  -19.16510 -19.16445 -19.14979 -19.12841 -10.29713
 Alpha  occ. eigenvalues --  -10.28208 -10.27210 -10.27201 -10.21883 -10.21471
 Alpha  occ. eigenvalues --  -10.21414 -10.21408 -10.21121 -10.20871 -10.20044
 Alpha  occ. eigenvalues --  -10.19739 -10.19696 -10.19511 -10.18811  -1.09984
 Alpha  occ. eigenvalues --   -1.08683  -1.06299  -1.06128  -0.89903  -0.88470
 Alpha  occ. eigenvalues --   -0.82945  -0.79133  -0.77987  -0.77369  -0.73273
 Alpha  occ. eigenvalues --   -0.69550  -0.67408  -0.65194  -0.62586  -0.61927
 Alpha  occ. eigenvalues --   -0.56948  -0.56021  -0.54727  -0.53577  -0.50975
 Alpha  occ. eigenvalues --   -0.50300  -0.49984  -0.47376  -0.47342  -0.46512
 Alpha  occ. eigenvalues --   -0.45834  -0.44741  -0.44710  -0.43253  -0.42706
 Alpha  occ. eigenvalues --   -0.42688  -0.41728  -0.40674  -0.40336  -0.39790
 Alpha  occ. eigenvalues --   -0.39043  -0.38186  -0.37551  -0.36244  -0.35033
 Alpha  occ. eigenvalues --   -0.30224  -0.29688  -0.27994  -0.27692  -0.25763
 Alpha  occ. eigenvalues --   -0.24990
 Alpha virt. eigenvalues --   -0.12505  -0.07153  -0.04277  -0.01959  -0.01185
 Alpha virt. eigenvalues --   -0.00551   0.00471   0.01316   0.01712   0.01809
 Alpha virt. eigenvalues --    0.03040   0.03196   0.03560   0.03852   0.03982

  Beta  occ. eigenvalues --  -19.16510 -19.16445 -19.14979 -19.12841 -10.29713
  Beta  occ. eigenvalues --  -10.28208 -10.27210 -10.27201 -10.21883 -10.21471
  Beta  occ. eigenvalues --  -10.21414 -10.21408 -10.21121 -10.20871 -10.20044
  Beta  occ. eigenvalues --  -10.19739 -10.19696 -10.19511 -10.18811  -1.09984
  Beta  occ. eigenvalues --   -1.08683  -1.06299  -1.06128  -0.89903  -0.88470
  Beta  occ. eigenvalues --   -0.82945  -0.79133  -0.77987  -0.77369  -0.73273
  Beta  occ. eigenvalues --   -0.69550  -0.67408  -0.65194  -0.62586  -0.61927
  Beta  occ. eigenvalues --   -0.56948  -0.56021  -0.54727  -0.53577  -0.50975
  Beta  occ. eigenvalues --   -0.50300  -0.49984  -0.47376  -0.47342  -0.46512
  Beta  occ. eigenvalues --   -0.45834  -0.44741  -0.44710  -0.43253  -0.42706
  Beta  occ. eigenvalues --   -0.42688  -0.41728  -0.40674  -0.40336  -0.39790
  Beta  occ. eigenvalues --   -0.39043  -0.38186  -0.37551  -0.36244  -0.35033
  Beta  occ. eigenvalues --   -0.30224  -0.29688  -0.27994  -0.27692  -0.25763
  Beta  occ. eigenvalues --   -0.24990
  Beta virt. eigenvalues --   -0.12505  -0.07153  -0.04277  -0.01959  -0.01185
  Beta virt. eigenvalues --   -0.00551   0.00471   0.01316   0.01712   0.01809
  Beta virt. eigenvalues --    0.03040   0.03196   0.03560   0.03852   0.03982

 Mulliken charges and spin densities:
               1          2
     1  C   -0.272070   0.000000
     2  C    0.609965   0.000000
     3  C   -0.920641   0.000000
     4  C   -0.141209   0.000000
     5  O   -0.276563  -0.000000
     6  C    0.473002  -0.000000
     7  C   -0.531070  -0.000000
     8  O   -0.374452  -0.000000
     9  C    0.495499  -0.000000
    10  C   -0.110638  -0.000000
    11  O   -0.278411   0.000000
    12  C   -0.133911  -0.000000
    13  C   -0.335830   0.000000
    14  C   -0.041653  -0.000000
    15  C    0.162692   0.000000
    16  C   -0.667252  -0.000000
    17  O   -0.204328   0.000000
    18  C    0.233757   0.000000
    19  C    0.185475  -0.000000
    20  H    0.174895  -0.000000
    21  H    0.166181   0.000000
    22  H    0.173645  -0.000000
    23  H    0.161777  -0.000000
    24  H    0.361778  -0.000000
    25  H    0.363077  -0.000000
    26  H    0.195596  -0.000000
    27  H    0.189176   0.000000
    28  H    0.175345   0.000000
    29  H    0.166168   0.000000
 Sum of Mulliken charges =  -0.00000  -0.00000

 Dipole moment (field-independent basis, Debye):
    X=             -1.0446    Y=              0.8739    Z=             -0.0518  Tot=              1.3629
 Quadrupole moment (field-independent basis, Debye-Ang):
   XX=            -91.5274   YY=           -119.6825   ZZ=           -111.1954
   XY=              6.9833   XZ=              0.8072   YZ=              0.3797

  Exact polarizability: 305.795  14.619 214.603   9.829   1.103  92.497
 Approx polarizability: 454.004   1.770 408.344  13.916   1.011 149.959

                      1                      2                      3
                      A                      A                      A
 Frequencies --     38.0483                47.6184                72.7979
 Red. masses --      5.3256                 1.0851                 5.5925
 Frc consts  --      0.0045                 0.0014                 0.0175
 IR Inten    --      3.1655                 0.0148                 0.2582

                      4                      5                      6
                      A                      A                      A
 Frequencies --    114.9755               141.0866               186.1974
 Red. masses --     10.8343                 5.4979                 4.6385
 Frc consts  --      0.0844                 0.0645                 0.0947
 IR Inten    --      1.3579                 0.0900                 0.0328

                      7                      8                      9
                      A                      A                      A
 Frequencies --    189.1080               228.0673               240.0987
 Red. masses --      5.0895                 4.5399                 5.0387
 Frc consts  --      0.1072                 0.1391                 0.1711
 IR Inten    --      0.0489                 0.1964                 0.0575

                     10                     11                     12
                      A                      A                      A
 Frequencies --    265.2852               290.6947               329.1484
 Red. masses --      4.6076                 5.9637                 6.3169
 Frc consts  --      0.1910                 0.2969                 0.4032
 IR Inten    --      1.7078                 0.5875                 1.0779

                     13                     14                     15
                      A                      A                      A
 Frequencies --    350.0419               376.3262               438.3450
 Red. masses --      5.2075                 7.9848                 7.3776
 Frc consts  --      0.3759                 0.6663                 0.8352
 IR Inten    --      1.5701                 7.1244                18.8769

                     16                     17                     18
                      A                      A                      A
 Frequencies --    440.1025               455.7476               483.8832
 Red. masses --      5.2529                 9.5488                 9.7103
 Frc consts  --      0.5995                 1.1685                 1.3396
 IR Inten    --      1.0931                12.5850                 2.6370

                     19                     20                     21
                      A                      A                      A
 Frequencies --    495.9642               499.9505               554.2152
 Red. masses --      5.1694                 4.5126                 8.0936
 Frc consts  --      0.7492                 0.6646                 1.4647
 IR Inten    --      0.0356                 5.5812                 3.6916

                     22                     23                     24
                      A                      A                      A
 Frequencies --    557.1858               572.7845               591.3300
 Red. masses --      4.6151                 7.2621                 4.1197
 Frc consts  --      0.8442                 1.4038                 0.8487
 IR Inten    --      0.0348                12.0610                 1.5372

                     25                     26                     27
                      A                      A                      A
 Frequencies --    615.7093               667.2898               680.1256
 Red. masses --      4.9903                 4.0389                 6.0221
 Frc consts  --      1.1146                 1.0596                 1.6413
 IR Inten    --      8.3369                 4.8159                 8.2822

                     28                     29                     30
                      A                      A                      A
 Frequencies --    709.6390               747.3387               758.6989
 Red. masses --      3.9839                 6.6298                 4.2287
 Frc consts  --      1.1821                 2.1817                 1.4342
 IR Inten    --      0.9817                 0.3575                23.4414

                     31                     32                     33
                      A                      A                      A
 Frequencies --    762.7983               774.1302               776.9262
 Red. masses --      3.3968                 1.1912                 1.1929
 Frc consts  --      1.1645                 0.4206                 0.4242
 IR Inten    --      0.9757               107.1838               113.9123

                     34                     35                     36
                      A                      A                      A
 Frequencies --    824.7378               828.7550               881.5438
 Red. masses --      1.5304                 8.0068                 1.3759
 Frc consts  --      0.6133                 3.2401                 0.6300
 IR Inten    --      8.1494                24.1640                17.4899

                     37                     38                     39
                      A                      A                      A
 Frequencies --    918.2293               929.1873               937.9531
 Red. masses --      5.9536                 1.3632                 1.4438
 Frc consts  --      2.9576                 0.6935                 0.7484
 IR Inten    --     29.8983                 0.3640                 0.4319

                     40                     41                     42
                      A                      A                      A
 Frequencies --    974.1562              1004.7781              1008.0592
 Red. masses --      6.4177                 1.3189                 1.8419
 Frc consts  --      3.5883                 0.7845                 1.1028
 IR Inten    --      0.5750                 0.4590                 2.6538

                     43                     44                     45
                      A                      A                      A
 Frequencies --   1042.1813              1058.9493              1072.9658
 Red. masses --      3.0208                 1.5529                 2.4940
 Frc consts  --      1.9331                 1.0260                 1.6917
 IR Inten    --     31.2754                 4.5198                11.4018

                     46                     47                     48
                      A                      A                      A
 Frequencies --   1106.0419              1153.0959              1184.2342
 Red. masses --      2.5410                 2.7269                 1.2843
 Frc consts  --      1.8315                 2.1362                 1.0612
 IR Inten    --     60.3663                 1.2252                41.8806

                     49                     50                     51
                      A                      A                      A
 Frequencies --   1195.3564              1236.4243              1246.0796
 Red. masses --      1.7194                 1.7133                 2.3909
 Frc consts  --      1.4475                 1.5431                 2.1873
 IR Inten    --     26.3679                87.8660               161.5002

                     52                     53                     54
                      A                      A                      A
 Frequencies --   1289.9993              1320.7253              1342.5307
 Red. masses --      2.5761                 4.8558                 2.6547
 Frc consts  --      2.5257                 4.9904                 2.8191
 IR Inten    --    420.0819               217.2842               148.0796

                     55                     56                     57
                      A                      A                      A
 Frequencies --   1347.9285              1395.0504              1409.4073
 Red. masses --      3.5002                 4.4502                 4.6812
 Frc consts  --      3.7469                 5.1028                 5.4787
 IR Inten    --     95.6087                68.9304               229.6008

                     58                     59                     60
                      A                      A                      A
 Frequencies --   1414.5030              1415.3638              1440.8840
 Red. masses --      1.4880                 2.5276                 3.3805
 Frc consts  --      1.7541                 2.9833                 4.1352
 IR Inten    --     75.5267                55.4065                 6.9636

                     61                     62                     63
                      A                      A                      A
 Frequencies --   1477.7629              1483.8083              1493.3165
 Red. masses --      2.5484                 1.0431                 1.3404
 Frc consts  --      3.2789                 1.3531                 1.7611
 IR Inten    --     54.1455                 8.5888                49.5999

                     64                     65                     66
                      A                      A                      A
 Frequencies --   1506.6910              1515.9352              1592.2477
 Red. masses --      2.3611                 3.1868                 3.1929
 Frc consts  --      3.1580                 4.3149                 4.7693
 IR Inten    --    183.0755                88.1072                51.0908

                     67                     68                     69
                      A                      A                      A
 Frequencies --   1600.5989              1624.4428              1641.4663
 Red. masses --      4.4910                 5.6027                 6.0361
 Frc consts  --      6.7789                 8.7108                 9.5824
 IR Inten    --     65.2788                40.3611                62.6566

                     70                     71                     72
                      A                      A                      A
 Frequencies --   1661.2078              1725.4503              3029.4444
 Red. masses --      5.9275                11.4650                 1.0371
 Frc consts  --      9.6377                20.1109                 5.6078
 IR Inten    --    463.2494                98.0432                16.2570

                     73                     74                     75
                      A                      A                      A
 Frequencies --   3080.0515              3113.5393              3176.1447
 Red. masses --      1.0999                 1.1011                 1.0884
 Frc consts  --      6.1480                 6.2892                 6.4690
 IR Inten    --      9.4664                17.1174                 7.9255

                     76                     77                     78
                      A                      A                      A
 Frequencies --   3185.4758              3191.9896              3198.0166
 Red. masses --      1.0910                 1.0907                 1.0934
 Frc consts  --      6.5228                 6.5475                 6.5888
 IR Inten    --      3.7902                 1.7972                 3.7628

                     79                     80                     81
                      A                      A                      A
 Frequencies --   3209.4873              3372.0015              3402.0398
 Red. masses --      1.0933                 1.0664                 1.0682
 Frc consts  --      6.6351                 7.1442                 7.2843
 IR Inten    --      2.7991               479.8243                39.2728

 - Thermochemistry -
 -------------------
 Temperature   298.150 Kelvin.  Pressure   1.00000 Atm.
 Atom     1 has atomic number  6 and mass  12.00000

 Molecular mass:   254.05791 amu.
 Principal axes and moments of inertia in atomic units:
                           1         2         3
     Eigenvalues --  2523.092216106.237148618.17719
           X            0.98945  -0.13750  -0.04565
           Y            0.13748   0.99050  -0.00364
           Z            0.04572  -0.00268   0.99895
 This molecule is an asymmetric top.
 Rotational symmetry number  1.
 Warning -- assumption of classical behavior for rotation
           may cause significant error
 Rotational temperatures (Kelvin)      0.03433     0.01418     0.01005
 Rotational constants (GHZ):           0.71529     0.29556     0.20941
 Zero-point vibrational energy     566503.0 (Joules/Mol)
                                  135.39746 (Kcal/Mol)
 Warning -- explicit consideration of  25 degrees of freedom as
           vibrations may cause significant error
 Vibrational temperatures:     54.74    68.51   104.74   165.42   202.99
          (Kelvin)            267.90   272.08   328.14   345.45   381.69
                              418.24   473.57   503.63   541.45   630.68
                              633.21   655.72   696.20   713.58   719.32
                              797.39   801.67   824.11   850.79   885.87
                              960.08   978.55  1021.01  1075.25  1091.60
                             1097.50  1113.80  1117.82  1186.61  1192.39
                             1268.34  1321.13  1336.89  1349.51  1401.59
                             1445.65  1450.37  1499.47  1523.59  1543.76
                             1591.35  1659.05  1703.85  1719.85  1778.94
                             1792.83  1856.02  1900.23  1931.60  1939.37
                             2007.17  2027.82  2035.15  2036.39  2073.11
                             2126.17  2134.87  2148.55  2167.79  2181.09
                             2290.89  2302.90  2337.21  2361.70  2390.11
                             2482.54  4358.69  4431.51  4479.69  4569.76
                             4583.19  4592.56  4601.23  4617.74  4851.56
                             4894.78

 Zero-point correction=                           0.215770 (Hartree/Particle)
 Thermal correction to Energy=                    0.230543
 Thermal correction to Enthalpy=                  0.231488
 Thermal correction to Gibbs Free Energy=         0.173576
 Sum of electronic and zero-point Energies=           -878.584891
 Sum of electronic and thermal Energies=              -878.570117
 Sum of electronic and thermal Enthalpies=            -878.569173
 Sum of electronic and thermal Free Energies=         -878.627084

                     E (Thermal)             CV                S
                      KCal/Mol        Cal/Mol-Kelvin    Cal/Mol-Kelvin
 Total                  144.668             58.838            121.886
 Electronic               0.000              0.000              0.000
 Translational            0.889              2.981             42.497
 Rotational               0.889              2.981             33.251
 Vibrational            142.891             52.876             46.137
 Vibration     1          0.594              1.982              5.358
 Vibration     2          0.595              1.978              4.914
 Vibration     3          0.599              1.967              4.076
 Vibration     4          0.608              1.937              3.183
 Vibration     5          0.615              1.912              2.789
 Vibration     6          0.632              1.859              2.265
 Vibration     7          0.633              1.855              2.237
 Vibration     8          0.651              1.798              1.894
 Vibration     9          0.657              1.779              1.802
 Vibration    10          0.671              1.737              1.627
 Vibration    11          0.687              1.691              1.470
 Vibration    12          0.712              1.617              1.264
 Vibration    13          0.727              1.575              1.166
 Vibration    14          0.747              1.521              1.054
 Vibration    15          0.799              1.387              0.832
 Vibration    16          0.800              1.383              0.826
 Vibration    17          0.814              1.348              0.779
 Vibration    18          0.840              1.286              0.700
 Vibration    19          0.852              1.259              0.668
 Vibration    20          0.855              1.250              0.658
 Vibration    21          0.910              1.130              0.536
 Vibration    22          0.913              1.124              0.529
 Vibration    23          0.929              1.090              0.499
 Vibration    24          0.949              1.050              0.465
 Vibration    25          0.975              0.999              0.423

                           ! Non-Optimized Parameters !
 Normal termination of Gaussian 16 at Thu Dec 21 22:57:51 2023.
