 Gaussian 16, Revision A.03,
 Gaussian 16:  ES64L-G16RevA.03 25-Dec-2016

 ----------------------------------------------------------------------
 #P UB3LYP/6-311++G(d,p) nosym opt freq SCRF=(PCM,Solvent=n,n-DiMethylF
 ormamide)
 ----------------------------------------------------------------------

 -------
 Reduced
 -------
 Symbolic Z-matrix:
 Charge = -2 Multiplicity = 1

 SCF Done:  E(UB3LYP) =  -917.148593050     A.U. after   17 cycles
 SCF Done:  E(UB3LYP) =  -917.150231197     A.U. after   14 cycles
 SCF Done:  E(UB3LYP) =  -917.150285749     A.U. after   14 cycles
 SCF Done:  E(UB3LYP) =  -917.150327897     A.U. after   14 cycles
 SCF Done:  E(UB3LYP) =  -917.150831453     A.U. after   14 cycles
 SCF Done:  E(UB3LYP) =  -917.150845411     A.U. after   12 cycles
 SCF Done:  E(UB3LYP) =  -917.150847527     A.U. after   12 cycles
 SCF Done:  E(UB3LYP) =  -917.150848388     A.U. after   10 cycles
 SCF Done:  E(UB3LYP) =  -917.150848838     A.U. after   10 cycles
 SCF Done:  E(UB3LYP) =  -917.150849034     A.U. after    8 cycles
 SCF Done:  E(UB3LYP) =  -917.150849149     A.U. after   10 cycles
 SCF Done:  E(UB3LYP) =  -917.150849197     A.U. after    9 cycles
 Optimization completed.
    -- Stationary point found.
 Normal termination of Gaussian 16 at Sat Feb 10 23:38:39 2024.

 ----------------------------------------------------------------------
 #P Geom=AllCheck Guess=TCheck SCRF=Check GenChk UB3LYP/6-311++G(d,p) F
 req
 ----------------------------------------------------------------------

 Structure from the checkpoint file:  "221-an.chk"
 -------
 Reduced
 -------
 Charge = -2 Multiplicity = 1

                          Input orientation:
 ---------------------------------------------------------------------
 Center     Atomic      Atomic             Coordinates (Angstroms)
 Number     Number       Type             X           Y           Z
 ---------------------------------------------------------------------
      1          6           0        4.979904   -2.501546    0.212183
      2          6           0        5.676442   -1.673023   -0.640675
      3          6           0        4.963552   -0.814450   -1.516404
      4          6           0        3.560963   -2.528037    0.248095
      5          6           0        2.833284   -1.655620   -0.641853
      6          6           0        3.586160   -0.814959   -1.508332
      7          6           0        2.887332   -3.422769    1.168551
      8          6           0        1.442658   -3.371829    1.125163
      9          6           0        0.720770   -2.482662    0.220423
     10          6           0        1.385139   -1.606885   -0.683185
     11          6           0        0.701335   -4.205098    1.980322
     12          6           0       -0.709435   -2.520742    0.272592
     13          6           0       -1.401729   -3.344112    1.117534
     14          8           0        3.536042   -4.201242    1.961702
     15          8           0        0.753556   -0.809934   -1.498313
     16          1           0        5.506737   -3.165335    0.888186
     17          1           0       -2.484315   -3.341226    1.124347
     18          1           0        3.029803   -0.164168   -2.172817
     19          1           0        1.253265   -4.859409    2.644127
     20          1           0       -1.244425   -1.857076   -0.397378
     21          6           0       -0.688727   -4.223596    2.007545
     22          1           0        5.505417   -0.158874   -2.191355
     23          6           0       -1.364892   -5.129859    2.932362
     24          8           0       -0.826919   -5.904179    3.718813
     25          8           0       -2.725560   -5.046819    2.851346
     26          6           0       -3.473706   -5.906333    3.725129
     27          1           0       -4.520688   -5.698021    3.513487
     28          1           0       -3.250841   -5.686640    4.770600
     29          1           0       -3.250952   -6.955251    3.522356
     30          1           0        6.761791   -1.675247   -0.644791
 ---------------------------------------------------------------------

 SCF Done:  E(UB3LYP) =  -917.150849197     A.U. after    1 cycles

 Alpha  occ. eigenvalues --  -19.15505 -19.09386 -19.03321 -19.01816 -10.28474
 Alpha  occ. eigenvalues --  -10.21498 -10.18964 -10.17500 -10.16059 -10.15971
 Alpha  occ. eigenvalues --  -10.15610 -10.15391 -10.15289 -10.15110 -10.15038
 Alpha  occ. eigenvalues --  -10.14781 -10.14716 -10.14594 -10.14366 -10.13727
 Alpha  occ. eigenvalues --   -1.09049  -1.00054  -0.94942  -0.92964  -0.83514
 Alpha  occ. eigenvalues --   -0.82900  -0.76758  -0.73852  -0.72880  -0.72737
 Alpha  occ. eigenvalues --   -0.70335  -0.64793  -0.62354  -0.60025  -0.57192
 Alpha  occ. eigenvalues --   -0.55508  -0.53526  -0.52069  -0.50730  -0.47327
 Alpha  occ. eigenvalues --   -0.47126  -0.46793  -0.44204  -0.43687  -0.42939
 Alpha  occ. eigenvalues --   -0.42047  -0.40576  -0.40363  -0.39752  -0.38335
 Alpha  occ. eigenvalues --   -0.38114  -0.37526  -0.37412  -0.35872  -0.35097
 Alpha  occ. eigenvalues --   -0.34140  -0.33011  -0.32724  -0.31998  -0.30431
 Alpha  occ. eigenvalues --   -0.30226  -0.29968  -0.27213  -0.24089  -0.23235
 Alpha  occ. eigenvalues --   -0.22691  -0.22280  -0.20971  -0.19781  -0.11446
 Alpha virt. eigenvalues --   -0.04627  -0.01827  -0.00184   0.00411   0.01237
 Alpha virt. eigenvalues --    0.01421   0.01762   0.02504   0.03295   0.03634
 Alpha virt. eigenvalues --    0.03872   0.04044   0.05112   0.05190   0.05298

  Beta  occ. eigenvalues --  -19.15505 -19.09386 -19.03321 -19.01816 -10.28474
  Beta  occ. eigenvalues --  -10.21498 -10.18964 -10.17500 -10.16059 -10.15971
  Beta  occ. eigenvalues --  -10.15610 -10.15391 -10.15289 -10.15110 -10.15038
  Beta  occ. eigenvalues --  -10.14781 -10.14716 -10.14594 -10.14366 -10.13727
  Beta  occ. eigenvalues --   -1.09049  -1.00054  -0.94942  -0.92964  -0.83514
  Beta  occ. eigenvalues --   -0.82900  -0.76758  -0.73852  -0.72880  -0.72737
  Beta  occ. eigenvalues --   -0.70335  -0.64793  -0.62354  -0.60025  -0.57192
  Beta  occ. eigenvalues --   -0.55508  -0.53526  -0.52069  -0.50730  -0.47327
  Beta  occ. eigenvalues --   -0.47126  -0.46793  -0.44204  -0.43687  -0.42939
  Beta  occ. eigenvalues --   -0.42047  -0.40576  -0.40363  -0.39752  -0.38335
  Beta  occ. eigenvalues --   -0.38114  -0.37526  -0.37412  -0.35872  -0.35097
  Beta  occ. eigenvalues --   -0.34140  -0.33011  -0.32724  -0.31998  -0.30431
  Beta  occ. eigenvalues --   -0.30226  -0.29968  -0.27213  -0.24089  -0.23235
  Beta  occ. eigenvalues --   -0.22691  -0.22280  -0.20971  -0.19781  -0.11446
  Beta virt. eigenvalues --   -0.04627  -0.01827  -0.00184   0.00411   0.01237
  Beta virt. eigenvalues --    0.01421   0.01762   0.02504   0.03295   0.03634
  Beta virt. eigenvalues --    0.03872   0.04044   0.05112   0.05190   0.05298

 Mulliken charges and spin densities:
               1          2
     1  C   -0.043376  -0.000000
     2  C   -0.473767  -0.000000
     3  C   -0.466657  -0.000000
     4  C    0.502177  -0.000000
     5  C    0.436591   0.000000
     6  C   -0.086426  -0.000000
     7  C   -0.584420   0.000000
     8  C    0.302531  -0.000000
     9  C    0.256540  -0.000000
    10  C   -0.734532   0.000000
    11  C   -0.052265  -0.000000
    12  C   -0.215802  -0.000000
    13  C   -0.623215   0.000000
    14  O   -0.601692  -0.000000
    15  O   -0.670291  -0.000000
    16  H    0.147889   0.000000
    17  H    0.173792   0.000000
    18  H    0.153328  -0.000000
    19  H    0.148552   0.000000
    20  H    0.151903  -0.000000
    21  C    0.062647   0.000000
    22  H    0.164107   0.000000
    23  C    0.170718  -0.000000
    24  O   -0.403406   0.000000
    25  O   -0.154294  -0.000000
    26  C   -0.233892  -0.000000
    27  H    0.156217  -0.000000
    28  H    0.176522   0.000000
    29  H    0.176466   0.000000
    30  H    0.164054  -0.000000
 Sum of Mulliken charges =  -2.00000   0.00000

 Dipole moment (field-independent basis, Debye):
    X=            -17.3339    Y=             27.2062    Z=             -5.4594  Tot=             32.7177
 Quadrupole moment (field-independent basis, Debye-Ang):
   XX=           -173.2577   YY=           -233.9834   ZZ=           -161.4717
   XY=             57.8498   XZ=            -18.7162   YZ=             46.7398

  Exact polarizability: 675.621 133.514 335.732-139.524-171.714 345.105
 Approx polarizability: 758.891 131.655 377.947-138.037-194.751 388.485

                      1                      2                      3
                      A                      A                      A
 Frequencies --     29.6672                49.8436                67.8395
 Red. masses --      5.5870                 6.9859                 5.2958
 Frc consts  --      0.0029                 0.0102                 0.0144
 IR Inten    --     12.2468                 0.7877                 9.7202

                      4                      5                      6
                      A                      A                      A
 Frequencies --    101.8651               113.0979               125.9279
 Red. masses --      5.2281                 2.8589                 2.6933
 Frc consts  --      0.0320                 0.0215                 0.0252
 IR Inten    --      4.9295                 0.7310                 5.8191

                      7                      8                      9
                      A                      A                      A
 Frequencies --    152.7866               161.0261               204.2144
 Red. masses --      1.5057                 5.9138                 5.3402
 Frc consts  --      0.0207                 0.0903                 0.1312
 IR Inten    --      0.2546                12.4216                 0.4131

                     10                     11                     12
                      A                      A                      A
 Frequencies --    223.2783               247.0926               270.7206
 Red. masses --      5.1525                 8.1265                 6.0148
 Frc consts  --      0.1513                 0.2923                 0.2597
 IR Inten    --      1.2687                12.4971                 0.4038

                     13                     14                     15
                      A                      A                      A
 Frequencies --    292.1772               338.0670               372.4446
 Red. masses --      7.0314                 4.7771                11.0430
 Frc consts  --      0.3537                 0.3217                 0.9025
 IR Inten    --      5.6981                37.4615                 0.2057

                     16                     17                     18
                      A                      A                      A
 Frequencies --    403.7187               413.9311               422.3682
 Red. masses --      5.4100                 7.0817                 3.6853
 Frc consts  --      0.5195                 0.7149                 0.3874
 IR Inten    --      2.8750                56.0778                 5.4600

                     19                     20                     21
                      A                      A                      A
 Frequencies --    471.2367               472.7041               498.5768
 Red. masses --      2.9406                 8.2340                 7.7986
 Frc consts  --      0.3847                 1.0840                 1.1422
 IR Inten    --      0.1602                 5.4227                27.9088

                     22                     23                     24
                      A                      A                      A
 Frequencies --    505.0267               512.5623               623.6331
 Red. masses --      4.5798                 8.1261                 4.3989
 Frc consts  --      0.6882                 1.2578                 1.0080
 IR Inten    --      0.9406                44.5482                 4.5926

                     25                     26                     27
                      A                      A                      A
 Frequencies --    628.5532               640.8313               687.0057
 Red. masses --      6.7746                 6.6536                 6.5825
 Frc consts  --      1.5769                 1.6099                 1.8305
 IR Inten    --     41.5292                19.1568                 5.2007

                     28                     29                     30
                      A                      A                      A
 Frequencies --    692.4222               692.6568               719.6299
 Red. masses --      6.9249                 2.3972                 4.3598
 Frc consts  --      1.9562                 0.6776                 1.3303
 IR Inten    --      1.6561               166.0213                 0.2813

                     31                     32                     33
                      A                      A                      A
 Frequencies --    760.9361               783.8595               784.5612
 Red. masses --      2.3874                 2.8766                 5.8573
 Frc consts  --      0.8145                 1.0414                 2.1242
 IR Inten    --      2.9569                48.2290                92.6149

                     34                     35                     36
                      A                      A                      A
 Frequencies --    793.6434               818.0349               840.5076
 Red. masses --      2.2551                 2.5772                 6.0240
 Frc consts  --      0.8369                 1.0161                 2.5074
 IR Inten    --     18.1412                12.7585               187.8522

                     37                     38                     39
                      A                      A                      A
 Frequencies --    865.7238               921.3408               944.8385
 Red. masses --      1.7279                 6.2113                 7.1812
 Frc consts  --      0.7630                 3.1065                 3.7771
 IR Inten    --      1.0093                 0.9817               177.2531

                     40                     41                     42
                      A                      A                      A
 Frequencies --    964.9228               976.2751               979.2496
 Red. masses --      1.4455                 1.3462                 1.3371
 Frc consts  --      0.7929                 0.7560                 0.7555
 IR Inten    --      6.7714                 1.3114                 4.5019

                     43                     44                     45
                      A                      A                      A
 Frequencies --    986.7811              1004.6251              1024.4537
 Red. masses --      1.2760                 3.2713                 2.0749
 Frc consts  --      0.7320                 1.9453                 1.2830
 IR Inten    --      0.4987                40.7659               362.0119

                     46                     47                     48
                      A                      A                      A
 Frequencies --   1082.7948              1100.0926              1101.8425
 Red. masses --      4.1398                 2.0011                 2.8967
 Frc consts  --      2.8597                 1.4269                 2.0720
 IR Inten    --    503.7033              1523.0083              2413.3630

                     49                     50                     51
                      A                      A                      A
 Frequencies --   1129.3222              1158.8629              1164.6997
 Red. masses --      1.8265                 2.0315                 1.7187
 Frc consts  --      1.3725                 1.6074                 1.3737
 IR Inten    --    454.9578              1104.2428               462.9409

                     52                     53                     54
                      A                      A                      A
 Frequencies --   1166.2416              1191.5212              1201.9931
 Red. masses --      1.2769                 2.0013                 1.5524
 Frc consts  --      1.0233                 1.6741                 1.3215
 IR Inten    --      1.2639               505.1411                 9.8427

                     55                     56                     57
                      A                      A                      A
 Frequencies --   1214.2073              1227.0349              1274.9331
 Red. masses --      2.6267                 2.4911                 2.4966
 Frc consts  --      2.2817                 2.2098                 2.3909
 IR Inten    --    169.1243               742.1743               735.7320

                     58                     59                     60
                      A                      A                      A
 Frequencies --   1313.4641              1344.7254              1356.4230
 Red. masses --      3.5703                 4.9671                 7.4326
 Frc consts  --      3.6291                 5.2920                 8.0571
 IR Inten    --    355.0345               702.9282               843.7256

                     61                     62                     63
                      A                      A                      A
 Frequencies --   1367.5572              1431.3492              1459.7538
 Red. masses --      2.6053                 4.4243                 1.7597
 Frc consts  --      2.8708                 5.3405                 2.2093
 IR Inten    --    889.5869               154.7563               119.5080

                     64                     65                     66
                      A                      A                      A
 Frequencies --   1465.6894              1471.9615              1472.7633
 Red. masses --      1.8869                 2.6852                 1.0462
 Frc consts  --      2.3882                 3.4279                 1.3370
 IR Inten    --    143.0963               312.9867                11.4867

                     67                     68                     69
                      A                      A                      A
 Frequencies --   1481.7354              1489.3780              1502.2082
 Red. masses --      3.8559                 1.0722                 5.5881
 Frc consts  --      4.9879                 1.4013                 7.4297
 IR Inten    --      4.4164                10.3759               218.9526

                     70                     71                     72
                      A                      A                      A
 Frequencies --   1512.8537              1552.5925              1606.0510
 Red. masses --      5.5412                 6.1262                 6.7777
 Frc consts  --      7.4722                 8.7008                10.3004
 IR Inten    --    278.4091               933.0088               484.1763

                     73                     74                     75
                      A                      A                      A
 Frequencies --   1615.4560              1661.3983              3042.0342
 Red. masses --      5.6573                10.3376                 1.0300
 Frc consts  --      8.6986                16.8120                 5.6160
 IR Inten    --      0.8920              1154.8253               110.1339

                     76                     77                     78
                      A                      A                      A
 Frequencies --   3111.0706              3143.2991              3145.5064
 Red. masses --      1.1069                 1.0850                 1.1050
 Frc consts  --      6.3119                 6.3162                 6.4417
 IR Inten    --     40.4789                20.6930                31.2006

                     79                     80                     81
                      A                      A                      A
 Frequencies --   3158.4997              3166.3629              3174.4622
 Red. masses --      1.0891                 1.0866                 1.0916
 Frc consts  --      6.4015                 6.4183                 6.4813
 IR Inten    --     28.9998                12.2209                30.9398

                     82                     83                     84
                      A                      A                      A
 Frequencies --   3178.6180              3184.6935              3192.0164
 Red. masses --      1.0946                 1.0888                 1.0930
 Frc consts  --      6.5160                 6.5063                 6.5614
 IR Inten    --    101.1834                 3.5743                42.3440

 - Thermochemistry -
 -------------------
 Temperature   298.150 Kelvin.  Pressure   1.00000 Atm.
 Atom     1 has atomic number  6 and mass  12.00000

 Molecular mass:   266.05791 amu.
 Principal axes and moments of inertia in atomic units:
                           1         2         3
     Eigenvalues --  1984.71687********************
           X            0.76035   0.64951   0.00371
           Y            0.45225  -0.53351   0.71473
           Z           -0.46620   0.54177   0.69939
 This molecule is an asymmetric top.
 Rotational symmetry number  1.
 Warning -- assumption of classical behavior for rotation
           may cause significant error
 Rotational temperatures (Kelvin)      0.04364     0.00858     0.00718
 Rotational constants (GHZ):           0.90932     0.17888     0.14962
 Zero-point vibrational energy     569423.2 (Joules/Mol)
                                  136.09541 (Kcal/Mol)
 Warning -- explicit consideration of  23 degrees of freedom as
           vibrations may cause significant error
 Vibrational temperatures:     42.68    71.71    97.61   146.56   162.72
          (Kelvin)            181.18   219.83   231.68   293.82   321.25
                              355.51   389.51   420.38   486.40   535.86
                              580.86   595.55   607.69   678.00   680.12
                              717.34   726.62   737.46   897.27   904.35
                              922.01   988.45   996.24   996.58  1035.39
                             1094.82  1127.80  1128.81  1141.88  1176.97
                             1209.30  1245.58  1325.60  1359.41  1388.31
                             1404.64  1408.92  1419.76  1445.43  1473.96
                             1557.90  1582.79  1585.31  1624.84  1667.35
                             1675.74  1677.96  1714.33  1729.40  1746.97
                             1765.43  1834.34  1889.78  1934.76  1951.59
                             1967.61  2059.39  2100.26  2108.80  2117.82
                             2118.98  2131.89  2142.88  2161.34  2176.66
                             2233.83  2310.75  2324.28  2390.38  4376.81
                             4476.14  4522.51  4525.68  4544.38  4555.69
                             4567.34  4573.32  4582.06  4592.60

 Zero-point correction=                           0.216882 (Hartree/Particle)
 Thermal correction to Energy=                    0.232911
 Thermal correction to Enthalpy=                  0.233856
 Thermal correction to Gibbs Free Energy=         0.172581
 Sum of electronic and zero-point Energies=           -916.933967
 Sum of electronic and thermal Energies=              -916.917938
 Sum of electronic and thermal Enthalpies=            -916.916994
 Sum of electronic and thermal Free Energies=         -916.978268

                     E (Thermal)             CV                S
                      KCal/Mol        Cal/Mol-Kelvin    Cal/Mol-Kelvin
 Total                  146.154             62.291            128.964
 Electronic               0.000              0.000              0.000
 Translational            0.889              2.981             42.635
 Rotational               0.889              2.981             33.845
 Vibrational            144.377             56.329             52.484
 Vibration     1          0.593              1.984              5.852
 Vibration     2          0.595              1.978              4.824
 Vibration     3          0.598              1.970              4.215
 Vibration     4          0.604              1.948              3.418
 Vibration     5          0.607              1.939              3.215
 Vibration     6          0.611              1.927              3.007
 Vibration     7          0.619              1.900              2.637
 Vibration     8          0.622              1.890              2.538
 Vibration     9          0.640              1.834              2.095
 Vibration    10          0.649              1.806              1.932
 Vibration    11          0.661              1.768              1.751
 Vibration    12          0.674              1.727              1.592
 Vibration    13          0.688              1.688              1.461
 Vibration    14          0.718              1.599              1.221
 Vibration    15          0.744              1.529              1.070
 Vibration    16          0.769              1.462              0.949
 Vibration    17          0.778              1.440              0.913
 Vibration    18          0.785              1.422              0.884
 Vibration    19          0.828              1.314              0.734
 Vibration    20          0.830              1.311              0.730
 Vibration    21          0.854              1.253              0.662
 Vibration    22          0.860              1.239              0.646
 Vibration    23          0.868              1.222              0.627

 Optimization completed.
    -- Stationary point found.
 Normal termination of Gaussian 16 at Sun Feb 11 00:21:52 2024.
