 Q-Chem 5.4, Q-Chem, Inc., Pleasanton, CA (2021)
 Q-Chem 5.4.0 for Intel X86 EM64T Linux

User input:
--------------------------------------------------------------
$molecule
0 1
C                 -4.1274410000      3.6410230000      1.5168370000
C                 -4.6133980000      3.8629350000      0.2313490000
C                 -4.0292610000      3.2247490000     -0.8517450000
C                 -2.9470140000      2.3505320000     -0.6776060000
C                 -2.4390320000      2.1119650000      0.6198140000
C                 -3.0543710000      2.7765050000      1.7054720000
C                 -2.5660700000      2.5685420000      3.1037810000
C                 -1.4291260000      1.6523620000      3.3075450000
C                 -0.8468320000      1.0231740000      2.2790200000
C                 -1.2899260000      1.1892680000      0.8453820000
O                 -3.0800910000      3.1304600000      4.0573370000
O                 -0.7204290000      0.5913430000     -0.0413530000
H                 -4.5633160000      4.1250490000      2.3808270000
H                 -4.4075090000      3.3970050000     -1.8553420000
O                 -2.3870880000      1.7349500000     -1.7425360000
Br                 0.6160380000     -0.1534180000      2.5583170000
H                 -5.4490730000      4.5342950000      0.0714360000
H                 -1.1005600000      1.5238120000      4.3313710000
H                 -2.8473720000      2.0035110000     -2.5461040000
$end
$rem
MAX_SCF_CYCLES=200
BASIS  =  6-311++G(d,p)
GUI  =  2
JOB_TYPE  =  SP
METHOD  =  B3LYP
SOLVENT_METHOD = COSMO
$end
$solvent
dielectric 37.219
opticaldielectric 1.43
$end

--------------------------------------------------------------

             Standard Nuclear Orientation (Angstroms)
    I     Atom           X                Y                Z
 ----------------------------------------------------------------
    1      C       2.8566255265    -1.3621962583     0.0002542239
    2      C       3.8651637512    -0.4026499414     0.0004883438
    3      C       3.5413979001     0.9452245602     0.0003475072
    4      C       2.2042739808     1.3670513298    -0.0000048629
    5      C       1.1656612070     0.4081237796    -0.0002090691
    6      C       1.5254557558    -0.9591569758    -0.0001179557
    7      C       0.4759817926    -2.0247830333    -0.0003217409
    8      C      -0.9361551371    -1.6012072100    -0.0001403587
    9      C      -1.2763255262    -0.3061814875    -0.0000965503
   10      C      -0.2679372628     0.8173800072    -0.0004168231
   11      O       0.7608732140    -3.2114065387    -0.0004037733
   12      O      -0.6406013470     1.9703160012    -0.0008326951
   13      H       3.0793153740    -2.4210428540     0.0004064127
   14      H       4.3274011092     1.6949908749     0.0005625818
   15      O       1.9029248103     2.6845196976    -0.0000849344
   16      Br     -3.0991699438     0.2225928225     0.0002824000
   17      H       4.9062032456    -0.7041226257     0.0008265422
   18      H      -1.6705435031    -2.3970552555    -0.0000236809
   19      H       2.7181464632     3.1994191696     0.0002190799
 ----------------------------------------------------------------

    9   -3184.0357374145      7.88e-06  Convergence criterion met
 Total energy in the final basis set =    -3184.0357374145
    5   -3184.0581048936      3.72e-06  Convergence criterion met
 Total energy in the final basis set =    -3184.0581048936

                    Orbital Energies (a.u.)
 --------------------------------------------------------------

 Alpha MOs
 -- Occupied --
******** -62.5026 -56.3231 -56.3193 -56.3189 -19.1759 -19.1409 -19.1405
-10.2986 -10.2914 -10.2732 -10.2671 -10.2170 -10.2159 -10.2145 -10.2027
-10.2000 -10.1951  -8.7114  -6.5431  -6.5302  -6.5290  -2.6540  -2.6504
 -2.6496  -2.6394  -2.6393  -1.0949  -1.0777  -1.0742  -0.8950  -0.8682
 -0.8094  -0.7777  -0.7691  -0.7009  -0.6663  -0.6411  -0.6107  -0.5645
 -0.5503  -0.5146  -0.5124  -0.4875  -0.4757  -0.4679  -0.4677  -0.4423
 -0.4332  -0.4282  -0.4239  -0.4112  -0.3898  -0.3844  -0.3645  -0.3537
 -0.3105  -0.2958  -0.2949  -0.2821  -0.2793  -0.2566

          Ground-State Mulliken Net Atomic Charges

     Atom                 Charge (a.u.)
  ----------------------------------------
      1 C                     0.295744
      2 C                    -0.396712
      3 C                    -0.139607
      4 C                     0.180996
      5 C                     0.055951
      6 C                     0.319318
      7 C                    -0.662758
      8 C                     0.118598
      9 C                     0.706119
     10 C                    -0.862104
     11 O                    -0.302840
     12 O                    -0.234571
     13 H                     0.193211
     14 H                     0.212692
     15 O                    -0.222046
     16 Br                   -0.119310
     17 H                     0.245047
     18 H                     0.281725
     19 H                     0.330547
  ----------------------------------------
  Sum of atomic charges =     0.000000

                    Cartesian Multipole Moments
 -----------------------------------------------------------------
    Charge (ESU x 10^10)
                 0.0000
    Dipole Moment (Debye)
         X       5.9961      Y       1.2178      Z       0.0030
       Tot       6.1185
    Quadrupole Moments (Debye-Ang)
        XX     -64.0820     XY      16.1628     YY    -103.5927
        XZ       0.0046     YZ       0.0036     ZZ     -93.0748

 Total job time:  36.00s(wall), 263.49s(cpu)
        *  Thank you very much for using Q-Chem.  Have a nice day.  *
