 Gaussian 16, Revision A.03,
 Gaussian 16:  ES64L-G16RevA.03 25-Dec-2016

 ----------------------------------------------
 #P UB3LYP/6-311++G(d,p) nosym opt freq SCF=YQC
 ----------------------------------------------

 -------
 Reduced
 -------
 Symbolic Z-matrix:
 Charge = -3 Multiplicity = 1

 SCF Done:  E(UB3LYP) =  -1158.37243088     a.u. after    9 cycles
 SCF Done:  E(UB3LYP) =  -1158.38807249     A.U. after   33 cycles
 SCF Done:  E(UB3LYP) =  -1158.38807250     a.u. after    2 cycles
 SCF Done:  E(UB3LYP) =  -1158.42065785     a.u. after  170 cycles
 SCF Done:  E(UB3LYP) =  -1158.42078828     A.U. after   26 cycles
 SCF Done:  E(UB3LYP) =  -1158.42857186     a.u. after   67 cycles
 SCF Done:  E(UB3LYP) =  -1158.42875546     A.U. after   24 cycles
 SCF Done:  E(UB3LYP) =  -1158.42899584     a.u. after   16 cycles
 SCF Done:  E(UB3LYP) =  -1158.42910433     A.U. after   25 cycles
 SCF Done:  E(UB3LYP) =  -1158.42902086     a.u. after   21 cycles
 SCF Done:  E(UB3LYP) =  -1158.42911084     A.U. after   26 cycles
 SCF Done:  E(UB3LYP) =  -1158.42900789     a.u. after    9 cycles
 SCF Done:  E(UB3LYP) =  -1158.42911801     A.U. after   26 cycles
 SCF Done:  E(UB3LYP) =  -1158.42905372     a.u. after    1 cycles
 SCF Done:  E(UB3LYP) =  -1158.42912658     A.U. after   24 cycles
 SCF Done:  E(UB3LYP) =  -1158.42912180     a.u. after    1 cycles
 SCF Done:  E(UB3LYP) =  -1158.42912673     A.U. after   28 cycles
 Optimization completed.
    -- Stationary point found.
 Normal termination of Gaussian 16 at Sat Jan  6 05:14:11 2024.

 ----------------------------------------------------------------------
 #P Geom=AllCheck Guess=TCheck SCRF=Check GenChk UB3LYP/6-311++G(d,p) F
 req
 ----------------------------------------------------------------------

 Structure from the checkpoint file:  "326-an.chk"
 -------
 Reduced
 -------
 Charge = -3 Multiplicity = 1

                          Input orientation:
 ---------------------------------------------------------------------
 Center     Atomic      Atomic             Coordinates (Angstroms)
 Number     Number       Type             X           Y           Z
 ---------------------------------------------------------------------
      1          6           0       -1.838137    2.791783   -0.804491
      2          6           0       -2.932667    1.995559   -0.521658
      3          6           0       -2.717278    0.675734   -0.058158
      4          6           0       -0.503027    2.340779   -0.643800
      5          6           0       -0.287789    0.980482   -0.197068
      6          6           0       -1.428213    0.191655    0.097085
      7          6           0        0.589728    3.261106   -0.971820
      8          6           0        1.975135    2.741147   -0.816343
      9          6           0        2.111319    1.377920   -0.367746
     10          6           0        1.064891    0.523910   -0.072127
     11          8           0        0.363564    4.445281   -1.366488
     12          8           0        2.997564    3.462751   -1.059535
     13          1           0       -1.963039    3.808642   -1.162327
     14          1           0       -3.948401    2.371518   -0.653899
     15          1           0       -3.568722    0.036064    0.167824
     16          1           0       -1.272342   -0.821110    0.446612
     17          1           0        3.125282    1.008566   -0.259763
     18         16           0        1.473284   -1.176637    0.485133
     19          8           0        2.968235   -1.270685    0.486103
     20          8           0        0.845975   -2.120931   -0.497197
     21          8           0        0.893989   -1.334936    1.859932
 ---------------------------------------------------------------------

 SCF Done:  E(UB3LYP) =  -1158.42912673     a.u. after    1 cycles
 SCF Done:  E(UB3LYP) =  -1158.42912673     A.U. after    6 cycles

 Alpha  occ. eigenvalues --  -88.68891 -18.73459 -18.73233 -18.73229 -18.71383
 Alpha  occ. eigenvalues --  -18.70914  -9.86280  -9.85922  -9.83902  -9.83791
 Alpha  occ. eigenvalues --   -9.83754  -9.83744  -9.83354  -9.83264  -9.82419
 Alpha  occ. eigenvalues --   -9.81104  -7.74735  -5.71024  -5.71001  -5.70893
 Alpha  occ. eigenvalues --   -0.74508  -0.63882  -0.61049  -0.60984  -0.60720
 Alpha  occ. eigenvalues --   -0.51641  -0.45961  -0.41097  -0.38268  -0.34166
 Alpha  occ. eigenvalues --   -0.27301  -0.26734  -0.24277  -0.20381  -0.16135
 Alpha  occ. eigenvalues --   -0.15450  -0.13408  -0.10515  -0.09703  -0.09395
 Alpha  occ. eigenvalues --   -0.08816  -0.08131  -0.06551  -0.05538  -0.04798
 Alpha  occ. eigenvalues --   -0.03255  -0.01482  -0.00761  -0.00291   0.01864
 Alpha  occ. eigenvalues --    0.02504   0.02717   0.04148   0.06071   0.06713
 Alpha  occ. eigenvalues --    0.07340   0.08836   0.10358   0.10777   0.12462
 Alpha  occ. eigenvalues --    0.13598   0.21069
 Alpha virt. eigenvalues --    0.22631   0.24697   0.27913   0.28732   0.30434
 Alpha virt. eigenvalues --    0.30546   0.33231   0.33379   0.33998   0.34252
 Alpha virt. eigenvalues --    0.35017   0.35461   0.36457   0.37119   0.37223

  Beta  occ. eigenvalues --  -88.68891 -18.73459 -18.73233 -18.73229 -18.71383
  Beta  occ. eigenvalues --  -18.70914  -9.86280  -9.85922  -9.83902  -9.83791
  Beta  occ. eigenvalues --   -9.83754  -9.83744  -9.83354  -9.83264  -9.82419
  Beta  occ. eigenvalues --   -9.81104  -7.74735  -5.71024  -5.71001  -5.70893
  Beta  occ. eigenvalues --   -0.74508  -0.63882  -0.61049  -0.60984  -0.60720
  Beta  occ. eigenvalues --   -0.51641  -0.45961  -0.41097  -0.38268  -0.34166
  Beta  occ. eigenvalues --   -0.27301  -0.26734  -0.24277  -0.20381  -0.16135
  Beta  occ. eigenvalues --   -0.15450  -0.13408  -0.10515  -0.09703  -0.09395
  Beta  occ. eigenvalues --   -0.08816  -0.08131  -0.06551  -0.05538  -0.04798
  Beta  occ. eigenvalues --   -0.03255  -0.01482  -0.00761  -0.00291   0.01864
  Beta  occ. eigenvalues --    0.02504   0.02717   0.04148   0.06071   0.06713
  Beta  occ. eigenvalues --    0.07340   0.08836   0.10358   0.10777   0.12462
  Beta  occ. eigenvalues --    0.13598   0.21069
  Beta virt. eigenvalues --    0.22631   0.24697   0.27913   0.28732   0.30434
  Beta virt. eigenvalues --    0.30546   0.33231   0.33379   0.33998   0.34252
  Beta virt. eigenvalues --    0.35017   0.35461   0.36457   0.37119   0.37223

 Mulliken charges and spin densities:
               1          2
     1  C   -0.420767  -0.000000
     2  C    1.807440   0.000000
     3  C    0.901066   0.000000
     4  C    1.002240  -0.000000
     5  C    0.454149  -0.000000
     6  C   -1.174574   0.000000
     7  C   -0.424256   0.000000
     8  C   -0.372667   0.000000
     9  C    0.232142  -0.000000
    10  C   -0.696495   0.000000
    11  O   -0.460511   0.000000
    12  O   -0.496016   0.000000
    13  H    0.283516   0.000000
    14  H   -2.716677  -0.000000
    15  H   -0.798157  -0.000000
    16  H    0.275597   0.000000
    17  H    0.194529  -0.000000
    18  S    0.495522   0.000000
    19  O   -0.332302   0.000000
    20  O   -0.367942  -0.000000
    21  O   -0.385838  -0.000000
 Sum of Mulliken charges =  -3.00000   0.00000

 Dipole moment (field-independent basis, Debye):
    X=              1.2687    Y=            -17.8784    Z=              4.5147  Tot=             18.4832
 Quadrupole moment (field-independent basis, Debye-Ang):
   XX=           -262.6106   YY=           -235.7694   ZZ=           -141.6509
   XY=             16.4360   XZ=             -4.9737   YZ=             34.8780

  Exact polarizability:1342.847  54.423 896.237 -32.750-311.043 287.932
 Approx polarizability:8817.680 767.036 844.906-282.041-254.054 325.392

                      1                      2                      3
                      A                      A                      A
 Frequencies --     37.2537                64.0336               111.2922
 Red. masses --     13.2651                10.4230                 6.6784
 Frc consts  --      0.0108                 0.0252                 0.0487
 IR Inten    --      0.0490                 0.2595                27.7769

                      4                      5                      6
                      A                      A                      A
 Frequencies --    141.5578               144.6321               231.7287
 Red. masses --      5.3169                 9.0600                12.8141
 Frc consts  --      0.0628                 0.1117                 0.4054
 IR Inten    --      1.6185                 0.6708                13.8428

                      7                      8                      9
                      A                      A                      A
 Frequencies --    234.4293               269.0838               279.7137
 Red. masses --      5.7038                 8.3529                 9.6253
 Frc consts  --      0.1847                 0.3563                 0.4437
 IR Inten    --     36.8686                 3.0666                11.9073

                     10                     11                     12
                      A                      A                      A
 Frequencies --    321.5985               362.0983               402.6654
 Red. masses --      9.0064                14.4936                 7.0685
 Frc consts  --      0.5488                 1.1196                 0.6753
 IR Inten    --     10.9433                37.6304                 3.8535

                     13                     14                     15
                      A                      A                      A
 Frequencies --    430.4944               439.5231               475.4949
 Red. masses --      9.6663                 3.7028                 8.0570
 Frc consts  --      1.0555                 0.4215                 1.0733
 IR Inten    --    116.4925                16.6921               131.6170

                     16                     17                     18
                      A                      A                      A
 Frequencies --    496.6167               511.6215               535.1818
 Red. masses --     15.6809                10.4046                 4.1319
 Frc consts  --      2.2786                 1.6046                 0.6973
 IR Inten    --     17.4188                41.5917                15.2740

                     19                     20                     21
                      A                      A                      A
 Frequencies --    584.5608               615.2688               632.6037
 Red. masses --     11.2618                 4.7921                 9.8738
 Frc consts  --      2.2673                 1.0688                 2.3281
 IR Inten    --    231.4329                 3.5659               175.5546

                     22                     23                     24
                      A                      A                      A
 Frequencies --    661.8869               710.9969               712.7227
 Red. masses --      6.6500                 6.2939                 5.9881
 Frc consts  --      1.7165                 1.8746                 1.7922
 IR Inten    --     46.0166                 1.8662                 8.0547

                     25                     26                     27
                      A                      A                      A
 Frequencies --    771.3086               791.0266               804.8432
 Red. masses --      6.4364                 5.0622                 1.4328
 Frc consts  --      2.2561                 1.8662                 0.5468
 IR Inten    --    152.0881                 8.0703                 8.6460

                     28                     29                     30
                      A                      A                      A
 Frequencies --    886.6582               892.8004               904.7948
 Red. masses --      1.3933                 1.4087                 6.3188
 Frc consts  --      0.6454                 0.6616                 3.0478
 IR Inten    --     27.2891                10.2429                 7.6991

                     31                     32                     33
                      A                      A                      A
 Frequencies --    960.8572               961.9238               983.3365
 Red. masses --      8.0992                 1.3341                 8.1610
 Frc consts  --      4.4056                 0.7273                 4.6494
 IR Inten    --   1031.3882                84.7720               118.0325

                     34                     35                     36
                      A                      A                      A
 Frequencies --   1036.0071              1103.0101              1106.0376
 Red. masses --      2.1442                17.8173                 5.8923
 Frc consts  --      1.3560                12.7718                 4.2469
 IR Inten    --     31.5084               265.0836               178.2580

                     37                     38                     39
                      A                      A                      A
 Frequencies --   1115.9070              1150.8589              1181.2524
 Red. masses --      2.2823                 1.4510                 1.5878
 Frc consts  --      1.6745                 1.1323                 1.3054
 IR Inten    --    164.6764               204.7696               115.7335

                     40                     41                     42
                      A                      A                      A
 Frequencies --   1220.1338              1225.2783              1238.0011
 Red. masses --      3.1229                 1.4228                 2.7456
 Frc consts  --      2.7392                 1.2585                 2.4793
 IR Inten    --    409.2682              1746.3639               360.2198

                     43                     44                     45
                      A                      A                      A
 Frequencies --   1279.2838              1331.5988              1376.4880
 Red. masses --      1.9642                 5.6034                 3.1847
 Frc consts  --      1.8939                 5.8540                 3.5553
 IR Inten    --    307.1979               168.8733               375.7448

                     46                     47                     48
                      A                      A                      A
 Frequencies --   1421.4505              1448.8639              1474.0838
 Red. masses --      2.9825                 7.5790                 3.5122
 Frc consts  --      3.5506                 9.3739                 4.4965
 IR Inten    --     34.1989              2117.3555              1855.3772

                     49                     50                     51
                      A                      A                      A
 Frequencies --   1499.8635              1515.5237              1548.5600
 Red. masses --      3.9115                 5.0456                 5.5514
 Frc consts  --      5.1844                 6.8279                 7.8435
 IR Inten    --     29.5986              3440.0785                99.1916

                     52                     53                     54
                      A                      A                      A
 Frequencies --   1601.0980              3093.3243              3118.5189
 Red. masses --      5.1344                 1.0853                 1.0919
 Frc consts  --      7.7548                 6.1185                 6.2567
 IR Inten    --    129.6980               497.7879                50.9688

                     55                     56                     57
                      A                      A                      A
 Frequencies --   3157.6661              3170.3026              3191.9023
 Red. masses --      1.0896                 1.0873                 1.0911
 Frc consts  --      6.4012                 6.4389                 6.5498
 IR Inten    --     18.2742                46.4324                20.2447

 - Thermochemistry -
 -------------------
 Temperature   298.150 Kelvin.  Pressure   1.00000 Atm.
 Atom     1 has atomic number  6 and mass  12.00000

 Molecular mass:   236.98577 amu.
 Principal axes and moments of inertia in atomic units:
                           1         2         3
     Eigenvalues --  2617.436774167.275076431.76702
           X           -0.36596   0.93055   0.01209
           Y            0.88465   0.34381   0.31495
           Z           -0.28892  -0.12595   0.94903
 This molecule is an asymmetric top.
 Rotational symmetry number  1.
 Warning -- assumption of classical behavior for rotation
           may cause significant error
 Rotational temperatures (Kelvin)      0.03309     0.02078     0.01347
 Rotational constants (GHZ):           0.68951     0.43307     0.28060
 Zero-point vibrational energy     346735.3 (Joules/Mol)
                                   82.87174 (Kcal/Mol)
 Warning -- explicit consideration of  20 degrees of freedom as
           vibrations may cause significant error
 Vibrational temperatures:     53.60    92.13   160.12   203.67   208.09
          (Kelvin)            333.41   337.29   387.15   402.45   462.71
                              520.98   579.35   619.39   632.38   684.13
                              714.52   736.11   770.01   841.05   885.23
                              910.18   952.31  1022.97  1025.45  1109.74
                             1138.11  1157.99  1275.70  1284.54  1301.80
                             1382.46  1383.99  1414.80  1490.58  1586.99
                             1591.34  1605.54  1655.83  1699.56  1755.50
                             1762.90  1781.21  1840.60  1915.87  1980.46
                             2045.15  2084.59  2120.88  2157.97  2180.50
                             2228.03  2303.62  4450.60  4486.85  4543.18
                             4561.36  4592.44

 Zero-point correction=                           0.132065 (Hartree/Particle)
 Thermal correction to Energy=                    0.144600
 Thermal correction to Enthalpy=                  0.145544
 Thermal correction to Gibbs Free Energy=         0.092253
 Sum of electronic and zero-point Energies=          -1158.297062
 Sum of electronic and thermal Energies=             -1158.284527
 Sum of electronic and thermal Enthalpies=           -1158.283582
 Sum of electronic and thermal Free Energies=        -1158.336874

                     E (Thermal)             CV                S
                      KCal/Mol        Cal/Mol-Kelvin    Cal/Mol-Kelvin
 Total                   90.738             48.519            112.161
 Electronic               0.000              0.000              0.000
 Translational            0.889              2.981             42.290
 Rotational               0.889              2.981             32.617
 Vibrational             88.960             42.557             37.254
 Vibration     1          0.594              1.982              5.400
 Vibration     2          0.597              1.971              4.329
 Vibration     3          0.607              1.940              3.246
 Vibration     4          0.615              1.912              2.783
 Vibration     5          0.616              1.908              2.742
 Vibration     6          0.653              1.792              1.866
 Vibration     7          0.654              1.788              1.845
 Vibration     8          0.673              1.730              1.602
 Vibration     9          0.680              1.711              1.535
 Vibration    10          0.707              1.632              1.302
 Vibration    11          0.736              1.550              1.113
 Vibration    12          0.768              1.464              0.953
 Vibration    13          0.792              1.404              0.857
 Vibration    14          0.800              1.384              0.828
 Vibration    15          0.832              1.304              0.722
 Vibration    16          0.852              1.258              0.667
 Vibration    17          0.867              1.224              0.630
 Vibration    18          0.890              1.172              0.576
 Vibration    19          0.942              1.065              0.477
 Vibration    20          0.975              1.000              0.424

 Optimization completed.
    -- Stationary point found.
 Normal termination of Gaussian 16 at Sat Jan  6 05:48:27 2024.
