 Gaussian 16, Revision A.03,
 Gaussian 16:  ES64L-G16RevA.03 25-Dec-2016

 ----------------------------------------------------------------
 #P UB3LYP/6-311++G(d,p) SCRF=(PCM,Solvent=n,n-DiMethylFormamide)
 ----------------------------------------------------------------

 -------
 Reduced
 -------
 Symbolic Z-matrix:
 Charge = -2 Multiplicity = 1

                         Standard orientation:
 ---------------------------------------------------------------------
 Center     Atomic      Atomic             Coordinates (Angstroms)
 Number     Number       Type             X           Y           Z
 ---------------------------------------------------------------------
      1          6           0        3.485490    0.731255    0.387536
      2          6           0        4.451808   -0.259178    0.441210
      3          6           0        4.078572   -1.610719    0.228128
      4          6           0        2.129388    0.441537    0.127917
      5          6           0        1.750020   -0.930924   -0.090520
      6          6           0        2.758521   -1.925306   -0.030791
      7          6           0        1.166239    1.545617    0.074216
      8          6           0       -0.164206    1.105811   -0.196489
      9          6           0       -0.570882   -0.230768   -0.369747
     10          6           0        0.380314   -1.307169   -0.343872
     11          8           0        1.517256    2.759865    0.239704
     12          8           0       -0.000054   -2.527987   -0.546129
     13          1           0        3.735773    1.776002    0.543434
     14          1           0        5.489740   -0.003452    0.645525
     15          1           0        2.443321   -2.950408   -0.198209
     16         17           0       -1.380989    2.411486   -0.392246
     17          1           0        4.830606   -2.396989    0.267650
     18          7           0       -1.901034   -0.633595   -0.661378
     19          6           0       -2.913939   -0.464966    0.389776
     20          6           0       -4.282248   -0.957974   -0.086491
     21          6           0       -5.382657   -0.812631    0.970058
     22          1           0       -1.793675   -1.635109   -0.849837
     23          1           0       -2.977806    0.592316    0.652701
     24          1           0       -2.634582   -1.011204    1.310437
     25          1           0       -4.199643   -2.011619   -0.384567
     26          1           0       -4.554674   -0.403293   -0.991438
     27          1           0       -5.141692   -1.375124    1.878983
     28          1           0       -6.351629   -1.179199    0.608210
     29          1           0       -5.517822    0.235450    1.260755
 ---------------------------------------------------------------------

 SCF Done:  E(UB3LYP) =  -1168.48003775     A.U. after   18 cycles

 The electronic state is 1-A.
 Alpha  occ. eigenvalues -- -101.52223 -19.02173 -19.01997 -14.28174 -10.18168
 Alpha  occ. eigenvalues --  -10.17774 -10.17622 -10.16868 -10.16215 -10.15709
 Alpha  occ. eigenvalues --  -10.15359 -10.15032 -10.14812 -10.14662 -10.14563
 Alpha  occ. eigenvalues --  -10.13913 -10.13855  -9.43684  -7.20062  -7.19230
 Alpha  occ. eigenvalues --   -7.19167  -0.94714  -0.94111  -0.88734  -0.82869
 Alpha  occ. eigenvalues --   -0.82249  -0.76995  -0.74994  -0.72335  -0.69473
 Alpha  occ. eigenvalues --   -0.65880  -0.63048  -0.58284  -0.58186  -0.56527
 Alpha  occ. eigenvalues --   -0.53053  -0.49459  -0.47451  -0.45988  -0.44385
 Alpha  occ. eigenvalues --   -0.43751  -0.42465  -0.40847  -0.40143  -0.39153
 Alpha  occ. eigenvalues --   -0.38638  -0.38416  -0.37368  -0.36856  -0.35423
 Alpha  occ. eigenvalues --   -0.35090  -0.34167  -0.33479  -0.32802  -0.32618
 Alpha  occ. eigenvalues --   -0.31618  -0.30792  -0.29973  -0.28283  -0.25185
 Alpha  occ. eigenvalues --   -0.22979  -0.22474  -0.20714  -0.20043  -0.19103
 Alpha  occ. eigenvalues --   -0.11086
 Alpha virt. eigenvalues --   -0.00646  -0.00120   0.00492   0.01173   0.01481
 Alpha virt. eigenvalues --    0.01691   0.02192   0.02487   0.03758   0.04384
 Alpha virt. eigenvalues --    0.04696   0.04929   0.05432   0.05826   0.06233

  Beta  occ. eigenvalues -- -101.52223 -19.02173 -19.01997 -14.28174 -10.18168
  Beta  occ. eigenvalues --  -10.17774 -10.17622 -10.16868 -10.16215 -10.15709
  Beta  occ. eigenvalues --  -10.15359 -10.15032 -10.14812 -10.14662 -10.14563
  Beta  occ. eigenvalues --  -10.13913 -10.13855  -9.43684  -7.20062  -7.19230
  Beta  occ. eigenvalues --   -7.19167  -0.94714  -0.94111  -0.88734  -0.82869
  Beta  occ. eigenvalues --   -0.82249  -0.76995  -0.74994  -0.72335  -0.69473
  Beta  occ. eigenvalues --   -0.65880  -0.63048  -0.58284  -0.58186  -0.56527
  Beta  occ. eigenvalues --   -0.53053  -0.49459  -0.47451  -0.45988  -0.44385
  Beta  occ. eigenvalues --   -0.43751  -0.42465  -0.40847  -0.40143  -0.39153
  Beta  occ. eigenvalues --   -0.38638  -0.38416  -0.37368  -0.36856  -0.35423
  Beta  occ. eigenvalues --   -0.35090  -0.34167  -0.33479  -0.32802  -0.32618
  Beta  occ. eigenvalues --   -0.31618  -0.30792  -0.29973  -0.28283  -0.25185
  Beta  occ. eigenvalues --   -0.22979  -0.22474  -0.20714  -0.20043  -0.19103
  Beta  occ. eigenvalues --   -0.11086
  Beta virt. eigenvalues --   -0.00646  -0.00120   0.00492   0.01173   0.01481
  Beta virt. eigenvalues --    0.01691   0.02192   0.02487   0.03758   0.04384
  Beta virt. eigenvalues --    0.04696   0.04929   0.05432   0.05826   0.06233

 Mulliken charges and spin densities:
               1          2
     1  C    0.066608  -0.000000
     2  C   -0.463669  -0.000000
     3  C   -0.422819   0.000000
     4  C    0.197531  -0.000000
     5  C    0.153535  -0.000000
     6  C   -0.019089  -0.000000
     7  C   -0.730194  -0.000000
     8  C    0.952759   0.000000
     9  C   -0.490456  -0.000000
    10  C   -0.892046   0.000000
    11  O   -0.622219   0.000000
    12  O   -0.672744  -0.000000
    13  H    0.151286   0.000000
    14  H    0.154129  -0.000000
    15  H    0.151385  -0.000000
    16  Cl   0.236182  -0.000000
    17  H    0.155620   0.000000
    18  N    0.036387   0.000000
    19  C   -0.476274  -0.000000
    20  C   -0.007771   0.000000
    21  C   -0.628165   0.000000
    22  H    0.264254  -0.000000
    23  H    0.096000   0.000000
    24  H    0.138957  -0.000000
    25  H    0.124677   0.000000
    26  H    0.125792   0.000000
    27  H    0.133705   0.000000
    28  H    0.145438   0.000000
    29  H    0.141202  -0.000000
 Sum of Mulliken charges =  -2.00000  -0.00000

 Dipole moment (field-independent basis, Debye):
    X=             -7.0815    Y=             -3.3950    Z=              2.4363  Tot=              8.2225
 Quadrupole moment (field-independent basis, Debye-Ang):
   XX=           -139.9047   YY=           -171.3931   ZZ=           -122.9297
   XY=             -6.6029   XZ=             -4.7497   YZ=             -5.2550

 Normal termination of Gaussian 16 at Sun Jan 21 08:44:11 2024.
