 Gaussian 16, Revision A.03,
 Gaussian 16:  ES64L-G16RevA.03 25-Dec-2016

 ----------------------------------------------
 #P UB3LYP/6-311++G(d,p) nosym opt freq SCF=YQC
 ----------------------------------------------

 -------
 Reduced
 -------
 Symbolic Z-matrix:
 Charge = -2 Multiplicity = 1

 SCF Done:  E(UB3LYP) =  -727.166301299     a.u. after   15 cycles
 SCF Done:  E(UB3LYP) =  -727.180335226     A.U. after   33 cycles
 SCF Done:  E(UB3LYP) =  -727.180335226     a.u. after    1 cycles
 SCF Done:  E(UB3LYP) =  -727.202529698     a.u. after   39 cycles
 SCF Done:  E(UB3LYP) =  -727.203079086     A.U. after   28 cycles
 SCF Done:  E(UB3LYP) =  -727.205929726     a.u. after   17 cycles
 SCF Done:  E(UB3LYP) =  -727.206141167     A.U. after   26 cycles
 SCF Done:  E(UB3LYP) =  -727.206256727     a.u. after    9 cycles
 SCF Done:  E(UB3LYP) =  -727.206353661     A.U. after   25 cycles
 SCF Done:  E(UB3LYP) =  -727.206304637     a.u. after    9 cycles
 SCF Done:  E(UB3LYP) =  -727.207057699     a.u. after   31 cycles
 SCF Done:  E(UB3LYP) =  -727.207286403     A.U. after   25 cycles
 SCF Done:  E(UB3LYP) =  -727.207112899     a.u. after   27 cycles
 SCF Done:  E(UB3LYP) =  -727.207310421     A.U. after   28 cycles
 SCF Done:  E(UB3LYP) =  -727.207189926     a.u. after    9 cycles
 SCF Done:  E(UB3LYP) =  -727.207311585     A.U. after   25 cycles
 SCF Done:  E(UB3LYP) =  -727.207264075     a.u. after    3 cycles
 SCF Done:  E(UB3LYP) =  -727.207311347     A.U. after   25 cycles
 Optimization completed.
    -- Stationary point found.
 Normal termination of Gaussian 16 at Wed Dec 27 13:18:32 2023.

 ----------------------------------------------------------------------
 #P Geom=AllCheck Guess=TCheck SCRF=Check GenChk UB3LYP/6-311++G(d,p) F
 req
 ----------------------------------------------------------------------

 Structure from the checkpoint file:  "266-an.chk"
 -------
 Reduced
 -------
 Charge = -2 Multiplicity = 1

                          Input orientation:
 ---------------------------------------------------------------------
 Center     Atomic      Atomic             Coordinates (Angstroms)
 Number     Number       Type             X           Y           Z
 ---------------------------------------------------------------------
      1          6           0       -1.238643    2.866475   -0.037844
      2          6           0       -2.535387    2.395028    0.044358
      3          6           0       -2.775672    0.998270    0.108952
      4          6           0       -0.121996    1.995686   -0.062379
      5          6           0       -0.369233    0.575545    0.003936
      6          6           0       -1.703254    0.123320    0.087247
      7          6           0        1.216783    2.569081   -0.140754
      8          6           0        2.259179    1.579293   -0.155030
      9          6           0        2.025615    0.201957   -0.094706
     10          6           0        0.728249   -0.387377   -0.014693
     11          8           0        1.429085    3.828922   -0.192311
     12          8           0        0.537917   -1.654692    0.038042
     13          1           0       -1.025183    3.929742   -0.088044
     14          1           0       -1.848457   -0.951908    0.134720
     15          8           0        3.549360    2.099861   -0.254011
     16          6           0        4.627678    1.271214    0.122123
     17          6           0        5.854992    2.120474    0.291327
     18          6           0        7.082697    1.769598   -0.090228
     19          1           0       -3.370670    3.093266    0.058888
     20          1           0       -3.794182    0.619932    0.173993
     21          1           0        2.853345   -0.499219   -0.122445
     22          1           0        4.811973    0.475230   -0.613143
     23          1           0        4.397344    0.775585    1.080646
     24          1           0        5.682976    3.072628    0.788360
     25          1           0        7.269048    0.830284   -0.606721
     26          1           0        7.952549    2.393513    0.090824
 ---------------------------------------------------------------------

 SCF Done:  E(UB3LYP) =  -727.207311347     a.u. after    1 cycles
 SCF Done:  E(UB3LYP) =  -727.207311347     A.U. after    6 cycles

 Alpha  occ. eigenvalues --  -18.91405 -18.79828 -18.79489 -10.01932  -9.98942
 Alpha  occ. eigenvalues --   -9.98003  -9.97029  -9.95790  -9.95444  -9.94299
 Alpha  occ. eigenvalues --   -9.94174  -9.93454  -9.93297  -9.92126  -9.91992
 Alpha  occ. eigenvalues --   -9.90720  -0.82686  -0.71419  -0.71011  -0.61142
 Alpha  occ. eigenvalues --   -0.59930  -0.54887  -0.50890  -0.50149  -0.47583
 Alpha  occ. eigenvalues --   -0.41949  -0.38120  -0.37171  -0.36172  -0.31695
 Alpha  occ. eigenvalues --   -0.29458  -0.28024  -0.27085  -0.24592  -0.24332
 Alpha  occ. eigenvalues --   -0.22269  -0.21401  -0.19074  -0.18457  -0.17471
 Alpha  occ. eigenvalues --   -0.15814  -0.15364  -0.14466  -0.13273  -0.12375
 Alpha  occ. eigenvalues --   -0.11405  -0.10490  -0.09668  -0.08733  -0.08218
 Alpha  occ. eigenvalues --   -0.06728  -0.01313  -0.00101   0.01448   0.02655
 Alpha  occ. eigenvalues --    0.03127   0.12159
 Alpha virt. eigenvalues --    0.13424   0.15412   0.16053   0.17203   0.17565
 Alpha virt. eigenvalues --    0.18503   0.19747   0.20084   0.20586   0.21005
 Alpha virt. eigenvalues --    0.21256   0.22649   0.23474   0.23912   0.24525

  Beta  occ. eigenvalues --  -18.91405 -18.79828 -18.79489 -10.01932  -9.98942
  Beta  occ. eigenvalues --   -9.98003  -9.97029  -9.95790  -9.95444  -9.94299
  Beta  occ. eigenvalues --   -9.94174  -9.93454  -9.93297  -9.92126  -9.91992
  Beta  occ. eigenvalues --   -9.90720  -0.82686  -0.71419  -0.71011  -0.61142
  Beta  occ. eigenvalues --   -0.59930  -0.54887  -0.50890  -0.50149  -0.47583
  Beta  occ. eigenvalues --   -0.41949  -0.38120  -0.37171  -0.36172  -0.31695
  Beta  occ. eigenvalues --   -0.29458  -0.28024  -0.27085  -0.24592  -0.24332
  Beta  occ. eigenvalues --   -0.22269  -0.21401  -0.19074  -0.18457  -0.17471
  Beta  occ. eigenvalues --   -0.15814  -0.15364  -0.14466  -0.13273  -0.12375
  Beta  occ. eigenvalues --   -0.11405  -0.10490  -0.09668  -0.08733  -0.08218
  Beta  occ. eigenvalues --   -0.06728  -0.01313  -0.00101   0.01448   0.02655
  Beta  occ. eigenvalues --    0.03127   0.12159
  Beta virt. eigenvalues --    0.13424   0.15412   0.16053   0.17203   0.17565
  Beta virt. eigenvalues --    0.18503   0.19747   0.20084   0.20586   0.21005
  Beta virt. eigenvalues --    0.21256   0.22649   0.23474   0.23912   0.24525

 Mulliken charges and spin densities:
               1          2
     1  C    0.076110   0.000000
     2  C   -0.391687  -0.000000
     3  C   -0.319700  -0.000000
     4  C    0.256295  -0.000000
     5  C    0.603749  -0.000000
     6  C    0.119758   0.000000
     7  C   -0.803700   0.000000
     8  C   -0.363367   0.000000
     9  C    0.665551  -0.000000
    10  C   -0.618200   0.000000
    11  O   -0.493546   0.000000
    12  O   -0.498914   0.000000
    13  H    0.132546  -0.000000
    14  H    0.125095   0.000000
    15  O   -0.087362  -0.000000
    16  C    1.292505   0.000000
    17  C   -2.565524  -0.000000
    18  C    1.785940   0.000000
    19  H    0.078612   0.000000
    20  H    0.080399  -0.000000
    21  H    0.091763  -0.000000
    22  H    0.143129   0.000000
    23  H    0.148779   0.000000
    24  H    0.042411  -0.000000
    25  H   -0.080767  -0.000000
    26  H   -1.419877  -0.000000
 Sum of Mulliken charges =  -2.00000   0.00000

 Dipole moment (field-independent basis, Debye):
    X=            -21.5382    Y=            -14.5912    Z=              0.7472  Tot=             26.0261
 Quadrupole moment (field-independent basis, Debye-Ang):
   XX=           -291.9005   YY=           -180.6028   ZZ=           -111.8090
   XY=            -58.4101   XZ=              1.5429   YZ=              3.7206

  Exact polarizability:2060.092 234.028 588.881   4.217 121.970 265.200
 Approx polarizability:********2009.878 916.264 208.063  89.429 283.040

                      1                      2                      3
                      A                      A                      A
 Frequencies --     20.6923                58.2103                75.2232
 Red. masses --      4.2387                 2.0176                 5.2548
 Frc consts  --      0.0011                 0.0040                 0.0175
 IR Inten    --      3.5279                15.7710                 7.2112

                      4                      5                      6
                      A                      A                      A
 Frequencies --     90.2923               123.7822               135.0208
 Red. masses --      3.9119                 3.7055                 4.2731
 Frc consts  --      0.0188                 0.0335                 0.0459
 IR Inten    --     41.6234                 6.1570                 0.0957

                      7                      8                      9
                      A                      A                      A
 Frequencies --    183.2580               242.8145               257.6177
 Red. masses --      7.5399                 5.5619                 5.1832
 Frc consts  --      0.1492                 0.1932                 0.2027
 IR Inten    --      2.5936                 9.3114                 3.7360

                     10                     11                     12
                      A                      A                      A
 Frequencies --    263.7857               290.2731               354.6556
 Red. masses --      4.6435                 4.6874                10.3962
 Frc consts  --      0.1904                 0.2327                 0.7704
 IR Inten    --     21.6855                27.0745                26.2488

                     13                     14                     15
                      A                      A                      A
 Frequencies --    379.0199               436.3032               454.8684
 Red. masses --      7.0025                 3.4919                 2.7035
 Frc consts  --      0.5927                 0.3916                 0.3296
 IR Inten    --      7.9906                 1.1283                 9.0098

                     16                     17                     18
                      A                      A                      A
 Frequencies --    461.1485               476.1524               508.4522
 Red. masses --     10.3549                 6.2400                 4.1424
 Frc consts  --      1.2974                 0.8335                 0.6310
 IR Inten    --    572.5239                11.5324                10.5888

                     19                     20                     21
                      A                      A                      A
 Frequencies --    554.5982               628.1660               637.0658
 Red. masses --      6.3524                 2.7139                 2.6721
 Frc consts  --      1.1512                 0.6309                 0.6390
 IR Inten    --     55.9598                33.3528                39.8415

                     22                     23                     24
                      A                      A                      A
 Frequencies --    681.7204               687.1926               693.9079
 Red. masses --      2.9284                 3.4603                 3.0216
 Frc consts  --      0.8019                 0.9628                 0.8572
 IR Inten    --     66.3254                19.6953                34.8889

                     25                     26                     27
                      A                      A                      A
 Frequencies --    726.1230               741.6151               758.3328
 Red. masses --      6.0132                 1.7846                 3.1171
 Frc consts  --      1.8680                 0.5783                 1.0561
 IR Inten    --     28.9596                51.6744                 5.8105

                     28                     29                     30
                      A                      A                      A
 Frequencies --    805.5142               810.3805               842.4448
 Red. masses --      1.6257                 1.9373                 4.5644
 Frc consts  --      0.6215                 0.7496                 1.9086
 IR Inten    --      1.8712                25.4897                 7.3932

                     31                     32                     33
                      A                      A                      A
 Frequencies --    917.6800               939.7989               948.5329
 Red. masses --      1.6139                 1.3373                 4.1277
 Frc consts  --      0.8007                 0.6959                 2.1881
 IR Inten    --     93.9510                89.1762                27.5538

                     34                     35                     36
                      A                      A                      A
 Frequencies --    950.4910               956.9761              1005.4997
 Red. masses --      1.2215                 1.3561                 1.6742
 Frc consts  --      0.6502                 0.7317                 0.9973
 IR Inten    --      0.3020                 3.3510                43.9413

                     37                     38                     39
                      A                      A                      A
 Frequencies --   1017.5870              1040.2494              1080.3997
 Red. masses --      2.1003                 1.2291                 4.5334
 Frc consts  --      1.2814                 0.7836                 3.1178
 IR Inten    --    450.6490                41.5783                12.0410

                     40                     41                     42
                      A                      A                      A
 Frequencies --   1093.8463              1125.4391              1135.9994
 Red. masses --      2.7174                 1.4694                 3.4767
 Frc consts  --      1.9156                 1.0966                 2.6435
 IR Inten    --     33.1655               263.5520               419.0361

                     43                     44                     45
                      A                      A                      A
 Frequencies --   1156.5849              1166.2421              1213.9788
 Red. masses --      1.9368                 2.1240                 2.5225
 Frc consts  --      1.5265                 1.7021                 2.1903
 IR Inten    --     38.0267               113.0276               172.5740

                     46                     47                     48
                      A                      A                      A
 Frequencies --   1228.1938              1250.9343              1281.6501
 Red. masses --      1.7816                 1.2421                 1.8109
 Frc consts  --      1.5834                 1.1452                 1.7526
 IR Inten    --     64.5546               112.2978               205.7544

                     49                     50                     51
                      A                      A                      A
 Frequencies --   1294.4751              1337.1798              1364.5655
 Red. masses --      1.2930                 6.6727                 1.4716
 Frc consts  --      1.2766                 7.0297                 1.6145
 IR Inten    --    145.9310               359.5358               156.8705

                     52                     53                     54
                      A                      A                      A
 Frequencies --   1401.9902              1413.5080              1432.7428
 Red. masses --      2.8755                 4.8314                 3.5007
 Frc consts  --      3.3301                 5.6875                 4.2339
 IR Inten    --      9.6320              1237.0041              1758.4415

                     55                     56                     57
                      A                      A                      A
 Frequencies --   1448.4068              1457.1515              1497.5834
 Red. masses --      1.4905                 3.0198                 1.1402
 Frc consts  --      1.8423                 3.7778                 1.5067
 IR Inten    --    110.3089                95.9431                31.4292

                     58                     59                     60
                      A                      A                      A
 Frequencies --   1501.2227              1520.1827              1577.6069
 Red. masses --      4.3372                 3.9409                 6.7135
 Frc consts  --      5.7590                 5.3658                 9.8446
 IR Inten    --    524.0104               291.0676              2875.7391

                     61                     62                     63
                      A                      A                      A
 Frequencies --   1590.0059              1687.0223              2930.4011
 Red. masses --      5.5761                 4.7771                 1.0655
 Frc consts  --      8.3058                 8.0105                 5.3909
 IR Inten    --    383.7421               110.7328                76.8304

                     64                     65                     66
                      A                      A                      A
 Frequencies --   2978.1431              3093.9727              3094.3689
 Red. masses --      1.0916                 1.0827                 1.0601
 Frc consts  --      5.7041                 6.1063                 5.9805
 IR Inten    --     45.9122                34.8457                 2.9025

                     67                     68                     69
                      A                      A                      A
 Frequencies --   3117.5675              3138.9555              3153.9763
 Red. masses --      1.0905                 1.0911                 1.0873
 Frc consts  --      6.2446                 6.3341                 6.3725
 IR Inten    --    289.8765                 2.3920                18.3428

                     70                     71                     72
                      A                      A                      A
 Frequencies --   3155.5803              3160.1510              3179.0437
 Red. masses --      1.0901                 1.0911                 1.1135
 Frc consts  --      6.3957                 6.4199                 6.6303
 IR Inten    --    138.5958               160.4453                34.4648

 - Thermochemistry -
 -------------------
 Temperature   298.150 Kelvin.  Pressure   1.00000 Atm.
 Atom     1 has atomic number  6 and mass  12.00000

 Molecular mass:   214.06299 amu.
 Principal axes and moments of inertia in atomic units:
                           1         2         3
     Eigenvalues --  1516.657326131.625257604.88332
           X            0.99623  -0.08678   0.00159
           Y            0.08671   0.99584   0.02814
           Z           -0.00402  -0.02790   0.99960
 This molecule is an asymmetric top.
 Rotational symmetry number  1.
 Warning -- assumption of classical behavior for rotation
           may cause significant error
 Rotational temperatures (Kelvin)      0.05711     0.01413     0.01139
 Rotational constants (GHZ):           1.18995     0.29433     0.23731
 Zero-point vibrational energy     504910.9 (Joules/Mol)
                                  120.67661 (Kcal/Mol)
 Warning -- explicit consideration of  19 degrees of freedom as
           vibrations may cause significant error
 Vibrational temperatures:     29.77    83.75   108.23   129.91   178.09
          (Kelvin)            194.26   263.67   349.36   370.65   379.53
                              417.64   510.27   545.33   627.74   654.45
                              663.49   685.08   731.55   797.94   903.79
                              916.60   980.84   988.72   998.38  1044.73
                             1067.02  1091.07  1158.96  1165.96  1212.09
                             1320.34  1352.16  1364.73  1367.54  1376.88
                             1446.69  1464.08  1496.69  1554.45  1573.80
                             1619.26  1634.45  1664.07  1677.96  1746.64
                             1767.10  1799.82  1844.01  1862.46  1923.90
                             1963.31  2017.15  2033.72  2061.40  2083.93
                             2096.52  2154.69  2159.92  2187.20  2269.82
                             2287.66  2427.25  4216.19  4284.88  4451.54
                             4452.11  4485.48  4516.26  4537.87  4540.18
                             4546.75  4573.93

 Zero-point correction=                           0.192310 (Hartree/Particle)
 Thermal correction to Energy=                    0.206098
 Thermal correction to Enthalpy=                  0.207042
 Thermal correction to Gibbs Free Energy=         0.150382
 Sum of electronic and zero-point Energies=           -727.015001
 Sum of electronic and thermal Energies=              -727.001214
 Sum of electronic and thermal Enthalpies=            -727.000269
 Sum of electronic and thermal Free Energies=         -727.056929

                     E (Thermal)             CV                S
                      KCal/Mol        Cal/Mol-Kelvin    Cal/Mol-Kelvin
 Total                  129.328             52.736            119.250
 Electronic               0.000              0.000              0.000
 Translational            0.889              2.981             41.987
 Rotational               0.889              2.981             32.625
 Vibrational            127.551             46.774             44.638
 Vibration     1          0.593              1.986              6.567
 Vibration     2          0.596              1.974              4.517
 Vibration     3          0.599              1.966              4.012
 Vibration     4          0.602              1.956              3.654
 Vibration     5          0.610              1.929              3.040
 Vibration     6          0.613              1.918              2.873
 Vibration     7          0.631              1.863              2.295
 Vibration     8          0.659              1.775              1.782
 Vibration     9          0.667              1.750              1.678
 Vibration    10          0.670              1.739              1.637
 Vibration    11          0.686              1.692              1.472
 Vibration    12          0.731              1.566              1.145
 Vibration    13          0.749              1.515              1.043
 Vibration    14          0.797              1.391              0.838
 Vibration    15          0.813              1.350              0.781
 Vibration    16          0.819              1.336              0.763
 Vibration    17          0.833              1.303              0.721
 Vibration    18          0.864              1.231              0.637
 Vibration    19          0.910              1.130              0.535

                           ! Non-Optimized Parameters !
 Normal termination of Gaussian 16 at Wed Dec 27 14:02:50 2023.
