 Gaussian 16, Revision A.03,
 Gaussian 16:  ES64L-G16RevA.03 25-Dec-2016

 ----------------------------------------------------------------
 #P UB3LYP/6-311++G(d,p) SCRF=(PCM,Solvent=n,n-DiMethylFormamide)
 ----------------------------------------------------------------

 -------
 Reduced
 -------
 Symbolic Z-matrix:
 Charge = -2 Multiplicity = 1

                         Standard orientation:
 ---------------------------------------------------------------------
 Center     Atomic      Atomic             Coordinates (Angstroms)
 Number     Number       Type             X           Y           Z
 ---------------------------------------------------------------------
      1          6           0        1.013290   -1.007779   -1.110905
      2          6           0       -0.396517   -1.010453   -1.336508
      3          6           0       -1.335256   -1.024310   -0.301420
      4          6           0       -1.010861   -1.011446    1.110344
      5          6           0        0.398886   -1.015335    1.335906
      6          6           0        1.337596   -1.025729    0.300763
      7          8           0        1.875731   -0.973218   -2.057866
      8          8           0       -1.873050   -0.979817    2.057715
      9         16           0        3.058611   -1.062014    0.782449
     10          6           0        3.806224    0.469400    0.135356
     11          6           0        4.125984    0.583010   -1.220075
     12          6           0        4.070398    1.507691    1.028323
     13          6           0        4.671037    2.677238    0.564601
     14          6           0        4.723036    1.760595   -1.671365
     15          6           0        5.000385    2.804778   -0.787396
     16          8           0        3.799369   -2.185140    0.174333
     17          8           0        3.147089   -0.925816    2.259173
     18          1           0        3.843170   -0.223295   -1.886164
     19          1           0        3.807579    1.378584    2.071228
     20          1           0        4.963777    1.864654   -2.725181
     21          1           0        4.879818    3.487703    1.256827
     22          1           0        5.463500    3.718123   -1.150540
     23         16           0       -3.056193   -1.061234   -0.783926
     24          6           0       -3.806813    0.468100   -0.134828
     25          6           0       -4.080295    1.503898   -1.027933
     26          6           0       -4.120607    0.582040    1.221999
     27          6           0       -4.720575    1.757608    1.674629
     28          6           0       -4.684137    2.671263   -0.562824
     29          6           0       -5.007210    2.799276    0.790621
     30          1           0       -0.733277   -1.002314   -2.365651
     31          1           0        0.735596   -1.010737    2.365093
     32          1           0       -3.822169    1.374545   -2.071988
     33          1           0       -3.830121   -0.222146    1.887626
     34          1           0       -4.956428    1.862066    2.729517
     35          1           0       -4.900218    3.479735   -1.255152
     36          1           0       -5.472749    3.710986    1.154791
     37          8           0       -3.795712   -2.186446   -0.178205
     38          8           0       -3.143996   -0.922689   -2.260465
 ---------------------------------------------------------------------

 SCF Done:  E(UB3LYP) =  -1941.36950333     A.U. after   17 cycles

 The electronic state is 1-A.
 Alpha  occ. eigenvalues --  -89.03943 -89.03941 -19.10784 -19.10784 -19.10569
 Alpha  occ. eigenvalues --  -19.10568 -19.03553 -19.03550 -10.20559 -10.20556
 Alpha  occ. eigenvalues --  -10.20328 -10.20325 -10.18632 -10.18631 -10.18368
 Alpha  occ. eigenvalues --  -10.18368 -10.18271 -10.18266 -10.18214 -10.18213
 Alpha  occ. eigenvalues --  -10.18054 -10.18054 -10.17950 -10.17939 -10.15388
 Alpha  occ. eigenvalues --  -10.15387  -8.10328  -8.10326  -6.06630  -6.06628
 Alpha  occ. eigenvalues --   -6.06503  -6.06502  -6.06395  -6.06394  -1.09642
 Alpha  occ. eigenvalues --   -1.09635  -0.99156  -0.99152  -0.96032  -0.95682
 Alpha  occ. eigenvalues --   -0.86786  -0.86784  -0.82068  -0.78081  -0.77015
 Alpha  occ. eigenvalues --   -0.75606  -0.75532  -0.75335  -0.69234  -0.69048
 Alpha  occ. eigenvalues --   -0.64635  -0.61747  -0.61488  -0.61199  -0.58562
 Alpha  occ. eigenvalues --   -0.58055  -0.55638  -0.53389  -0.52334  -0.49133
 Alpha  occ. eigenvalues --   -0.47986  -0.47920  -0.47546  -0.47045  -0.46599
 Alpha  occ. eigenvalues --   -0.45997  -0.44833  -0.44712  -0.44264  -0.43753
 Alpha  occ. eigenvalues --   -0.43014  -0.42968  -0.41899  -0.39528  -0.38955
 Alpha  occ. eigenvalues --   -0.38572  -0.38081  -0.37731  -0.37215  -0.37024
 Alpha  occ. eigenvalues --   -0.35916  -0.34960  -0.34333  -0.34155  -0.33183
 Alpha  occ. eigenvalues --   -0.32894  -0.31686  -0.31578  -0.30129  -0.29984
 Alpha  occ. eigenvalues --   -0.29145  -0.29027  -0.27218  -0.26911  -0.26440
 Alpha  occ. eigenvalues --   -0.26345  -0.25052  -0.24813  -0.21650  -0.21418
 Alpha  occ. eigenvalues --   -0.14494
 Alpha virt. eigenvalues --   -0.04946  -0.03197  -0.01953  -0.01914  -0.01185
 Alpha virt. eigenvalues --   -0.00268   0.00239   0.01270   0.01369   0.02006
 Alpha virt. eigenvalues --    0.02303   0.02789   0.03059   0.03476   0.03942

  Beta  occ. eigenvalues --  -89.03943 -89.03941 -19.10784 -19.10784 -19.10569
  Beta  occ. eigenvalues --  -19.10568 -19.03553 -19.03550 -10.20559 -10.20556
  Beta  occ. eigenvalues --  -10.20328 -10.20325 -10.18632 -10.18631 -10.18368
  Beta  occ. eigenvalues --  -10.18368 -10.18271 -10.18266 -10.18214 -10.18213
  Beta  occ. eigenvalues --  -10.18054 -10.18054 -10.17950 -10.17939 -10.15388
  Beta  occ. eigenvalues --  -10.15387  -8.10328  -8.10326  -6.06630  -6.06628
  Beta  occ. eigenvalues --   -6.06503  -6.06502  -6.06395  -6.06394  -1.09642
  Beta  occ. eigenvalues --   -1.09635  -0.99156  -0.99152  -0.96032  -0.95682
  Beta  occ. eigenvalues --   -0.86786  -0.86784  -0.82068  -0.78081  -0.77015
  Beta  occ. eigenvalues --   -0.75606  -0.75532  -0.75335  -0.69234  -0.69048
  Beta  occ. eigenvalues --   -0.64635  -0.61747  -0.61488  -0.61199  -0.58562
  Beta  occ. eigenvalues --   -0.58055  -0.55638  -0.53389  -0.52334  -0.49133
  Beta  occ. eigenvalues --   -0.47986  -0.47920  -0.47546  -0.47045  -0.46599
  Beta  occ. eigenvalues --   -0.45997  -0.44833  -0.44712  -0.44264  -0.43753
  Beta  occ. eigenvalues --   -0.43014  -0.42968  -0.41899  -0.39528  -0.38955
  Beta  occ. eigenvalues --   -0.38572  -0.38081  -0.37731  -0.37215  -0.37024
  Beta  occ. eigenvalues --   -0.35916  -0.34960  -0.34333  -0.34155  -0.33183
  Beta  occ. eigenvalues --   -0.32894  -0.31686  -0.31578  -0.30129  -0.29984
  Beta  occ. eigenvalues --   -0.29145  -0.29027  -0.27218  -0.26911  -0.26440
  Beta  occ. eigenvalues --   -0.26345  -0.25052  -0.24813  -0.21650  -0.21418
  Beta  occ. eigenvalues --   -0.14494
  Beta virt. eigenvalues --   -0.04946  -0.03197  -0.01953  -0.01914  -0.01185
  Beta virt. eigenvalues --   -0.00268   0.00239   0.01270   0.01369   0.02006
  Beta virt. eigenvalues --    0.02303   0.02789   0.03059   0.03476   0.03942

 Mulliken charges and spin densities:
               1          2
     1  C   -0.544821   0.000000
     2  C   -0.316616   0.000000
     3  C    0.359550  -0.000000
     4  C   -0.540951   0.000000
     5  C   -0.316368  -0.000000
     6  C    0.359048   0.000000
     7  O   -0.564118  -0.000000
     8  O   -0.564607  -0.000000
     9  S    0.243408  -0.000000
    10  C    0.088517   0.000000
    11  C   -0.294704  -0.000000
    12  C    0.282793  -0.000000
    13  C   -0.457699  -0.000000
    14  C   -0.381357  -0.000000
    15  C   -0.313251   0.000000
    16  O   -0.189575  -0.000000
    17  O   -0.281863  -0.000000
    18  H    0.288160  -0.000000
    19  H    0.245620   0.000000
    20  H    0.206423  -0.000000
    21  H    0.204843   0.000000
    22  H    0.185974   0.000000
    23  S    0.242898  -0.000000
    24  C    0.084733   0.000000
    25  C    0.287938   0.000000
    26  C   -0.301187  -0.000000
    27  C   -0.380051   0.000000
    28  C   -0.455579  -0.000000
    29  C   -0.313006  -0.000000
    30  H    0.237463  -0.000000
    31  H    0.237238  -0.000000
    32  H    0.245713   0.000000
    33  H    0.288628  -0.000000
    34  H    0.206467   0.000000
    35  H    0.204933   0.000000
    36  H    0.185941  -0.000000
    37  O   -0.188580  -0.000000
    38  O   -0.281954  -0.000000
 Sum of Mulliken charges =  -2.00000  -0.00000

 Dipole moment (field-independent basis, Debye):
    X=             -0.0176    Y=             17.7157    Z=              0.0061  Tot=             17.7158
 Quadrupole moment (field-independent basis, Debye-Ang):
   XX=           -246.8835   YY=           -188.4073   ZZ=           -206.7181
   XY=             -0.0330   XZ=             -5.5277   YZ=              0.0487

 Normal termination of Gaussian 16 at Wed Jan 24 23:01:54 2024.
