 Gaussian 16, Revision A.03,
 Gaussian 16:  ES64L-G16RevA.03 25-Dec-2016

 --------------------------------------
 #P UB3LYP/6-311++G(d,p) nosym opt freq
 --------------------------------------

 -------
 Radical
 -------
 Symbolic Z-matrix:
 Charge = -1 Multiplicity = 2

 SCF Done:  E(UB3LYP) =  -1314.07225068     A.U. after   23 cycles
 SCF Done:  E(UB3LYP) =  -1314.08463785     A.U. after   20 cycles
 SCF Done:  E(UB3LYP) =  -1314.08553225     A.U. after   23 cycles
 SCF Done:  E(UB3LYP) =  -1314.08583279     A.U. after   20 cycles
 SCF Done:  E(UB3LYP) =  -1314.08691919     A.U. after   18 cycles
 SCF Done:  E(UB3LYP) =  -1314.08708896     A.U. after   19 cycles
 SCF Done:  E(UB3LYP) =  -1314.08727744     A.U. after   20 cycles
 SCF Done:  E(UB3LYP) =  -1314.08744654     A.U. after   16 cycles
 SCF Done:  E(UB3LYP) =  -1314.08768344     A.U. after   19 cycles
 SCF Done:  E(UB3LYP) =  -1314.08791413     A.U. after   20 cycles
 SCF Done:  E(UB3LYP) =  -1314.08809637     A.U. after   17 cycles
 SCF Done:  E(UB3LYP) =  -1314.08821087     A.U. after   17 cycles
 SCF Done:  E(UB3LYP) =  -1314.08820497     A.U. after   17 cycles
 SCF Done:  E(UB3LYP) =  -1314.08826630     A.U. after   16 cycles
 SCF Done:  E(UB3LYP) =  -1314.08826340     A.U. after   15 cycles
 SCF Done:  E(UB3LYP) =  -1314.08826947     A.U. after   14 cycles
 SCF Done:  E(UB3LYP) =  -1314.08826967     A.U. after   13 cycles
 Optimization completed.
    -- Stationary point found.
 Normal termination of Gaussian 16 at Wed Dec 20 04:54:57 2023.

 ----------------------------------------------------------------------
 #P Geom=AllCheck Guess=TCheck SCRF=Check GenChk UB3LYP/6-311++G(d,p) F
 req
 ----------------------------------------------------------------------

 Structure from the checkpoint file:  "067-rad.chk"
 -------
 Radical
 -------
 Charge = -1 Multiplicity = 2

                          Input orientation:
 ---------------------------------------------------------------------
 Center     Atomic      Atomic             Coordinates (Angstroms)
 Number     Number       Type             X           Y           Z
 ---------------------------------------------------------------------
      1          6           0       -0.616487   -1.109821    2.526597
      2          6           0       -0.501829   -1.888607    1.305105
      3          6           0        0.096635   -1.409442    0.182894
      4          6           0        0.684102   -0.086000    0.115929
      5          6           0        0.583142    0.726586    1.323662
      6          6           0       -0.095499    0.250412    2.432528
      7          8           0       -1.100708   -1.593467    3.575262
      8          8           0        1.252773    0.341869   -0.924665
      9         16           0       -0.403165    1.332165    3.838364
     10          6           0        0.657361    0.712782    5.168839
     11          6           0        0.154537   -0.229009    6.062685
     12          6           0        1.958855    1.200136    5.269004
     13          6           0        2.772973    0.734542    6.299845
     14          6           0        0.978457   -0.682686    7.091179
     15          6           0        2.282696   -0.201610    7.211146
     16          8           0        0.110517    2.669287    3.478796
     17          8           0       -1.797416    1.224248    4.284972
     18          1           0       -0.914002   -2.892182    1.346906
     19          1           0        0.176161   -2.011313   -0.717599
     20          1           0       -0.851359   -0.602417    5.925909
     21          1           0        2.318819    1.922803    4.546648
     22          1           0        3.788986    1.103364    6.389532
     23          1           0        0.602534   -1.417613    7.794850
     24          1           0        2.920523   -0.561721    8.011934
     25          6           0        1.349177    2.038734    1.242515
     26          6           0        0.703053    3.159677    0.467101
     27          8           0        2.472305    2.111145    1.695338
     28          1           0       -0.271288    3.394875    0.900212
     29          1           0        0.560649    2.819434   -0.562641
     30          1           0        1.346090    4.040746    0.487976
 ---------------------------------------------------------------------

 SCF Done:  E(UB3LYP) =  -1314.08826967     A.U. after    2 cycles

 Alpha  occ. eigenvalues --  -88.93508 -19.00044 -18.99836 -18.99736 -18.97045
 Alpha  occ. eigenvalues --  -18.96935 -10.15694 -10.12379 -10.11836 -10.10906
 Alpha  occ. eigenvalues --  -10.09992 -10.09609 -10.09547 -10.09503 -10.09275
 Alpha  occ. eigenvalues --  -10.09162 -10.08393 -10.06499 -10.06375 -10.05628
 Alpha  occ. eigenvalues --   -7.99872  -5.96145  -5.96047  -5.95981  -0.99246
 Alpha  occ. eigenvalues --   -0.93515  -0.89772  -0.89324  -0.88595  -0.78002
 Alpha  occ. eigenvalues --   -0.73049  -0.68365  -0.66847  -0.66540  -0.63526
 Alpha  occ. eigenvalues --   -0.59658  -0.56461  -0.52776  -0.52402  -0.50164
 Alpha  occ. eigenvalues --   -0.47008  -0.43648  -0.42532  -0.39359  -0.38348
 Alpha  occ. eigenvalues --   -0.37660  -0.37151  -0.36238  -0.36085  -0.34358
 Alpha  occ. eigenvalues --   -0.34337  -0.33737  -0.33180  -0.31534  -0.30303
 Alpha  occ. eigenvalues --   -0.30111  -0.29124  -0.28821  -0.28497  -0.27875
 Alpha  occ. eigenvalues --   -0.27061  -0.26617  -0.26421  -0.24760  -0.22135
 Alpha  occ. eigenvalues --   -0.20857  -0.19193  -0.19008  -0.18207  -0.17629
 Alpha  occ. eigenvalues --   -0.17311  -0.16070  -0.14927  -0.13547  -0.12335
 Alpha  occ. eigenvalues --   -0.05896
 Alpha virt. eigenvalues --    0.05097   0.06502   0.06968   0.07940   0.08609
 Alpha virt. eigenvalues --    0.09031   0.09523   0.09743   0.10195   0.11748
 Alpha virt. eigenvalues --    0.12283   0.12564   0.12955   0.13396   0.13696

  Beta  occ. eigenvalues --  -88.93510 -19.00021 -18.99838 -18.99726 -18.96284
  Beta  occ. eigenvalues --  -18.96239 -10.15709 -10.12321 -10.11756 -10.10905
  Beta  occ. eigenvalues --  -10.09986 -10.09611 -10.09550 -10.09498 -10.09269
  Beta  occ. eigenvalues --  -10.09049 -10.08129 -10.06444 -10.06279 -10.05626
  Beta  occ. eigenvalues --   -7.99873  -5.96147  -5.96048  -5.95985  -0.99227
  Beta  occ. eigenvalues --   -0.93448  -0.88875  -0.88381  -0.87943  -0.77995
  Beta  occ. eigenvalues --   -0.72413  -0.68316  -0.66839  -0.66300  -0.63390
  Beta  occ. eigenvalues --   -0.59105  -0.56009  -0.52766  -0.52161  -0.49957
  Beta  occ. eigenvalues --   -0.46835  -0.43547  -0.42315  -0.39204  -0.38196
  Beta  occ. eigenvalues --   -0.37608  -0.37028  -0.36078  -0.36066  -0.34334
  Beta  occ. eigenvalues --   -0.34192  -0.33662  -0.32910  -0.31437  -0.29701
  Beta  occ. eigenvalues --   -0.29347  -0.28857  -0.28588  -0.27932  -0.27370
  Beta  occ. eigenvalues --   -0.26705  -0.26507  -0.24994  -0.23706  -0.22009
  Beta  occ. eigenvalues --   -0.20820  -0.19092  -0.18789  -0.17871  -0.17456
  Beta  occ. eigenvalues --   -0.15509  -0.14625  -0.14153  -0.12844  -0.11825
  Beta virt. eigenvalues --    0.01330   0.05436   0.06502   0.06998   0.08579
  Beta virt. eigenvalues --    0.08812   0.09137   0.09610   0.10076   0.10203
  Beta virt. eigenvalues --    0.11781   0.12377   0.12651   0.13373   0.13687

 Mulliken charges and spin densities:
               1          2
     1  C   -0.397494   0.010812
     2  C    0.081020   0.072172
     3  C   -0.053347   0.043446
     4  C   -0.674830   0.055779
     5  C    0.970051   0.198454
     6  C   -0.056778   0.119108
     7  O   -0.307628   0.239669
     8  O   -0.353872   0.294651
     9  S    0.280595  -0.037373
    10  C    0.520000   0.002785
    11  C   -0.066226   0.017362
    12  C   -0.222249   0.006790
    13  C   -0.506453  -0.001563
    14  C   -0.438182  -0.004216
    15  C   -0.281905   0.004765
    16  O   -0.135930  -0.003399
    17  O   -0.091550   0.008285
    18  H    0.172859  -0.006552
    19  H    0.167765  -0.004994
    20  H    0.289536  -0.000517
    21  H    0.252869   0.000940
    22  H    0.166719   0.000056
    23  H    0.162654   0.000145
    24  H    0.134897  -0.000302
    25  C   -0.286161  -0.026749
    26  C   -0.620614   0.007692
    27  O   -0.222198   0.003350
    28  H    0.165241   0.000664
    29  H    0.209248  -0.002025
    30  H    0.141963   0.000764
 Sum of Mulliken charges =  -1.00000   1.00000

 Dipole moment (field-independent basis, Debye):
    X=             -0.7170    Y=             -3.3643    Z=            -10.2754  Tot=             10.8359
 Quadrupole moment (field-independent basis, Debye-Ang):
   XX=           -143.9226   YY=           -141.9218   ZZ=           -171.0370
   XY=             -5.1608   XZ=             16.8049   YZ=            -10.8297

  Exact polarizability: 180.898  27.713 198.391   0.731 -18.443 275.851
 Approx polarizability: 322.380  60.446 313.358 -36.698 -54.792 409.252

                      1                      2                      3
                      A                      A                      A
 Frequencies --     29.5299                32.7486                46.1077
 Red. masses --      5.8381                 4.9739                 5.7647
 Frc consts  --      0.0030                 0.0031                 0.0072
 IR Inten    --      2.4222                 1.0586                 1.0277

                      4                      5                      6
                      A                      A                      A
 Frequencies --     79.8525               101.6639               118.7132
 Red. masses --      6.5200                 4.4817                 1.2437
 Frc consts  --      0.0245                 0.0273                 0.0103
 IR Inten    --      1.2829                 4.4430                 1.2959

                      7                      8                      9
                      A                      A                      A
 Frequencies --    120.1508               159.8284               163.2383
 Red. masses --      3.9898                 5.1827                 7.4829
 Frc consts  --      0.0339                 0.0780                 0.1175
 IR Inten    --      6.1225                 3.3715                 4.7729

                     10                     11                     12
                      A                      A                      A
 Frequencies --    176.2393               185.2114               217.8465
 Red. masses --      6.8728                 7.9873                 6.0794
 Frc consts  --      0.1258                 0.1614                 0.1700
 IR Inten    --      1.2123                 0.2073                 3.8609

                     13                     14                     15
                      A                      A                      A
 Frequencies --    250.6416               263.9353               295.5138
 Red. masses --      7.7089                11.9317                 7.9276
 Frc consts  --      0.2853                 0.4897                 0.4079
 IR Inten    --      0.0987                 2.3036                 2.5057

                     16                     17                     18
                      A                      A                      A
 Frequencies --    308.6461               318.1552               368.9920
 Red. masses --      8.2634                 5.8416                 5.8445
 Frc consts  --      0.4638                 0.3484                 0.4688
 IR Inten    --      3.4281                 0.0053                 1.2639

                     19                     20                     21
                      A                      A                      A
 Frequencies --    405.7129               411.1167               430.7315
 Red. masses --      7.6261                 2.8901                 7.1184
 Frc consts  --      0.7396                 0.2878                 0.7781
 IR Inten    --      5.7628                 0.0990                12.3033

                     22                     23                     24
                      A                      A                      A
 Frequencies --    460.9987               481.0993               506.2455
 Red. masses --      5.3487                 7.8106                 6.3638
 Frc consts  --      0.6697                 1.0651                 0.9609
 IR Inten    --      3.9599                 1.1416                25.8720

                     25                     26                     27
                      A                      A                      A
 Frequencies --    522.3139               558.4423               575.2904
 Red. masses --      4.0125                 5.1292                 6.6591
 Frc consts  --      0.6450                 0.9424                 1.2985
 IR Inten    --      5.3106                97.9859                32.3658

                     28                     29                     30
                      A                      A                      A
 Frequencies --    612.3599               622.4939               627.4655
 Red. masses --      5.6664                 3.4043                 6.4294
 Frc consts  --      1.2519                 0.7772                 1.4914
 IR Inten    --    106.5793                 8.2753                 0.1989

                     31                     32                     33
                      A                      A                      A
 Frequencies --    651.8756               699.6297               711.1750
 Red. masses --      3.1221                 1.8447                 6.8699
 Frc consts  --      0.7817                 0.5320                 2.0472
 IR Inten    --      6.1978                49.3362                 7.9098

                     34                     35                     36
                      A                      A                      A
 Frequencies --    730.6612               762.9075               773.6191
 Red. masses --      6.6474                 1.8245                 7.7281
 Frc consts  --      2.0909                 0.6257                 2.7251
 IR Inten    --     86.3366                11.2578                 5.0939

                     37                     38                     39
                      A                      A                      A
 Frequencies --    837.0702               849.6747               874.2216
 Red. masses --      1.9915                 1.2505                 6.2858
 Frc consts  --      0.8222                 0.5319                 2.8304
 IR Inten    --     43.3804                 0.9146                14.3650

                     40                     41                     42
                      A                      A                      A
 Frequencies --    908.6138               935.4013               970.8708
 Red. masses --      6.9882                 1.3892                 1.2946
 Frc consts  --      3.3992                 0.7162                 0.7190
 IR Inten    --     21.9929                 0.5802                 0.7435

                     43                     44                     45
                      A                      A                      A
 Frequencies --    986.4337               986.9664               993.2951
 Red. masses --      1.3799                 2.1482                 1.3098
 Frc consts  --      0.7911                 1.2329                 0.7614
 IR Inten    --      0.4957                15.3618                 0.1328

                     46                     47                     48
                      A                      A                      A
 Frequencies --   1008.6550              1014.8970              1041.8877
 Red. masses --      2.5558                 4.6010                 3.3267
 Frc consts  --      1.5320                 2.7922                 2.1277
 IR Inten    --      9.1110                 3.4621                18.3156

                     49                     50                     51
                      A                      A                      A
 Frequencies --   1066.9085              1086.8249              1096.7089
 Red. masses --      3.6515                 2.7680                 1.5985
 Frc consts  --      2.4489                 1.9264                 1.1327
 IR Inten    --     96.7082                32.0655                 8.2500

                     52                     53                     54
                      A                      A                      A
 Frequencies --   1107.1370              1112.3889              1177.5324
 Red. masses --      1.7618                 4.0545                 1.1162
 Frc consts  --      1.2724                 2.9560                 0.9119
 IR Inten    --     12.6613               117.1741                 0.0872

                     55                     56                     57
                      A                      A                      A
 Frequencies --   1198.2883              1199.0703              1219.7547
 Red. masses --      1.7866                 1.3350                 3.8424
 Frc consts  --      1.5115                 1.1309                 3.3682
 IR Inten    --     37.9313                21.6829                29.0128

                     58                     59                     60
                      A                      A                      A
 Frequencies --   1244.0967              1313.6065              1330.3630
 Red. masses --     16.8278                 2.5094                 3.2618
 Frc consts  --     15.3457                 2.5512                 3.4013
 IR Inten    --    164.7049                 4.3685                 0.0647

                     61                     62                     63
                      A                      A                      A
 Frequencies --   1347.9655              1367.0631              1404.7883
 Red. masses --      1.6589                 1.3380                 3.4008
 Frc consts  --      1.7759                 1.4733                 3.9541
 IR Inten    --      3.0525                73.0956                39.1535

                     64                     65                     66
                      A                      A                      A
 Frequencies --   1456.9957              1467.0496              1472.1425
 Red. masses --      5.5647                 1.1349                 1.0971
 Frc consts  --      6.9600                 1.4391                 1.4009
 IR Inten    --    173.1867                10.4464                21.0632

                     67                     68                     69
                      A                      A                      A
 Frequencies --   1473.0486              1506.8341              1514.8064
 Red. masses --      2.1229                 2.0214                 7.8151
 Frc consts  --      2.7140                 2.7041                10.5657
 IR Inten    --     22.8807                 9.7867                67.7023

                     70                     71                     72
                      A                      A                      A
 Frequencies --   1550.0443              1621.4952              1622.7354
 Red. masses --      8.6405                 5.3817                 5.7877
 Frc consts  --     12.2314                 8.3369                 8.9795
 IR Inten    --    273.4282                 2.7101                 0.1372

                     73                     74                     75
                      A                      A                      A
 Frequencies --   1633.1053              1757.4926              3032.9791
 Red. masses --      7.2371                11.0356                 1.0329
 Frc consts  --     11.3722                20.0833                 5.5980
 IR Inten    --     15.2009               177.5437                10.9744

                     76                     77                     78
                      A                      A                      A
 Frequencies --   3107.9038              3124.4933              3146.3993
 Red. masses --      1.0998                 1.1045                 1.0856
 Frc consts  --      6.2588                 6.3528                 6.3321
 IR Inten    --      2.8241                22.5428                11.1221

                     79                     80                     81
                      A                      A                      A
 Frequencies --   3150.2365              3166.3882              3167.5742
 Red. masses --      1.0852                 1.0899                 1.0957
 Frc consts  --      6.3452                 6.4380                 6.4771
 IR Inten    --      2.4059                26.3160                33.0664

                     82                     83                     84
                      A                      A                      A
 Frequencies --   3176.4120              3197.4278              3217.5344
 Red. masses --      1.0951                 1.0938                 1.0929
 Frc consts  --      6.5101                 6.5887                 6.6663
 IR Inten    --     35.6552                 9.1218                 7.1474

 - Thermochemistry -
 -------------------
 Temperature   298.150 Kelvin.  Pressure   1.00000 Atm.
 Atom     1 has atomic number  6 and mass  12.00000

 Molecular mass:   290.02490 amu.
 Principal axes and moments of inertia in atomic units:
                           1         2         3
     Eigenvalues --  3499.484186936.384428044.06899
           X            0.07329   0.51386   0.85474
           Y           -0.06132   0.85774  -0.51041
           Z            0.99542   0.01500  -0.09437
 This molecule is an asymmetric top.
 Rotational symmetry number  1.
 Warning -- assumption of classical behavior for rotation
           may cause significant error
 Rotational temperatures (Kelvin)      0.02475     0.01249     0.01077
 Rotational constants (GHZ):           0.51572     0.26018     0.22436
 Zero-point vibrational energy     550430.2 (Joules/Mol)
                                  131.55596 (Kcal/Mol)
 Warning -- explicit consideration of  28 degrees of freedom as
           vibrations may cause significant error
 Vibrational temperatures:     42.49    47.12    66.34   114.89   146.27
          (Kelvin)            170.80   172.87   229.96   234.86   253.57
                              266.48   313.43   360.62   379.74   425.18
                              444.07   457.75   530.90   583.73   591.51
                              619.73   663.27   692.19   728.37   751.49
                              803.47   827.71   881.05   895.63   902.78
                              937.90  1006.61  1023.22  1051.26  1097.65
                             1113.07  1204.36  1222.49  1257.81  1307.29
                             1345.83  1396.87  1419.26  1420.02  1429.13
                             1451.23  1460.21  1499.04  1535.04  1563.70
                             1577.92  1592.92  1600.48  1694.21  1724.07
                             1725.19  1754.96  1789.98  1889.99  1914.10
                             1939.42  1966.90  2021.18  2096.29  2110.76
                             2118.08  2119.39  2168.00  2179.47  2230.17
                             2332.97  2334.75  2349.67  2528.64  4363.78
                             4471.58  4495.45  4526.97  4532.49  4555.73
                             4557.43  4570.15  4600.39  4629.31

 Zero-point correction=                           0.209648 (Hartree/Particle)
 Thermal correction to Energy=                    0.227558
 Thermal correction to Enthalpy=                  0.228502
 Thermal correction to Gibbs Free Energy=         0.162094
 Sum of electronic and zero-point Energies=          -1313.878622
 Sum of electronic and thermal Energies=             -1313.860712
 Sum of electronic and thermal Enthalpies=           -1313.859767
 Sum of electronic and thermal Free Energies=        -1313.926176

                     E (Thermal)             CV                S
                      KCal/Mol        Cal/Mol-Kelvin    Cal/Mol-Kelvin
 Total                  142.795             67.363            139.768
 Electronic               0.000              0.000              1.377
 Translational            0.889              2.981             42.892
 Rotational               0.889              2.981             33.634
 Vibrational            141.017             61.401             61.865
 Vibration     1          0.593              1.984              5.861
 Vibration     2          0.594              1.983              5.656
 Vibration     3          0.595              1.979              4.978
 Vibration     4          0.600              1.963              3.894
 Vibration     5          0.604              1.948              3.422
 Vibration     6          0.609              1.934              3.121
 Vibration     7          0.609              1.932              3.098
 Vibration     8          0.622              1.892              2.552
 Vibration     9          0.623              1.888              2.512
 Vibration    10          0.628              1.872              2.368
 Vibration    11          0.631              1.860              2.275
 Vibration    12          0.646              1.814              1.977
 Vibration    13          0.663              1.762              1.726
 Vibration    14          0.670              1.739              1.636
 Vibration    15          0.690              1.682              1.442
 Vibration    16          0.698              1.657              1.370
 Vibration    17          0.705              1.639              1.320
 Vibration    18          0.741              1.536              1.084
 Vibration    19          0.771              1.458              0.942
 Vibration    20          0.775              1.446              0.923
 Vibration    21          0.792              1.403              0.856
 Vibration    22          0.819              1.337              0.763
 Vibration    23          0.837              1.292              0.707
 Vibration    24          0.861              1.236              0.643
 Vibration    25          0.877              1.201              0.605
 Vibration    26          0.914              1.121              0.527
 Vibration    27          0.932              1.085              0.494
 Vibration    28          0.972              1.006              0.429

                           ! Non-Optimized Parameters !
 Normal termination of Gaussian 16 at Wed Dec 20 06:16:27 2023.
