 Q-Chem 5.4, Q-Chem, Inc., Pleasanton, CA (2021)
 Q-Chem 5.4.0 for Intel X86 EM64T Linux

User input:
--------------------------------------------------------------
$molecule
-3 1
C                 -1.7270390000      1.9745580000     -5.1533280000
C                 -1.7340340000      0.6467000000     -5.5345170000
C                 -1.4978350000     -0.3608210000     -4.5633970000
C                 -1.4864460000      2.3696730000     -3.8133090000
C                 -1.2169470000      1.3563080000     -2.8411740000
C                 -1.2526260000      0.0004860000     -3.2529490000
C                 -1.5231230000      3.7757190000     -3.4624840000
C                 -0.9310600000      1.6701740000     -1.4496340000
C                 -1.2178700000      4.1234470000     -2.0812750000
C                 -0.8611450000      3.0914020000     -1.1093830000
C                 -1.2600510000      5.5205980000     -1.6703850000
C                 -0.8755820000      5.8768280000     -0.3641080000
C                 -0.4523820000      4.8848670000      0.5349340000
C                 -0.4582360000      3.5593390000      0.1762900000
O                 -1.8019860000      4.6427160000     -4.3773320000
O                 -0.7681040000      0.7397610000     -0.6006990000
H                 -1.9123710000      2.7665800000     -5.8705640000
H                 -1.9231620000      0.3670460000     -6.5704610000
H                 -1.5086860000     -1.4097260000     -4.8581230000
H                 -1.0698380000     -0.7452500000     -2.4866680000
Br                 0.2863920000      2.3908360000      1.5806280000
N                 -1.6849180000      6.4711410000     -2.5547590000
S                 -0.9599190000      7.5854970000      0.2696470000
O                 -0.5694340000      8.4749040000     -0.8794290000
O                 -2.3659760000      7.8295530000      0.7098840000
O                  0.0140910000      7.6461570000      1.4000260000
H                 -0.1045040000      5.1949490000      1.5103070000
H                 -1.7714530000      6.1193510000     -3.5133400000
H                 -1.4236470000      7.4248260000     -2.3310200000
$end

$rem
BASIS  =  6-311++G(d,p)
GUI  =  2
JOB_TYPE  =  SP
METHOD  =  B3LYP
SCF_CONVERGENCE  = 8
SOLVENT_METHOD = sm12
$end

$smx
solvent dimethylformamide
charges CM5
$end

--------------------------------------------------------------

             Standard Nuclear Orientation (Angstroms)
    I     Atom           X                Y                Z
 ----------------------------------------------------------------
    1      C      -1.7270390000     1.9745580000    -5.1533280000
    2      C      -1.7340340000     0.6467000000    -5.5345170000
    3      C      -1.4978350000    -0.3608210000    -4.5633970000
    4      C      -1.4864460000     2.3696730000    -3.8133090000
    5      C      -1.2169470000     1.3563080000    -2.8411740000
    6      C      -1.2526260000     0.0004860000    -3.2529490000
    7      C      -1.5231230000     3.7757190000    -3.4624840000
    8      C      -0.9310600000     1.6701740000    -1.4496340000
    9      C      -1.2178700000     4.1234470000    -2.0812750000
   10      C      -0.8611450000     3.0914020000    -1.1093830000
   11      C      -1.2600510000     5.5205980000    -1.6703850000
   12      C      -0.8755820000     5.8768280000    -0.3641080000
   13      C      -0.4523820000     4.8848670000     0.5349340000
   14      C      -0.4582360000     3.5593390000     0.1762900000
   15      O      -1.8019860000     4.6427160000    -4.3773320000
   16      O      -0.7681040000     0.7397610000    -0.6006990000
   17      H      -1.9123710000     2.7665800000    -5.8705640000
   18      H      -1.9231620000     0.3670460000    -6.5704610000
   19      H      -1.5086860000    -1.4097260000    -4.8581230000
   20      H      -1.0698380000    -0.7452500000    -2.4866680000
   21      Br      0.2863920000     2.3908360000     1.5806280000
   22      N      -1.6849180000     6.4711410000    -2.5547590000
   23      S      -0.9599190000     7.5854970000     0.2696470000
   24      O      -0.5694340000     8.4749040000    -0.8794290000
   25      O      -2.3659760000     7.8295530000     0.7098840000
   26      O       0.0140910000     7.6461570000     1.4000260000
   27      H      -0.1045040000     5.1949490000     1.5103070000
   28      H      -1.7714530000     6.1193510000    -3.5133400000
   29      H      -1.4236470000     7.4248260000    -2.3310200000
 ----------------------------------------------------------------

   18   -3941.0641490513      7.06e-09  Convergence criterion met
 Total energy in the final basis set =    -3941.5774004447

                    Orbital Energies (a.u.)
 --------------------------------------------------------------

 Alpha MOs
 -- Occupied --
******** -89.0248 -62.4535 -56.2740 -56.2703 -56.2700 -19.0698 -19.0685
-19.0664 -19.0358 -19.0220 -14.2893 -10.2124 -10.1998 -10.1933 -10.1891
-10.1736 -10.1729 -10.1690 -10.1684 -10.1648 -10.1621 -10.1614 -10.1614
-10.1523 -10.1510  -8.6616  -8.0831  -6.4925  -6.4806  -6.4796  -6.0461
 -6.0457  -6.0448  -2.6034  -2.6001  -2.5995  -2.5900  -2.5899  -1.0820
 -0.9602  -0.9499  -0.9470  -0.9435  -0.9015  -0.8455  -0.8341  -0.7752
 -0.7618  -0.7419  -0.7290  -0.6941  -0.6516  -0.6327  -0.6153  -0.5857
 -0.5579  -0.5419  -0.5353  -0.5048  -0.4902  -0.4681  -0.4617  -0.4524
 -0.4363  -0.4296  -0.4268  -0.4235  -0.4174  -0.4035  -0.4008  -0.3888
 -0.3741  -0.3696  -0.3665  -0.3494  -0.3431  -0.3413  -0.3256  -0.3214
 -0.3117  -0.3085  -0.3054  -0.2765  -0.2738  -0.2692  -0.2626  -0.2602
 -0.2471  -0.2368  -0.2309  -0.2299  -0.2129  -0.1921  -0.1910  -0.1119

          Ground-State Mulliken Net Atomic Charges

     Atom                 Charge (a.u.)
  ----------------------------------------
      1 C                     0.196081
      2 C                     2.408549
      3 C                     2.316343
      4 C                    -1.500397
      5 C                    -0.023735
      6 C                     0.250971
      7 C                    -1.953320
      8 C                    -3.050948
      9 C                    -1.713764
     10 C                    -0.542181
     11 C                    -0.537848
     12 C                    -2.214829
     13 C                     0.418722
     14 C                     0.860039
     15 O                    -0.271299
     16 O                    -0.081439
     17 H                     0.149444
     18 H                     0.437171
     19 H                     0.448869
     20 H                     0.121058
     21 Br                    0.523679
     22 N                    -0.328724
     23 S                     1.123498
     24 O                    -0.336509
     25 O                    -0.223090
     26 O                    -0.237166
     27 H                     0.164414
     28 H                     0.364495
     29 H                     0.231918
  ----------------------------------------
  Sum of atomic charges =    -3.000000

                    Cartesian Multipole Moments
 -----------------------------------------------------------------
    Charge (ESU x 10^10)
               -14.4096
    Dipole Moment (Debye)
         X      15.6221      Y     -64.1105      Z      17.7816
       Tot      68.3403
    Quadrupole Moments (Debye-Ang)
        XX    -194.2933     XY      71.7942     YY    -587.3782
        XZ     -34.5186     YZ      38.1859     ZZ    -264.0316

 Total job time:  1029.45s(wall), 8027.36s(cpu)
        *  Thank you very much for using Q-Chem.  Have a nice day.  *
