 Gaussian 16, Revision A.03,
 Gaussian 16:  ES64L-G16RevA.03 25-Dec-2016

 --------------------------------------
 #P UB3LYP/6-311++G(d,p) nosym opt freq
 --------------------------------------

 -------
 Reduced
 -------
 Symbolic Z-matrix:
 Charge = -3 Multiplicity = 1

 SCF Done:  E(UB3LYP) =  -3941.08421783     A.U. after   40 cycles
 SCF Done:  E(UB3LYP) =  -3941.08421805     A.U. after   21 cycles
 SCF Done:  E(UB3LYP) =  -3941.08421826     A.U. after   24 cycles
 SCF Done:  E(UB3LYP) =  -3941.08421846     A.U. after   24 cycles
 SCF Done:  E(UB3LYP) =  -3941.08421857     A.U. after   23 cycles
 SCF Done:  E(UB3LYP) =  -3941.08421862     A.U. after   24 cycles
 Optimization completed.
    -- Stationary point found.
 Normal termination of Gaussian 16 at Wed Dec 27 22:40:01 2023.

 ----------------------------------------------------------------------
 #P Geom=AllCheck Guess=TCheck SCRF=Check GenChk UB3LYP/6-311++G(d,p) F
 req
 ----------------------------------------------------------------------

 Structure from the checkpoint file:  "163-an.chk"
 -------
 Reduced
 -------
 Charge = -3 Multiplicity = 1

                          Input orientation:
 ---------------------------------------------------------------------
 Center     Atomic      Atomic             Coordinates (Angstroms)
 Number     Number       Type             X           Y           Z
 ---------------------------------------------------------------------
      1          6           0       -1.727039    1.974558   -5.153328
      2          6           0       -1.734034    0.646700   -5.534517
      3          6           0       -1.497835   -0.360821   -4.563397
      4          6           0       -1.486446    2.369673   -3.813309
      5          6           0       -1.216947    1.356308   -2.841174
      6          6           0       -1.252626    0.000486   -3.252949
      7          6           0       -1.523123    3.775719   -3.462484
      8          6           0       -0.931060    1.670174   -1.449634
      9          6           0       -1.217870    4.123447   -2.081275
     10          6           0       -0.861145    3.091402   -1.109383
     11          6           0       -1.260051    5.520598   -1.670385
     12          6           0       -0.875582    5.876828   -0.364108
     13          6           0       -0.452382    4.884867    0.534934
     14          6           0       -0.458236    3.559339    0.176290
     15          8           0       -1.801986    4.642716   -4.377332
     16          8           0       -0.768104    0.739761   -0.600699
     17          1           0       -1.912371    2.766580   -5.870564
     18          1           0       -1.923162    0.367046   -6.570461
     19          1           0       -1.508686   -1.409726   -4.858123
     20          1           0       -1.069838   -0.745250   -2.486668
     21         35           0        0.286392    2.390836    1.580628
     22          7           0       -1.684918    6.471141   -2.554759
     23         16           0       -0.959919    7.585497    0.269647
     24          8           0       -0.569434    8.474904   -0.879429
     25          8           0       -2.365976    7.829553    0.709884
     26          8           0        0.014091    7.646157    1.400026
     27          1           0       -0.104504    5.194949    1.510307
     28          1           0       -1.771453    6.119351   -3.513340
     29          1           0       -1.423647    7.424826   -2.331020
 ---------------------------------------------------------------------

 SCF Done:  E(UB3LYP) =  -3941.08421862     A.U. after    3 cycles

 Alpha  occ. eigenvalues -- -482.52011 -88.72820 -62.17281 -55.99295 -55.98955
 Alpha  occ. eigenvalues --  -55.98919 -18.77278 -18.77166 -18.76874 -18.75106
 Alpha  occ. eigenvalues --  -18.74036 -13.98937  -9.91588  -9.91112  -9.90724
 Alpha  occ. eigenvalues --   -9.90321  -9.87561  -9.87514  -9.87327  -9.87249
 Alpha  occ. eigenvalues --   -9.87045  -9.87018  -9.86973  -9.86884  -9.85943
 Alpha  occ. eigenvalues --   -9.85848  -8.38230  -7.78654  -6.21293  -6.20162
 Alpha  occ. eigenvalues --   -6.20053  -5.74943  -5.74912  -5.74826  -2.32397
 Alpha  occ. eigenvalues --   -2.32097  -2.32014  -2.31113  -2.31112  -0.78516
 Alpha  occ. eigenvalues --   -0.67180  -0.66400  -0.65103  -0.64681  -0.60348
 Alpha  occ. eigenvalues --   -0.54957  -0.54070  -0.48471  -0.47089  -0.44489
 Alpha  occ. eigenvalues --   -0.43466  -0.40329  -0.35967  -0.33699  -0.32061
 Alpha  occ. eigenvalues --   -0.28922  -0.26236  -0.24666  -0.23876  -0.20919
 Alpha  occ. eigenvalues --   -0.19442  -0.17263  -0.16712  -0.15793  -0.14033
 Alpha  occ. eigenvalues --   -0.13395  -0.13080  -0.12768  -0.12041  -0.10843
 Alpha  occ. eigenvalues --   -0.10530  -0.09714  -0.08322  -0.07710  -0.07154
 Alpha  occ. eigenvalues --   -0.05843  -0.05240  -0.04861  -0.03083  -0.02836
 Alpha  occ. eigenvalues --   -0.01982  -0.01290  -0.01183   0.01319   0.01740
 Alpha  occ. eigenvalues --    0.02232   0.02622   0.02746   0.05062   0.05759
 Alpha  occ. eigenvalues --    0.06488   0.06591   0.07602   0.09325   0.10455
 Alpha  occ. eigenvalues --    0.18550
 Alpha virt. eigenvalues --    0.20088   0.21873   0.24163   0.25351   0.25929
 Alpha virt. eigenvalues --    0.26240   0.27055   0.27590   0.28003   0.28762
 Alpha virt. eigenvalues --    0.29799   0.30290   0.30942   0.31218   0.31422

  Beta  occ. eigenvalues -- -482.52011 -88.72820 -62.17281 -55.99295 -55.98955
  Beta  occ. eigenvalues --  -55.98919 -18.77278 -18.77166 -18.76874 -18.75106
  Beta  occ. eigenvalues --  -18.74036 -13.98937  -9.91588  -9.91112  -9.90724
  Beta  occ. eigenvalues --   -9.90321  -9.87561  -9.87514  -9.87327  -9.87249
  Beta  occ. eigenvalues --   -9.87045  -9.87018  -9.86973  -9.86884  -9.85943
  Beta  occ. eigenvalues --   -9.85848  -8.38230  -7.78654  -6.21293  -6.20162
  Beta  occ. eigenvalues --   -6.20053  -5.74943  -5.74912  -5.74826  -2.32397
  Beta  occ. eigenvalues --   -2.32097  -2.32014  -2.31113  -2.31112  -0.78516
  Beta  occ. eigenvalues --   -0.67180  -0.66400  -0.65103  -0.64681  -0.60348
  Beta  occ. eigenvalues --   -0.54957  -0.54070  -0.48471  -0.47089  -0.44489
  Beta  occ. eigenvalues --   -0.43466  -0.40329  -0.35967  -0.33699  -0.32061
  Beta  occ. eigenvalues --   -0.28922  -0.26236  -0.24666  -0.23876  -0.20919
  Beta  occ. eigenvalues --   -0.19442  -0.17263  -0.16712  -0.15793  -0.14033
  Beta  occ. eigenvalues --   -0.13395  -0.13080  -0.12768  -0.12041  -0.10843
  Beta  occ. eigenvalues --   -0.10530  -0.09714  -0.08322  -0.07710  -0.07154
  Beta  occ. eigenvalues --   -0.05843  -0.05240  -0.04861  -0.03083  -0.02836
  Beta  occ. eigenvalues --   -0.01982  -0.01290  -0.01183   0.01319   0.01740
  Beta  occ. eigenvalues --    0.02232   0.02622   0.02746   0.05062   0.05759
  Beta  occ. eigenvalues --    0.06488   0.06591   0.07602   0.09325   0.10455
  Beta  occ. eigenvalues --    0.18550
  Beta virt. eigenvalues --    0.20088   0.21873   0.24163   0.25351   0.25929
  Beta virt. eigenvalues --    0.26240   0.27055   0.27590   0.28003   0.28762
  Beta virt. eigenvalues --    0.29799   0.30290   0.30942   0.31218   0.31422

 Mulliken charges and spin densities:
               1          2
     1  C   -0.844011   0.000000
     2  C    1.141068   0.000000
     3  C    1.364339  -0.000000
     4  C    0.307771   0.000000
     5  C    0.497365  -0.000000
     6  C   -0.715057  -0.000000
     7  C   -0.569811   0.000000
     8  C   -1.276290  -0.000000
     9  C    0.446137   0.000000
    10  C    1.012276   0.000000
    11  C    0.284462   0.000000
    12  C   -0.996997   0.000000
    13  C   -0.367274  -0.000000
    14  C    0.398822  -0.000000
    15  O   -0.447363   0.000000
    16  O   -0.352343   0.000000
    17  H    0.246201  -0.000000
    18  H   -1.506031   0.000000
    19  H   -1.475456  -0.000000
    20  H    0.255163   0.000000
    21  Br  -0.367901   0.000000
    22  N   -0.416417  -0.000000
    23  S    0.647756  -0.000000
    24  O   -0.419805   0.000000
    25  O   -0.311148  -0.000000
    26  O   -0.348314   0.000000
    27  H    0.238247   0.000000
    28  H    0.335375  -0.000000
    29  H    0.239235   0.000000
 Sum of Mulliken charges =  -3.00000  -0.00000

 Dipole moment (field-independent basis, Debye):
    X=             16.9393    Y=            -52.1912    Z=             28.0747  Tot=             61.6364
 Quadrupole moment (field-independent basis, Debye-Ang):
   XX=           -203.9089   YY=           -564.7707   ZZ=           -364.9437
   XY=             52.4841   XZ=            -56.1573   YZ=             -4.9698

  Exact polarizability: 240.145  57.0051666.860 231.840 324.2991635.078
 Approx polarizability: 422.964 574.7824813.118 766.8023780.5635060.594

                      1                      2                      3
                      A                      A                      A
 Frequencies --     24.2667                33.3761                42.5936
 Red. masses --     12.9695                 9.1817                11.8605
 Frc consts  --      0.0045                 0.0060                 0.0127
 IR Inten    --      2.8475                 5.7709                 1.8853

                      4                      5                      6
                      A                      A                      A
 Frequencies --     83.4285               109.4757               126.0240
 Red. masses --      9.5743                 8.2742                 7.9997
 Frc consts  --      0.0393                 0.0584                 0.0749
 IR Inten    --      1.6629                 2.2151                 5.5934

                      7                      8                      9
                      A                      A                      A
 Frequencies --    133.2956               137.0545               179.7075
 Red. masses --      8.0139                 9.1191                 8.5114
 Frc consts  --      0.0839                 0.1009                 0.1620
 IR Inten    --      1.1594                 1.6600                20.0356

                     10                     11                     12
                      A                      A                      A
 Frequencies --    215.0647               223.1712               244.6658
 Red. masses --     12.0369                11.6210                10.3538
 Frc consts  --      0.3280                 0.3410                 0.3652
 IR Inten    --      1.2748                10.3840                 5.6069

                     13                     14                     15
                      A                      A                      A
 Frequencies --    260.0858               297.7728               313.4097
 Red. masses --     10.2286                 5.4435                 9.2921
 Frc consts  --      0.4077                 0.2844                 0.5378
 IR Inten    --     29.1003                16.8442                 5.2057

                     16                     17                     18
                      A                      A                      A
 Frequencies --    348.6167               365.6734               392.8305
 Red. masses --      7.0662                 8.6666                 6.9831
 Frc consts  --      0.5060                 0.6828                 0.6349
 IR Inten    --    199.0603                 5.4256                22.3807

                     19                     20                     21
                      A                      A                      A
 Frequencies --    408.9584               423.2892               440.8932
 Red. masses --      8.7795                 7.7149                 4.1056
 Frc consts  --      0.8651                 0.8144                 0.4702
 IR Inten    --     25.2396               119.1954                22.8409

                     22                     23                     24
                      A                      A                      A
 Frequencies --    443.6569               477.2150               483.2483
 Red. masses --      6.9396                 7.5751                 6.9016
 Frc consts  --      0.8048                 1.0164                 0.9496
 IR Inten    --    125.2990               104.0187                56.9333

                     25                     26                     27
                      A                      A                      A
 Frequencies --    506.2276               523.5206               536.4134
 Red. masses --      8.6967                 7.8024                 8.3671
 Frc consts  --      1.3131                 1.2599                 1.4185
 IR Inten    --     39.7824                90.8774                20.0756

                     28                     29                     30
                      A                      A                      A
 Frequencies --    566.0002               600.2759               609.6094
 Red. masses --      5.4061                 8.5429                 2.0053
 Frc consts  --      1.0204                 1.8137                 0.4391
 IR Inten    --     10.3396               376.3002               334.3005

                     31                     32                     33
                      A                      A                      A
 Frequencies --    628.9900               659.1477               670.7625
 Red. masses --      2.7290                 5.6245                 5.8302
 Frc consts  --      0.6361                 1.4398                 1.5455
 IR Inten    --     69.2450                35.3062               190.8706

                     34                     35                     36
                      A                      A                      A
 Frequencies --    691.6351               715.0974               720.5055
 Red. masses --      7.6169                 7.0654                 6.3547
 Frc consts  --      2.1467                 2.1287                 1.9437
 IR Inten    --    455.4516                72.8510                23.5215

                     37                     38                     39
                      A                      A                      A
 Frequencies --    747.5065               794.6104               801.0548
 Red. masses --      6.1049                 2.0529                 3.6830
 Frc consts  --      2.0098                 0.7637                 1.3924
 IR Inten    --      1.3818                 3.3594                68.5549

                     40                     41                     42
                      A                      A                      A
 Frequencies --    813.2058               867.9326               872.3480
 Red. masses --      2.2848                 1.4675                 1.4648
 Frc consts  --      0.8902                 0.6513                 0.6568
 IR Inten    --    104.0224                 4.1500                96.9888

                     43                     44                     45
                      A                      A                      A
 Frequencies --    882.6431               894.8407               933.0556
 Red. masses --      1.3158                 7.7855                 8.9027
 Frc consts  --      0.6039                 3.6730                 4.5665
 IR Inten    --     55.6337               100.4875               279.6387

                     46                     47                     48
                      A                      A                      A
 Frequencies --    961.6707               996.0421              1010.2646
 Red. masses --     10.5333                 1.2253                 3.8475
 Frc consts  --      5.7394                 0.7162                 2.3136
 IR Inten    --   1004.1550                 4.0112               482.2488

                     49                     50                     51
                      A                      A                      A
 Frequencies --   1025.2186              1072.2351              1094.4967
 Red. masses --      2.3361                 1.2504                 6.0979
 Frc consts  --      1.4467                 0.8470                 4.3039
 IR Inten    --      1.8617               939.4955               322.0015

                     52                     53                     54
                      A                      A                      A
 Frequencies --   1100.3136              1126.0209              1129.7066
 Red. masses --      2.4903                 2.7433                 6.2779
 Frc consts  --      1.7764                 2.0493                 4.7206
 IR Inten    --    107.1962                78.8407               264.0298

                     55                     56                     57
                      A                      A                      A
 Frequencies --   1133.2883              1165.0974              1199.8427
 Red. masses --      2.1696                 2.7260                 2.0731
 Frc consts  --      1.6418                 2.1802                 1.7584
 IR Inten    --    253.1602               582.2290                14.6522

                     58                     59                     60
                      A                      A                      A
 Frequencies --   1209.3320              1234.2426              1275.0467
 Red. masses --      2.4601                 2.2763                 7.6521
 Frc consts  --      2.1198                 2.0430                 7.3296
 IR Inten    --     62.0214               389.9821               146.2195

                     61                     62                     63
                      A                      A                      A
 Frequencies --   1291.1624              1346.7545              1365.0500
 Red. masses --      2.4283                 3.7263                 5.8837
 Frc consts  --      2.3852                 3.9820                 6.4595
 IR Inten    --    801.1024               136.5734               169.1482

                     64                     65                     66
                      A                      A                      A
 Frequencies --   1369.5314              1409.2715              1440.4403
 Red. masses --      3.4983                 2.5537                 6.0943
 Frc consts  --      3.8659                 2.9882                 7.4501
 IR Inten    --    320.4548                65.9087              1018.5386

                     67                     68                     69
                      A                      A                      A
 Frequencies --   1456.1124              1467.2979              1497.3446
 Red. masses --      4.9454                 2.4985                 5.4480
 Frc consts  --      6.1780                 3.1693                 7.1967
 IR Inten    --    208.4938               200.0480               921.7189

                     70                     71                     72
                      A                      A                      A
 Frequencies --   1519.6608              1562.0577              1564.1672
 Red. masses --      5.4868                 5.6399                 6.3155
 Frc consts  --      7.4655                 8.1080                 9.1038
 IR Inten    --   1873.5578              1796.2345               997.4269

                     73                     74                     75
                      A                      A                      A
 Frequencies --   1594.8459              1603.1559              3093.3827
 Red. masses --      5.3605                 1.3257                 1.0855
 Frc consts  --      8.0333                 2.0075                 6.1199
 IR Inten    --    139.3683               159.8557              1141.1659

                     76                     77                     78
                      A                      A                      A
 Frequencies --   3116.5537              3166.1750              3169.3762
 Red. masses --      1.0918                 1.0902                 1.0904
 Frc consts  --      6.2480                 6.4393                 6.4534
 IR Inten    --    110.8051                 9.5717                33.9893

                     79                     80                     81
                      A                      A                      A
 Frequencies --   3208.3752              3285.6841              3532.3414
 Red. masses --      1.0895                 1.0629                 1.0913
 Frc consts  --      6.6078                 6.7610                 8.0227
 IR Inten    --      7.2883               328.6312               708.3875

 - Thermochemistry -
 -------------------
 Temperature   298.150 Kelvin.  Pressure   1.00000 Atm.
 Atom     1 has atomic number  6 and mass  12.00000

 Molecular mass:   379.92283 amu.
 Principal axes and moments of inertia in atomic units:
                           1         2         3
     Eigenvalues --  6070.07351********************
           X            0.07630   0.30959   0.94780
           Y            0.82128  -0.55854   0.11632
           Z            0.56539   0.76954  -0.29688
 This molecule is an asymmetric top.
 Rotational symmetry number  1.
 Warning -- assumption of classical behavior for rotation
           may cause significant error
 Rotational temperatures (Kelvin)      0.01427     0.00769     0.00512
 Rotational constants (GHZ):           0.29732     0.16033     0.10663
 Zero-point vibrational energy     484695.2 (Joules/Mol)
                                  115.84494 (Kcal/Mol)
 Warning -- explicit consideration of  30 degrees of freedom as
           vibrations may cause significant error
 Vibrational temperatures:     34.91    48.02    61.28   120.03   157.51
          (Kelvin)            181.32   191.78   197.19   258.56   309.43
                              321.09   352.02   374.21   428.43   450.93
                              501.58   526.12   565.20   588.40   609.02
                              634.35   638.32   686.61   695.29   728.35
                              753.23   771.78   814.35   863.66   877.09
                              904.98   948.37   965.08   995.11  1028.87
                             1036.65  1075.50  1143.27  1152.54  1170.02
                             1248.76  1255.11  1269.93  1287.48  1342.46
                             1383.63  1433.08  1453.55  1475.06  1542.71
                             1574.74  1583.11  1620.09  1625.40  1630.55
                             1676.32  1726.31  1739.96  1775.80  1834.51
                             1857.69  1937.68  1964.00  1970.45  2027.63
                             2072.47  2095.02  2111.11  2154.34  2186.45
                             2247.45  2250.49  2294.63  2306.58  4450.69
                             4484.03  4555.42  4560.03  4616.14  4727.37
                             5082.25

 Zero-point correction=                           0.184611 (Hartree/Particle)
 Thermal correction to Energy=                    0.202557
 Thermal correction to Enthalpy=                  0.203501
 Thermal correction to Gibbs Free Energy=         0.136756
 Sum of electronic and zero-point Energies=          -3940.899608
 Sum of electronic and thermal Energies=             -3940.881661
 Sum of electronic and thermal Enthalpies=           -3940.880717
 Sum of electronic and thermal Free Energies=        -3940.947463

                     E (Thermal)             CV                S
                      KCal/Mol        Cal/Mol-Kelvin    Cal/Mol-Kelvin
 Total                  127.107             69.320            140.479
 Electronic               0.000              0.000              0.000
 Translational            0.889              2.981             43.697
 Rotational               0.889              2.981             35.402
 Vibrational            125.329             63.358             61.380
 Vibration     1          0.593              1.985              6.250
 Vibration     2          0.594              1.983              5.618
 Vibration     3          0.595              1.980              5.135
 Vibration     4          0.600              1.961              3.809
 Vibration     5          0.606              1.942              3.278
 Vibration     6          0.611              1.927              3.006
 Vibration     7          0.613              1.920              2.898
 Vibration     8          0.614              1.916              2.845
 Vibration     9          0.629              1.867              2.331
 Vibration    10          0.645              1.818              2.000
 Vibration    11          0.649              1.806              1.933
 Vibration    12          0.660              1.772              1.769
 Vibration    13          0.668              1.746              1.661
 Vibration    14          0.691              1.678              1.429
 Vibration    15          0.701              1.648              1.344
 Vibration    16          0.726              1.578              1.172
 Vibration    17          0.739              1.543              1.098
 Vibration    18          0.760              1.486              0.989
 Vibration    19          0.773              1.451              0.930
 Vibration    20          0.785              1.420              0.881
 Vibration    21          0.801              1.381              0.824
 Vibration    22          0.803              1.375              0.815
 Vibration    23          0.834              1.301              0.718
 Vibration    24          0.839              1.287              0.701
 Vibration    25          0.861              1.236              0.643
 Vibration    26          0.878              1.198              0.602
 Vibration    27          0.891              1.169              0.573
 Vibration    28          0.922              1.105              0.512
 Vibration    29          0.958              1.031              0.449
 Vibration    30          0.969              1.011              0.433

 Optimization completed.
    -- Stationary point found.
 Normal termination of Gaussian 16 at Thu Dec 28 00:51:00 2023.
