 Gaussian 16, Revision A.03,
 Gaussian 16:  ES64L-G16RevA.03 25-Dec-2016

 ----------------------------------------------------------------------
 #P UB3LYP/6-311++G(d,p) nosym opt freq SCRF=(PCM,Solvent=n,n-DiMethylF
 ormamide)
 ----------------------------------------------------------------------

 -------
 Reduced
 -------
 Symbolic Z-matrix:
 Charge = -2 Multiplicity = 1

 SCF Done:  E(UB3LYP) =  -839.692373643     A.U. after   18 cycles
 SCF Done:  E(UB3LYP) =  -839.694873606     A.U. after   13 cycles
 SCF Done:  E(UB3LYP) =  -839.695358402     A.U. after   13 cycles
 SCF Done:  E(UB3LYP) =  -839.695372493     A.U. after   12 cycles
 SCF Done:  E(UB3LYP) =  -839.695379176     A.U. after   11 cycles
 SCF Done:  E(UB3LYP) =  -839.695383794     A.U. after   11 cycles
 Optimization completed.
    -- Stationary point found.
 Normal termination of Gaussian 16 at Sun Feb 11 16:19:56 2024.

 ----------------------------------------------------------------------
 #P Geom=AllCheck Guess=TCheck SCRF=Check GenChk UB3LYP/6-311++G(d,p) F
 req
 ----------------------------------------------------------------------

 Structure from the checkpoint file:  "331-an.chk"
 -------
 Reduced
 -------
 Charge = -2 Multiplicity = 1

                          Input orientation:
 ---------------------------------------------------------------------
 Center     Atomic      Atomic             Coordinates (Angstroms)
 Number     Number       Type             X           Y           Z
 ---------------------------------------------------------------------
      1          6           0       -1.851765    3.488935   -0.947473
      2          6           0       -2.957685    2.909388   -0.367905
      3          6           0       -0.605155    2.801584   -1.029846
      4          6           0       -0.525254    1.476815   -0.484574
      5          6           0       -2.888116    1.607577    0.166532
      6          6           0       -1.685036    0.923756    0.099247
      7          6           0        0.515701    3.477795   -1.661636
      8          6           0        1.770852    2.782870   -1.738320
      9          6           0        1.850063    1.444023   -1.178259
     10          6           0        0.739875    0.777869   -0.559705
     11          6           0        3.095871    0.753481   -1.245486
     12          6           0        3.244112   -0.517633   -0.738590
     13          6           0        2.158056   -1.179142   -0.131839
     14          6           0        0.939177   -0.524892   -0.054885
     15          8           0        0.355889    4.683236   -2.134373
     16          8           0        2.828054    3.313431   -2.288565
     17          8           0        4.444015   -1.208756   -0.792412
     18          8           0       -4.179680    3.556482   -0.276421
     19          1           0       -1.897896    4.491529   -1.359740
     20          1           0       -3.765719    1.160947    0.619791
     21          1           0       -1.649873   -0.076254    0.516694
     22          1           0        3.928594    1.268589   -1.712758
     23          1           0        2.286612   -2.180131    0.263967
     24          1           0        0.115056   -1.048597    0.416338
     25          1           0        5.103420   -0.655847   -1.227859
     26          1           0       -4.100879    4.430542   -0.676362
 ---------------------------------------------------------------------

 SCF Done:  E(UB3LYP) =  -839.695383794     A.U. after    1 cycles

 Alpha  occ. eigenvalues --  -19.14227 -19.14224 -19.01365 -19.01361 -10.21379
 Alpha  occ. eigenvalues --  -10.21377 -10.16250 -10.16210 -10.15819 -10.15816
 Alpha  occ. eigenvalues --  -10.15162 -10.15124 -10.14944 -10.14940 -10.14549
 Alpha  occ. eigenvalues --  -10.14544 -10.14103 -10.14098  -1.04731  -1.04727
 Alpha  occ. eigenvalues --   -0.93512  -0.90471  -0.84415  -0.81945  -0.75832
 Alpha  occ. eigenvalues --   -0.73753  -0.72414  -0.69303  -0.65832  -0.61811
 Alpha  occ. eigenvalues --   -0.59648  -0.56901  -0.56746  -0.53090  -0.52458
 Alpha  occ. eigenvalues --   -0.49339  -0.45666  -0.45608  -0.43503  -0.42410
 Alpha  occ. eigenvalues --   -0.41496  -0.40809  -0.40209  -0.39602  -0.39113
 Alpha  occ. eigenvalues --   -0.38862  -0.36602  -0.36052  -0.36044  -0.35051
 Alpha  occ. eigenvalues --   -0.33941  -0.32245  -0.31871  -0.31457  -0.30344
 Alpha  occ. eigenvalues --   -0.27237  -0.24233  -0.23196  -0.22276  -0.19969
 Alpha  occ. eigenvalues --   -0.18493  -0.18124  -0.11361
 Alpha virt. eigenvalues --   -0.01244  -0.00934  -0.00117   0.00358   0.01110
 Alpha virt. eigenvalues --    0.02282   0.02562   0.03140   0.04220   0.04752
 Alpha virt. eigenvalues --    0.04758   0.05007   0.05265   0.06956   0.07320

  Beta  occ. eigenvalues --  -19.14227 -19.14224 -19.01365 -19.01361 -10.21379
  Beta  occ. eigenvalues --  -10.21377 -10.16250 -10.16210 -10.15819 -10.15816
  Beta  occ. eigenvalues --  -10.15162 -10.15124 -10.14944 -10.14940 -10.14549
  Beta  occ. eigenvalues --  -10.14544 -10.14103 -10.14098  -1.04731  -1.04727
  Beta  occ. eigenvalues --   -0.93512  -0.90471  -0.84415  -0.81945  -0.75832
  Beta  occ. eigenvalues --   -0.73753  -0.72414  -0.69303  -0.65832  -0.61811
  Beta  occ. eigenvalues --   -0.59648  -0.56901  -0.56746  -0.53090  -0.52458
  Beta  occ. eigenvalues --   -0.49339  -0.45666  -0.45608  -0.43503  -0.42410
  Beta  occ. eigenvalues --   -0.41496  -0.40809  -0.40209  -0.39602  -0.39113
  Beta  occ. eigenvalues --   -0.38862  -0.36602  -0.36052  -0.36044  -0.35051
  Beta  occ. eigenvalues --   -0.33941  -0.32245  -0.31871  -0.31457  -0.30344
  Beta  occ. eigenvalues --   -0.27237  -0.24233  -0.23196  -0.22276  -0.19969
  Beta  occ. eigenvalues --   -0.18493  -0.18124  -0.11361
  Beta virt. eigenvalues --   -0.01244  -0.00934  -0.00117   0.00358   0.01110
  Beta virt. eigenvalues --    0.02282   0.02562   0.03140   0.04220   0.04752
  Beta virt. eigenvalues --    0.04758   0.05007   0.05265   0.06956   0.07320

 Mulliken charges and spin densities:
               1          2
     1  C    0.045799   0.000000
     2  C   -0.488727  -0.000000
     3  C    0.638881  -0.000000
     4  C    0.517306   0.000000
     5  C   -0.511095   0.000000
     6  C   -0.336932  -0.000000
     7  C   -0.544806  -0.000000
     8  C   -0.544409  -0.000000
     9  C    0.642108   0.000000
    10  C    0.516314   0.000000
    11  C    0.046783   0.000000
    12  C   -0.489564  -0.000000
    13  C   -0.510870   0.000000
    14  C   -0.334976   0.000000
    15  O   -0.709656   0.000000
    16  O   -0.709966   0.000000
    17  O   -0.320154   0.000000
    18  O   -0.320234   0.000000
    19  H    0.134276   0.000000
    20  H    0.185874  -0.000000
    21  H    0.091148   0.000000
    22  H    0.134082   0.000000
    23  H    0.185977  -0.000000
    24  H    0.091282   0.000000
    25  H    0.295784  -0.000000
    26  H    0.295775  -0.000000
 Sum of Mulliken charges =  -2.00000   0.00000

 Dipole moment (field-independent basis, Debye):
    X=            -10.3439    Y=            -28.8312    Z=             15.6043  Tot=             34.3762
 Quadrupole moment (field-independent basis, Debye-Ang):
   XX=           -154.9528   YY=           -229.3890   ZZ=           -148.6956
   XY=            -28.9569   XZ=             24.2096   YZ=             57.7977

  Exact polarizability: 496.063 -96.847 386.062 -61.130 -72.516 201.360
 Approx polarizability: 565.780-105.901 447.035 -73.268 -89.138 228.409

                      1                      2                      3
                      A                      A                      A
 Frequencies --     56.6394                89.2096               119.8097
 Red. masses --      6.1448                 4.9152                 7.1824
 Frc consts  --      0.0116                 0.0230                 0.0607
 IR Inten    --      4.5593                 0.0078                 0.5005

                      4                      5                      6
                      A                      A                      A
 Frequencies --    148.1503               175.5560               202.2750
 Red. masses --      6.2247                 6.7238                 7.3623
 Frc consts  --      0.0805                 0.1221                 0.1775
 IR Inten    --      9.8976                 9.2554                 0.4382

                      7                      8                      9
                      A                      A                      A
 Frequencies --    265.5617               269.9176               309.3571
 Red. masses --      7.7781                 4.8975                 1.2284
 Frc consts  --      0.3232                 0.2102                 0.0693
 IR Inten    --     25.9161                16.4628                69.1667

                     10                     11                     12
                      A                      A                      A
 Frequencies --    309.8791               315.5176               375.5295
 Red. masses --      4.3652                 1.1804                 5.3004
 Frc consts  --      0.2470                 0.0692                 0.4404
 IR Inten    --     29.0096               222.2279                 2.1990

                     13                     14                     15
                      A                      A                      A
 Frequencies --    385.6918               388.3190               415.2321
 Red. masses --      4.5416                 6.6640                 9.7709
 Frc consts  --      0.3980                 0.5921                 0.9926
 IR Inten    --      0.0247                 0.0869                16.7737

                     16                     17                     18
                      A                      A                      A
 Frequencies --    426.1493               435.0637               446.4931
 Red. masses --      6.6063                 7.8700                 4.0826
 Frc consts  --      0.7069                 0.8777                 0.4795
 IR Inten    --    122.7283                13.0436                 0.2953

                     19                     20                     21
                      A                      A                      A
 Frequencies --    484.0105               494.5984               528.4897
 Red. masses --      3.5731                 5.9846                 8.0554
 Frc consts  --      0.4932                 0.8626                 1.3256
 IR Inten    --     41.3353                 5.1427                62.0857

                     22                     23                     24
                      A                      A                      A
 Frequencies --    584.9251               632.2114               646.3061
 Red. masses --      4.2905                 5.0711                 5.7785
 Frc consts  --      0.8649                 1.1942                 1.4221
 IR Inten    --      0.0064                 0.5408                 0.5934

                     25                     26                     27
                      A                      A                      A
 Frequencies --    669.5521               670.8127               694.2684
 Red. masses --      6.3923                 5.0096                 5.6233
 Frc consts  --      1.6884                 1.3282                 1.5970
 IR Inten    --     16.3339                 3.5360                 3.7484

                     28                     29                     30
                      A                      A                      A
 Frequencies --    697.8404               709.1986               736.5129
 Red. masses --      4.3004                 7.6730                 8.7792
 Frc consts  --      1.2339                 2.2738                 2.8059
 IR Inten    --     19.1073                 0.0708                 0.0259

                     31                     32                     33
                      A                      A                      A
 Frequencies --    766.8192               768.1446               815.4607
 Red. masses --      1.5116                 1.4334                 8.7877
 Frc consts  --      0.5237                 0.4983                 3.4430
 IR Inten    --      1.5933                96.7712               466.8071

                     34                     35                     36
                      A                      A                      A
 Frequencies --    850.8165               860.9297               907.2247
 Red. masses --      1.4702                 1.4061                 6.9994
 Frc consts  --      0.6271                 0.6140                 3.3942
 IR Inten    --     45.8803                57.2720               108.5286

                     37                     38                     39
                      A                      A                      A
 Frequencies --    912.7474               933.1322               993.2694
 Red. masses --      1.3195                 1.2784                 2.6804
 Frc consts  --      0.6477                 0.6559                 1.5581
 IR Inten    --      0.0298                 4.0416                 2.6414

                     40                     41                     42
                      A                      A                      A
 Frequencies --    997.5370              1056.9441              1120.3274
 Red. masses --      6.7671                 2.3467                 1.8371
 Frc consts  --      3.9675                 1.5446                 1.3586
 IR Inten    --    148.9145                50.4270                 9.5672

                     43                     44                     45
                      A                      A                      A
 Frequencies --   1129.5719              1163.4672              1165.9425
 Red. masses --      1.4375                 1.6798                 2.1481
 Frc consts  --      1.0806                 1.3397                 1.7206
 IR Inten    --     66.9563                13.5502              1058.9621

                     46                     47                     48
                      A                      A                      A
 Frequencies --   1180.9442              1203.3971              1226.9800
 Red. masses --      1.3858                 2.2566                 2.2827
 Frc consts  --      1.1387                 1.9254                 2.0247
 IR Inten    --      1.7172                 4.4551                73.7569

                     49                     50                     51
                      A                      A                      A
 Frequencies --   1228.4162              1275.2361              1297.5577
 Red. masses --      2.6507                 3.6179                 3.2121
 Frc consts  --      2.3567                 3.4665                 3.1863
 IR Inten    --    920.9136               154.3652                72.8278

                     52                     53                     54
                      A                      A                      A
 Frequencies --   1331.8162              1346.2940              1354.0950
 Red. masses --      3.1816                 5.4554                 2.2065
 Frc consts  --      3.3250                 5.8258                 2.3837
 IR Inten    --    554.3140              1133.2226               423.0841

                     55                     56                     57
                      A                      A                      A
 Frequencies --   1375.8925              1402.0744              1443.2369
 Red. masses --      8.4962                 5.1093                 3.9872
 Frc consts  --      9.4764                 5.9177                 4.8932
 IR Inten    --    955.9748               772.2124               413.8181

                     58                     59                     60
                      A                      A                      A
 Frequencies --   1455.1089              1494.2306              1527.5326
 Red. masses --      3.5697                 2.8309                 4.3581
 Frc consts  --      4.4532                 3.7240                 5.9914
 IR Inten    --      7.7348               553.5120               243.6730

                     61                     62                     63
                      A                      A                      A
 Frequencies --   1563.2235              1583.0564              1612.2745
 Red. masses --      4.8101                 6.3675                 6.4020
 Frc consts  --      6.9254                 9.4019                 9.8049
 IR Inten    --     24.1301                 2.1622              1234.5427

                     64                     65                     66
                      A                      A                      A
 Frequencies --   1633.9662              3156.0169              3161.4666
 Red. masses --      6.0530                 1.0869                 1.0886
 Frc consts  --      9.5216                 6.3788                 6.4103
 IR Inten    --     65.2366                 8.9423                37.3013

                     67                     68                     69
                      A                      A                      A
 Frequencies --   3162.1234              3167.7535              3179.3648
 Red. masses --      1.0886                 1.0854                 1.0940
 Frc consts  --      6.4134                 6.4174                 6.5153
 IR Inten    --     28.2212                 3.8735                12.5166

                     70                     71                     72
                      A                      A                      A
 Frequencies --   3184.4191              3811.6446              3812.2968
 Red. masses --      1.0928                 1.0661                 1.0661
 Frc consts  --      6.5289                 9.1258                 9.1287
 IR Inten    --     80.2849               117.2625                96.7503

 - Thermochemistry -
 -------------------
 Temperature   298.150 Kelvin.  Pressure   1.00000 Atm.
 Atom     1 has atomic number  6 and mass  12.00000

 Molecular mass:   240.04226 amu.
 Principal axes and moments of inertia in atomic units:
                           1         2         3
     Eigenvalues --  2186.452226312.561868498.96111
           X            0.87402   0.40723   0.26506
           Y           -0.48307   0.78697   0.38382
           Z           -0.05229  -0.46351   0.88455
 This molecule is an asymmetric top.
 Rotational symmetry number  1.
 Warning -- assumption of classical behavior for rotation
           may cause significant error
 Rotational temperatures (Kelvin)      0.03961     0.01372     0.01019
 Rotational constants (GHZ):           0.82542     0.28590     0.21235
 Zero-point vibrational energy     480275.7 (Joules/Mol)
                                  114.78865 (Kcal/Mol)
 Warning -- explicit consideration of  22 degrees of freedom as
           vibrations may cause significant error
 Vibrational temperatures:     81.49   128.35   172.38   213.16   252.59
          (Kelvin)            291.03   382.08   388.35   445.10   445.85
                              453.96   540.30   554.92   558.70   597.43
                              613.13   625.96   642.40   696.38   711.62
                              760.38   841.58   909.61   929.89   963.34
                              965.15   998.90  1004.04  1020.38  1059.68
                             1103.28  1105.19  1173.27  1224.14  1238.69
                             1305.29  1313.24  1342.57  1429.09  1435.23
                             1520.71  1611.90  1625.20  1673.97  1677.53
                             1699.12  1731.42  1765.35  1767.42  1834.78
                             1866.90  1916.19  1937.02  1948.24  1979.60
                             2017.27  2076.50  2093.58  2149.86  2197.78
                             2249.13  2277.67  2319.70  2350.91  4540.80
                             4548.65  4549.59  4557.69  4574.40  4581.67
                             5484.11  5485.04

 Zero-point correction=                           0.182927 (Hartree/Particle)
 Thermal correction to Energy=                    0.196768
 Thermal correction to Enthalpy=                  0.197713
 Thermal correction to Gibbs Free Energy=         0.143009
 Sum of electronic and zero-point Energies=           -839.512456
 Sum of electronic and thermal Energies=              -839.498615
 Sum of electronic and thermal Enthalpies=            -839.497671
 Sum of electronic and thermal Free Energies=         -839.552375

                     E (Thermal)             CV                S
                      KCal/Mol        Cal/Mol-Kelvin    Cal/Mol-Kelvin
 Total                  123.474             56.608            115.134
 Electronic               0.000              0.000              0.000
 Translational            0.889              2.981             42.328
 Rotational               0.889              2.981             33.128
 Vibrational            121.697             50.646             39.678
 Vibration     1          0.596              1.975              4.571
 Vibration     2          0.602              1.957              3.677
 Vibration     3          0.609              1.933              3.103
 Vibration     4          0.618              1.905              2.696
 Vibration     5          0.628              1.872              2.375
 Vibration     6          0.639              1.837              2.112
 Vibration     7          0.671              1.736              1.625
 Vibration     8          0.674              1.729              1.597
 Vibration     9          0.699              1.656              1.366
 Vibration    10          0.699              1.655              1.363
 Vibration    11          0.703              1.644              1.333
 Vibration    12          0.746              1.522              1.057
 Vibration    13          0.754              1.501              1.017
 Vibration    14          0.756              1.495              1.007
 Vibration    15          0.779              1.437              0.908
 Vibration    16          0.788              1.413              0.871
 Vibration    17          0.796              1.394              0.842
 Vibration    18          0.806              1.369              0.806
 Vibration    19          0.840              1.286              0.699
 Vibration    20          0.850              1.262              0.672
 Vibration    21          0.883              1.187              0.591
 Vibration    22          0.942              1.064              0.476

 Optimization completed.
    -- Stationary point found.
 Normal termination of Gaussian 16 at Sun Feb 11 17:34:52 2024.
