 Q-Chem 5.4, Q-Chem, Inc., Pleasanton, CA (2021)
 Q-Chem 5.4.0 for Intel X86 EM64T Linux

User input:
--------------------------------------------------------------
$molecule
-2 1
C                  5.6703580000     -5.1029350000      1.2839460000
C                  6.6812700000     -5.0269060000      0.3574180000
C                  6.5948040000     -4.0578200000     -0.7073420000
C                  4.5233130000     -4.2643720000      1.2506150000
C                  4.4357390000     -3.2817840000      0.1710800000
C                  5.4729170000     -3.2178080000     -0.7629880000
C                  3.4997550000     -4.4005030000      2.2575340000
C                  2.4151140000     -3.4839870000      2.0835400000
C                  2.3167570000     -2.5397850000      1.0580820000
C                  3.2988120000     -2.3653270000      0.0380070000
O                  3.5512470000     -5.2593650000      3.2245770000
O                  3.2039030000     -1.4948500000     -0.9016080000
C                  7.6250060000     -3.9642170000     -1.6705670000
N                  8.4937210000     -3.9120460000     -2.4513780000
H                  5.7109810000     -5.8238530000      2.0955130000
H                  7.5451920000     -5.6834340000      0.4116600000
H                  5.3763900000     -2.4773780000     -1.5512420000
H                  1.6154900000     -3.5484980000      2.8231260000
H                  1.4469610000     -1.8840230000      1.0113160000
$end
$rem
MAX_SCF_CYCLES=200
BASIS  =  6-311++G(d,p)
GUI  =  2
JOB_TYPE  =  SP
METHOD  =  B3LYP
SOLVENT_METHOD = PCM
$end
$pcm
theory = CPCM
$end
$solvent
dielectric 37.219
opticaldielectric 1.43
$end

--------------------------------------------------------------

             Standard Nuclear Orientation (Angstroms)
    I     Atom           X                Y                Z
 ----------------------------------------------------------------
    1      C       5.6703580000    -5.1029350000     1.2839460000
    2      C       6.6812700000    -5.0269060000     0.3574180000
    3      C       6.5948040000    -4.0578200000    -0.7073420000
    4      C       4.5233130000    -4.2643720000     1.2506150000
    5      C       4.4357390000    -3.2817840000     0.1710800000
    6      C       5.4729170000    -3.2178080000    -0.7629880000
    7      C       3.4997550000    -4.4005030000     2.2575340000
    8      C       2.4151140000    -3.4839870000     2.0835400000
    9      C       2.3167570000    -2.5397850000     1.0580820000
   10      C       3.2988120000    -2.3653270000     0.0380070000
   11      O       3.5512470000    -5.2593650000     3.2245770000
   12      O       3.2039030000    -1.4948500000    -0.9016080000
   13      C       7.6250060000    -3.9642170000    -1.6705670000
   14      N       8.4937210000    -3.9120460000    -2.4513780000
   15      H       5.7109810000    -5.8238530000     2.0955130000
   16      H       7.5451920000    -5.6834340000     0.4116600000
   17      H       5.3763900000    -2.4773780000    -1.5512420000
   18      H       1.6154900000    -3.5484980000     2.8231260000
   19      H       1.4469610000    -1.8840230000     1.0113160000
 ----------------------------------------------------------------

    9    -627.8023667219      6.07e-06  Convergence criterion met
 Total energy in the final basis set =     -627.8023667219

                    Orbital Energies (a.u.)
 --------------------------------------------------------------

 Alpha MOs
 -- Occupied --
-19.0331 -19.0243 -14.3064 -10.2118 -10.1902 -10.1879 -10.1794 -10.1723
-10.1662 -10.1568 -10.1525 -10.1485 -10.1360 -10.1319  -0.9498  -0.9380
 -0.9052  -0.8429  -0.7804  -0.7449  -0.7256  -0.6592  -0.6224  -0.5962
 -0.5460  -0.5226  -0.4853  -0.4520  -0.4364  -0.4149  -0.4057  -0.3929
 -0.3928  -0.3771  -0.3690  -0.3663  -0.3604  -0.3366  -0.3302  -0.3288
 -0.3150  -0.3142  -0.2453  -0.2352  -0.2276  -0.2113  -0.2047  -0.1245

          Ground-State Mulliken Net Atomic Charges

     Atom                 Charge (a.u.)
  ----------------------------------------
      1 C                     0.266905
      2 C                    -0.884950
      3 C                     1.901773
      4 C                     0.183113
      5 C                    -0.125002
      6 C                     0.150586
      7 C                    -0.472358
      8 C                    -0.003099
      9 C                    -0.008338
     10 C                    -0.408046
     11 O                    -0.731240
     12 O                    -0.684491
     13 C                    -1.662222
     14 N                    -0.348542
     15 H                     0.151776
     16 H                     0.199372
     17 H                     0.166426
     18 H                     0.153030
     19 H                     0.155308
  ----------------------------------------
  Sum of atomic charges =    -2.000000

                    Cartesian Multipole Moments
 -----------------------------------------------------------------
    Charge (ESU x 10^10)
                -9.6064
    Dipole Moment (Debye)
         X     -41.8342      Y      33.9377      Z      -5.1303
       Tot      54.1127
    Quadrupole Moments (Debye-Ang)
        XX    -311.8068     XY     152.3826     YY    -233.7737
        XZ       5.2867     YZ      42.5338     ZZ    -144.0452

 Total job time:  38.29s(wall), 164.23s(cpu)
        *  Thank you very much for using Q-Chem.  Have a nice day.  *
