 Gaussian 16, Revision A.03,
 Gaussian 16:  ES64L-G16RevA.03 25-Dec-2016

 --------------------------------------
 #P UB3LYP/6-311++G(d,p) nosym opt freq
 --------------------------------------

 -------
 Radical
 -------
 Symbolic Z-matrix:
 Charge = -1 Multiplicity = 2

 SCF Done:  E(UB3LYP) =  -917.927800097     A.U. after   24 cycles
 SCF Done:  E(UB3LYP) =  -917.944016114     A.U. after   17 cycles
 SCF Done:  E(UB3LYP) =  -917.945688902     A.U. after   18 cycles
 SCF Done:  E(UB3LYP) =  -917.946339031     A.U. after   17 cycles
 SCF Done:  E(UB3LYP) =  -917.946399288     A.U. after   14 cycles
 SCF Done:  E(UB3LYP) =  -917.946402215     A.U. after   12 cycles
 SCF Done:  E(UB3LYP) =  -917.946402354     A.U. after   11 cycles
 Optimization completed.
    -- Stationary point found.
 Normal termination of Gaussian 16 at Thu Dec 21 19:37:34 2023.

 ----------------------------------------------------------------------
 #P Geom=AllCheck Guess=TCheck SCRF=Check GenChk UB3LYP/6-311++G(d,p) F
 req
 ----------------------------------------------------------------------

 Structure from the checkpoint file:  "211-rad.chk"
 -------
 Radical
 -------
 Charge = -1 Multiplicity = 2

                          Input orientation:
 ---------------------------------------------------------------------
 Center     Atomic      Atomic             Coordinates (Angstroms)
 Number     Number       Type             X           Y           Z
 ---------------------------------------------------------------------
      1          6           0        5.262784   -2.327012    0.372335
      2          6           0        6.019441   -1.501274   -0.437891
      3          6           0        5.385083   -0.605274   -1.321902
      4          6           0        3.852740   -2.292732    0.333902
      5          6           0        3.219407   -1.391811   -0.554884
      6          6           0        4.005031   -0.556350   -1.374613
      7          6           0        3.096641   -3.197152    1.221416
      8          6           0        1.637590   -3.131514    1.152605
      9          6           0        1.015906   -2.218115    0.251791
     10          6           0        1.758822   -1.319707   -0.630570
     11          6           0        0.781735   -3.973651    1.979022
     12          6           0       -0.642021   -3.863120    1.866309
     13          6           0       -0.401481   -2.144501    0.175464
     14          6           0       -1.206823   -2.928839    0.945265
     15          8           0        3.733534   -3.969543    1.984674
     16          8           0        1.183566   -0.525593   -1.413572
     17          1           0        5.725248   -3.024503    1.060351
     18          1           0        7.103837   -1.542528   -0.393689
     19          1           0        5.979699    0.043319   -1.958334
     20          1           0       -2.288391   -2.856100    0.870734
     21          1           0        3.484859    0.120485   -2.042531
     22          1           0       -0.811810   -1.430289   -0.528646
     23          6           0       -1.483714   -4.674309    2.662266
     24          6           0       -0.956442   -5.581770    3.556699
     25          6           0        0.433407   -5.706545    3.683291
     26          6           0        1.274556   -4.923107    2.914673
     27          8           0       -1.748282   -6.391668    4.351502
     28          1           0       -2.561992   -4.569919    2.556545
     29          1           0        0.835745   -6.423709    4.390100
     30          1           0        2.345273   -5.018121    3.011099
     31          1           0       -2.670760   -6.197615    4.157987
 ---------------------------------------------------------------------

 SCF Done:  E(UB3LYP) =  -917.946402354     A.U. after    1 cycles

 Alpha  occ. eigenvalues --  -19.06525 -18.95399 -18.95111 -10.13370 -10.10439
 Alpha  occ. eigenvalues --  -10.10386 -10.07855 -10.07116 -10.07035 -10.06508
 Alpha  occ. eigenvalues --  -10.06475 -10.06458 -10.06143 -10.06041 -10.05799
 Alpha  occ. eigenvalues --  -10.05703 -10.05688 -10.05624 -10.05614 -10.05567
 Alpha  occ. eigenvalues --  -10.05413  -0.97151  -0.88144  -0.87820  -0.76269
 Alpha  occ. eigenvalues --   -0.74353  -0.71322  -0.67409  -0.65018  -0.63624
 Alpha  occ. eigenvalues --   -0.63380  -0.61051  -0.55736  -0.52819  -0.52593
 Alpha  occ. eigenvalues --   -0.50064  -0.48589  -0.45565  -0.44255  -0.42420
 Alpha  occ. eigenvalues --   -0.40671  -0.39112  -0.36819  -0.35477  -0.34938
 Alpha  occ. eigenvalues --   -0.34379  -0.32796  -0.31858  -0.31643  -0.30878
 Alpha  occ. eigenvalues --   -0.30148  -0.30001  -0.29202  -0.28905  -0.28390
 Alpha  occ. eigenvalues --   -0.26578  -0.26277  -0.25657  -0.25173  -0.23410
 Alpha  occ. eigenvalues --   -0.23303  -0.23088  -0.21911  -0.19894  -0.16898
 Alpha  occ. eigenvalues --   -0.14487  -0.14125  -0.13028  -0.12130  -0.11096
 Alpha  occ. eigenvalues --   -0.10958  -0.02500
 Alpha virt. eigenvalues --    0.06085   0.06107   0.07623   0.07963   0.08895
 Alpha virt. eigenvalues --    0.09671   0.09879   0.09975   0.11135   0.11434
 Alpha virt. eigenvalues --    0.11863   0.13424   0.13667   0.14581   0.14681

  Beta  occ. eigenvalues --  -19.06516 -18.94822 -18.94536 -10.13346 -10.10294
  Beta  occ. eigenvalues --  -10.10283 -10.07859 -10.07123 -10.07025 -10.06474
  Beta  occ. eigenvalues --  -10.06452 -10.06421 -10.06004 -10.05940 -10.05810
  Beta  occ. eigenvalues --  -10.05664 -10.05659 -10.05655 -10.05611 -10.05499
  Beta  occ. eigenvalues --  -10.05278  -0.97127  -0.87165  -0.86807  -0.76155
  Beta  occ. eigenvalues --   -0.74190  -0.71128  -0.67113  -0.64861  -0.63469
  Beta  occ. eigenvalues --   -0.63254  -0.60864  -0.55138  -0.52611  -0.52460
  Beta  occ. eigenvalues --   -0.49876  -0.48510  -0.45454  -0.44083  -0.42266
  Beta  occ. eigenvalues --   -0.40555  -0.39011  -0.36624  -0.35347  -0.34790
  Beta  occ. eigenvalues --   -0.34287  -0.32755  -0.31696  -0.31566  -0.30834
  Beta  occ. eigenvalues --   -0.29852  -0.29115  -0.29057  -0.28629  -0.28002
  Beta  occ. eigenvalues --   -0.26394  -0.25974  -0.25071  -0.23556  -0.23281
  Beta  occ. eigenvalues --   -0.23020  -0.22400  -0.21731  -0.19313  -0.16087
  Beta  occ. eigenvalues --   -0.13684  -0.12898  -0.12431  -0.11598  -0.10570
  Beta  occ. eigenvalues --   -0.10112
  Beta virt. eigenvalues --    0.03247   0.06108   0.06737   0.07957   0.08422
  Beta virt. eigenvalues --    0.08895   0.09670   0.09969   0.10356   0.11412
  Beta virt. eigenvalues --    0.11435   0.11862   0.13421   0.13669   0.14684

 Mulliken charges and spin densities:
               1          2
     1  C    0.001681   0.019779
     2  C   -0.423708   0.023807
     3  C   -0.414199   0.031637
     4  C    0.285591   0.008980
     5  C    0.242418   0.030800
     6  C   -0.073222   0.010291
     7  C   -0.779805   0.081578
     8  C    0.690222   0.112854
     9  C    0.757757   0.105493
    10  C   -1.060839   0.049171
    11  C    0.957141   0.007490
    12  C    0.671704  -0.014458
    13  C   -0.228712  -0.024596
    14  C   -0.443446   0.087235
    15  O   -0.324478   0.219722
    16  O   -0.346851   0.214665
    17  H    0.152946  -0.001615
    18  H    0.127461  -0.002134
    19  H    0.125980  -0.002674
    20  H    0.105629  -0.005430
    21  H    0.154324  -0.001232
    22  H    0.159441   0.000896
    23  C   -0.331744   0.007000
    24  C   -0.485785   0.014579
    25  C   -0.434541   0.008158
    26  C   -0.466419   0.023861
    27  O   -0.260420   0.002101
    28  H    0.057452  -0.001289
    29  H    0.170065  -0.001397
    30  H    0.161203  -0.005175
    31  H    0.253154  -0.000097
 Sum of Mulliken charges =  -1.00000   1.00000

 Dipole moment (field-independent basis, Debye):
    X=            -10.9265    Y=             13.0214    Z=             -3.5594  Tot=             17.3670
 Quadrupole moment (field-independent basis, Debye-Ang):
   XX=           -154.9750   YY=           -184.1147   ZZ=           -150.8619
   XY=             30.3918   XZ=             -8.8626   YZ=             28.5075

  Exact polarizability: 357.483  68.513 240.484 -66.694-125.441 236.085
 Approx polarizability: 561.798  55.460 405.935 -53.444-218.830 398.662

                      1                      2                      3
                      A                      A                      A
 Frequencies --     35.7239                56.6685                90.4691
 Red. masses --      7.4625                 5.3193                 6.2365
 Frc consts  --      0.0056                 0.0101                 0.0301
 IR Inten    --      3.2128                 2.1312                 1.1184

                      4                      5                      6
                      A                      A                      A
 Frequencies --    129.0846               155.1008               170.9322
 Red. masses --      4.6952                 6.2858                 7.2595
 Frc consts  --      0.0461                 0.0891                 0.1250
 IR Inten    --      0.0025                 1.9229                 5.0601

                      7                      8                      9
                      A                      A                      A
 Frequencies --    186.3804               244.5062               257.2907
 Red. masses --      4.4904                 1.9001                 1.8911
 Frc consts  --      0.0919                 0.0669                 0.0738
 IR Inten    --      1.9387                36.4094                51.8987

                     10                     11                     12
                      A                      A                      A
 Frequencies --    274.2780               287.2701               335.0978
 Red. masses --      6.3303                 7.0318                 8.4851
 Frc consts  --      0.2806                 0.3419                 0.5614
 IR Inten    --      2.4472                 0.5693                 2.6434

                     13                     14                     15
                      A                      A                      A
 Frequencies --    336.9997               395.0343               406.5976
 Red. masses --      6.0512                 8.2552                 7.7548
 Frc consts  --      0.4049                 0.7590                 0.7554
 IR Inten    --      6.6855                 7.4917                 0.9411

                     16                     17                     18
                      A                      A                      A
 Frequencies --    407.8809               441.3469               444.3670
 Red. masses --      3.7906                 3.3296                 4.9108
 Frc consts  --      0.3716                 0.3821                 0.5713
 IR Inten    --      3.5167                 1.6840                 2.0044

                     19                     20                     21
                      A                      A                      A
 Frequencies --    468.2276               485.3956               519.1290
 Red. masses --      4.9162                10.7221                 3.4214
 Frc consts  --      0.6350                 1.4884                 0.5433
 IR Inten    --     25.3240                 4.4551                15.1624

                     22                     23                     24
                      A                      A                      A
 Frequencies --    522.7393               549.5290               552.0933
 Red. masses --      7.7574                 4.4412                 7.1675
 Frc consts  --      1.2489                 0.7902                 1.2872
 IR Inten    --     17.1055                 1.1282                 6.1609

                     25                     26                     27
                      A                      A                      A
 Frequencies --    621.0944               629.5904               658.0701
 Red. masses --      6.6597                 3.8137                 6.8421
 Frc consts  --      1.5136                 0.8907                 1.7458
 IR Inten    --     16.8816                 0.0883                 0.3105

                     28                     29                     30
                      A                      A                      A
 Frequencies --    685.8251               687.2788               711.0537
 Red. masses --      4.6117                 7.0943                 2.2950
 Frc consts  --      1.2780                 1.9744                 0.6837
 IR Inten    --      1.1271                 0.2920                56.6238

                     31                     32                     33
                      A                      A                      A
 Frequencies --    740.3695               748.0581               777.2865
 Red. masses --      6.9459                 4.1622                 1.4823
 Frc consts  --      2.2432                 1.3723                 0.5277
 IR Inten    --     15.2467                 0.9654                 8.6333

                     34                     35                     36
                      A                      A                      A
 Frequencies --    787.9977               799.6776               808.5174
 Red. masses --      1.9533                 6.2024                 2.9792
 Frc consts  --      0.7146                 2.3369                 1.1474
 IR Inten    --     13.3670                15.5049                 3.3196

                     37                     38                     39
                      A                      A                      A
 Frequencies --    828.3634               829.0208               834.6671
 Red. masses --      6.3544                 1.6805                 1.6295
 Frc consts  --      2.5690                 0.6805                 0.6689
 IR Inten    --      0.4077                 0.0094                70.2437

                     40                     41                     42
                      A                      A                      A
 Frequencies --    875.9417               911.5205               968.0039
 Red. masses --      1.4859                 6.6898                 3.9893
 Frc consts  --      0.6717                 3.2749                 2.2024
 IR Inten    --      0.0015                 4.6187                29.8720

                     43                     44                     45
                      A                      A                      A
 Frequencies --    982.3387               987.4690               994.8106
 Red. masses --      1.3258                 1.2925                 1.2979
 Frc consts  --      0.7538                 0.7426                 0.7568
 IR Inten    --      1.3405                 0.7522                 1.6652

                     46                     47                     48
                      A                      A                      A
 Frequencies --    999.7737              1006.1749              1042.8607
 Red. masses --      1.2728                 5.0741                 1.9828
 Frc consts  --      0.7496                 3.0266                 1.2705
 IR Inten    --      2.2567                17.3232                23.8082

                     49                     50                     51
                      A                      A                      A
 Frequencies --   1081.0590              1112.4122              1143.0485
 Red. masses --      3.4031                 1.9408                 1.4436
 Frc consts  --      2.3433                 1.4150                 1.1113
 IR Inten    --      2.4232                 5.9219                41.0571

                     52                     53                     54
                      A                      A                      A
 Frequencies --   1156.8613              1169.0878              1184.9885
 Red. masses --      1.2578                 1.8186                 1.5956
 Frc consts  --      0.9918                 1.4645                 1.3201
 IR Inten    --     15.9836               124.9490                 0.6001

                     55                     56                     57
                      A                      A                      A
 Frequencies --   1189.5227              1199.9911              1220.4425
 Red. masses --      1.6389                 2.0871                 2.3361
 Frc consts  --      1.3663                 1.7707                 2.0501
 IR Inten    --    307.7021                 8.1278                23.9731

                     58                     59                     60
                      A                      A                      A
 Frequencies --   1241.6359              1265.7204              1290.0833
 Red. masses --      2.2634                 2.3716                 2.0892
 Frc consts  --      2.0559                 2.2385                 2.0487
 IR Inten    --     21.7959                96.6250                 0.9070

                     61                     62                     63
                      A                      A                      A
 Frequencies --   1296.4294              1357.3409              1363.9606
 Red. masses --      2.4885                 6.3936                 9.4876
 Frc consts  --      2.4642                 6.9402                10.3994
 IR Inten    --     29.3227                47.2477                 3.5380

                     64                     65                     66
                      A                      A                      A
 Frequencies --   1377.8516              1386.4201              1421.5563
 Red. masses --      4.1049                 4.6077                 2.2729
 Frc consts  --      4.5916                 5.2182                 2.7062
 IR Inten    --    142.3471                43.4000                69.5342

                     67                     68                     69
                      A                      A                      A
 Frequencies --   1461.5942              1478.4217              1487.5465
 Red. masses --      3.3164                 2.6924                 2.7371
 Frc consts  --      4.1742                 3.4673                 3.5685
 IR Inten    --    143.6368                 3.5433                86.2810

                     70                     71                     72
                      A                      A                      A
 Frequencies --   1514.5986              1533.0320              1558.3171
 Red. masses --      4.7232                 5.8791                 6.2647
 Frc consts  --      6.3838                 8.1408                 8.9631
 IR Inten    --    123.5612               231.0956               104.8827

                     73                     74                     75
                      A                      A                      A
 Frequencies --   1574.5417              1614.4169              1625.0343
 Red. masses --      5.2795                 8.4363                 5.9575
 Frc consts  --      7.7117                12.9549                 9.2692
 IR Inten    --    120.7553                39.1498                50.4561

                     76                     77                     78
                      A                      A                      A
 Frequencies --   1632.5973              1641.2078              3118.8653
 Red. masses --      6.5786                 6.2930                 1.0891
 Frc consts  --     10.3309                 9.9870                 6.2417
 IR Inten    --     14.9786                96.3263                42.4861

                     79                     80                     81
                      A                      A                      A
 Frequencies --   3135.5897              3137.3649              3154.7359
 Red. masses --      1.0849                 1.0879                 1.0916
 Frc consts  --      6.2846                 6.3093                 6.4007
 IR Inten    --     16.9137                38.0822                58.2779

                     82                     83                     84
                      A                      A                      A
 Frequencies --   3172.2323              3184.5193              3186.4091
 Red. masses --      1.0900                 1.0919                 1.0919
 Frc consts  --      6.4624                 6.5239                 6.5320
 IR Inten    --     18.5591                19.2668                15.8758

                     85                     86                     87
                      A                      A                      A
 Frequencies --   3189.8362              3225.9433              3835.3116
 Red. masses --      1.0920                 1.0919                 1.0658
 Frc consts  --      6.5465                 6.6952                 9.2371
 IR Inten    --     21.9467                18.3331                49.3327

 - Thermochemistry -
 -------------------
 Temperature   298.150 Kelvin.  Pressure   1.00000 Atm.
 Atom     1 has atomic number  6 and mass  12.00000

 Molecular mass:   274.06299 amu.
 Principal axes and moments of inertia in atomic units:
                           1         2         3
     Eigenvalues --  2320.532439402.30325**********
           X            0.67843   0.73466  -0.00217
           Y            0.52462  -0.48239   0.70147
           Z           -0.51430   0.47704   0.71269
 This molecule is an asymmetric top.
 Rotational symmetry number  1.
 Warning -- assumption of classical behavior for rotation
           may cause significant error
 Rotational temperatures (Kelvin)      0.03733     0.00921     0.00739
 Rotational constants (GHZ):           0.77773     0.19195     0.15395
 Zero-point vibrational energy     595671.1 (Joules/Mol)
                                  142.36882 (Kcal/Mol)
 Warning -- explicit consideration of  24 degrees of freedom as
           vibrations may cause significant error
 Vibrational temperatures:     51.40    81.53   130.16   185.72   223.16
          (Kelvin)            245.93   268.16   351.79   370.18   394.62
                              413.32   482.13   484.87   568.37   585.00
                              586.85   635.00   639.34   673.68   698.38
                              746.91   752.11   790.65   794.34   893.62
                              905.84   946.82   986.75   988.84  1023.05
                             1065.23  1076.29  1118.34  1133.75  1150.56
                             1163.28  1191.83  1192.78  1200.90  1260.28
                             1311.47  1392.74  1413.37  1420.75  1431.31
                             1438.45  1447.66  1500.44  1555.40  1600.51
                             1644.59  1664.47  1682.06  1704.93  1711.46
                             1726.52  1755.94  1786.44  1821.09  1856.14
                             1865.27  1952.91  1962.44  1982.42  1994.75
                             2045.30  2102.91  2127.12  2140.25  2179.17
                             2205.69  2242.07  2265.41  2322.79  2338.06
                             2348.94  2361.33  4487.35  4511.41  4513.97
                             4538.96  4564.13  4581.81  4584.53  4589.46
                             4641.41  5518.16

 Zero-point correction=                           0.226879 (Hartree/Particle)
 Thermal correction to Energy=                    0.242186
 Thermal correction to Enthalpy=                  0.243130
 Thermal correction to Gibbs Free Energy=         0.183780
 Sum of electronic and zero-point Energies=           -917.719523
 Sum of electronic and thermal Energies=              -917.704216
 Sum of electronic and thermal Enthalpies=            -917.703272
 Sum of electronic and thermal Free Energies=         -917.762622

                     E (Thermal)             CV                S
                      KCal/Mol        Cal/Mol-Kelvin    Cal/Mol-Kelvin
 Total                  151.974             63.027            124.914
 Electronic               0.000              0.000              1.377
 Translational            0.889              2.981             42.723
 Rotational               0.889              2.981             33.902
 Vibrational            150.197             57.065             46.911
 Vibration     1          0.594              1.982              5.483
 Vibration     2          0.596              1.975              4.570
 Vibration     3          0.602              1.956              3.650
 Vibration     4          0.612              1.924              2.960
 Vibration     5          0.620              1.897              2.609
 Vibration     6          0.626              1.878              2.425
 Vibration     7          0.632              1.858              2.264
 Vibration     8          0.660              1.772              1.770
 Vibration     9          0.667              1.750              1.680
 Vibration    10          0.677              1.721              1.569
 Vibration    11          0.684              1.697              1.490
 Vibration    12          0.716              1.605              1.235
 Vibration    13          0.718              1.602              1.226
 Vibration    14          0.762              1.481              0.981
 Vibration    15          0.771              1.456              0.939
 Vibration    16          0.772              1.453              0.934
 Vibration    17          0.801              1.380              0.822
 Vibration    18          0.804              1.373              0.813
 Vibration    19          0.825              1.321              0.743
 Vibration    20          0.841              1.282              0.696
 Vibration    21          0.874              1.208              0.612
 Vibration    22          0.878              1.200              0.604
 Vibration    23          0.905              1.141              0.545
 Vibration    24          0.907              1.135              0.540

 Optimization completed.
    -- Stationary point found.
 Normal termination of Gaussian 16 at Thu Dec 21 20:38:04 2023.
