 Q-Chem 5.4, Q-Chem, Inc., Pleasanton, CA (2021)
 Q-Chem 5.4.0 for Intel X86 EM64T Linux

User input:
--------------------------------------------------------------
$molecule
-1 2
Cl                 5.1971430000     -1.4849390000     -0.0050030000
C                  3.6333810000     -0.6451270000     -0.1494900000
C                  3.6413290000      0.7243520000     -0.4808660000
C                  2.4323880000      1.3794340000     -0.5939690000
C                  1.2054190000      0.7133150000     -0.3869860000
C                 -0.0449090000      1.4611820000     -0.5209530000
O                 -0.0610270000      2.6814790000     -0.8152970000
C                 -1.2757530000      0.6999470000     -0.2909360000
C                 -2.5210520000      1.3561920000     -0.4029930000
C                 -3.7070710000      0.6808410000     -0.1955250000
C                 -3.6864720000     -0.6919460000      0.1354920000
C                 -2.4812550000     -1.3548160000      0.2507120000
C                 -1.2547590000     -0.6853170000      0.0430740000
C                 -0.0030590000     -1.4338560000      0.1772270000
O                  0.0173020000     -2.6547480000      0.4715870000
C                  1.2247430000     -0.6724170000     -0.0527560000
C                  2.4674010000     -1.3374650000      0.0614880000
H                  4.5800270000      1.2404260000     -0.6408030000
H                  2.3920190000      2.4325920000     -0.8471410000
H                 -2.5062840000      2.4095890000     -0.6581030000
H                 -4.6550500000      1.2027890000     -0.2862590000
H                 -4.6188710000     -1.2242320000      0.2989800000
H                 -2.4358570000     -2.4078240000      0.5036130000
H                  2.4602660000     -2.3894510000      0.3160450000
$end

$rem
BASIS  =  6-311++G(d,p)
GUI  =  2
JOB_TYPE  =  SP
METHOD  =  B3LYP
SCF_CONVERGENCE  = 8
SOLVENT_METHOD = sm12
$end

$smx
solvent dimethylformamide
charges CM5
$end

--------------------------------------------------------------

             Standard Nuclear Orientation (Angstroms)
    I     Atom           X                Y                Z
 ----------------------------------------------------------------
    1      Cl      5.1971430000    -1.4849390000    -0.0050030000
    2      C       3.6333810000    -0.6451270000    -0.1494900000
    3      C       3.6413290000     0.7243520000    -0.4808660000
    4      C       2.4323880000     1.3794340000    -0.5939690000
    5      C       1.2054190000     0.7133150000    -0.3869860000
    6      C      -0.0449090000     1.4611820000    -0.5209530000
    7      O      -0.0610270000     2.6814790000    -0.8152970000
    8      C      -1.2757530000     0.6999470000    -0.2909360000
    9      C      -2.5210520000     1.3561920000    -0.4029930000
   10      C      -3.7070710000     0.6808410000    -0.1955250000
   11      C      -3.6864720000    -0.6919460000     0.1354920000
   12      C      -2.4812550000    -1.3548160000     0.2507120000
   13      C      -1.2547590000    -0.6853170000     0.0430740000
   14      C      -0.0030590000    -1.4338560000     0.1772270000
   15      O       0.0173020000    -2.6547480000     0.4715870000
   16      C       1.2247430000    -0.6724170000    -0.0527560000
   17      C       2.4674010000    -1.3374650000     0.0614880000
   18      H       4.5800270000     1.2404260000    -0.6408030000
   19      H       2.3920190000     2.4325920000    -0.8471410000
   20      H      -2.5062840000     2.4095890000    -0.6581030000
   21      H      -4.6550500000     1.2027890000    -0.2862590000
   22      H      -4.6188710000    -1.2242320000     0.2989800000
   23      H      -2.4358570000    -2.4078240000     0.5036130000
   24      H       2.4602660000    -2.3894510000     0.3160450000
 ----------------------------------------------------------------

   17   -1148.6453448860      5.19e-09  Convergence criterion met
 Total energy in the final basis set =    -1148.7290928900

                    Orbital Energies (a.u.)
 --------------------------------------------------------------

 Alpha MOs
 -- Occupied --
******** -19.0820 -19.0816 -10.2422 -10.2319 -10.2308 -10.1924 -10.1884
-10.1879 -10.1878 -10.1848 -10.1845 -10.1843 -10.1836 -10.1831 -10.1812
-10.1810  -9.4723  -7.2367  -7.2274  -7.2269  -1.0091  -1.0068  -0.8965
 -0.8671  -0.8442  -0.7904  -0.7656  -0.7606  -0.7419  -0.6766  -0.6500
 -0.6244  -0.6030  -0.5690  -0.5451  -0.5335  -0.4847  -0.4796  -0.4712
 -0.4651  -0.4425  -0.4347  -0.4332  -0.4231  -0.4171  -0.4132  -0.3948
 -0.3941  -0.3862  -0.3652  -0.3609  -0.3602  -0.3455  -0.3282  -0.3205
 -0.2760  -0.2697  -0.2658  -0.2551  -0.2517  -0.2430  -0.1498

 Beta MOs
 -- Occupied --
******** -19.0763 -19.0755 -10.2416 -10.2306 -10.2293 -10.1918 -10.1882
-10.1880 -10.1870 -10.1844 -10.1838 -10.1836 -10.1829 -10.1823 -10.1813
-10.1810  -9.4723  -7.2367  -7.2273  -7.2269  -0.9990  -0.9963  -0.8954
 -0.8650  -0.8428  -0.7870  -0.7635  -0.7588  -0.7400  -0.6693  -0.6484
 -0.6219  -0.6024  -0.5666  -0.5430  -0.5319  -0.4824  -0.4781  -0.4695
 -0.4643  -0.4422  -0.4344  -0.4219  -0.4217  -0.4114  -0.4103  -0.3923
 -0.3905  -0.3646  -0.3632  -0.3588  -0.3542  -0.3437  -0.3204  -0.3199
 -0.2677  -0.2571  -0.2538  -0.2481  -0.2462  -0.2375

          Ground-State Mulliken Net Atomic Charges

     Atom                 Charge (a.u.)    Spin (a.u.)
  --------------------------------------------------------
      1 Cl                    0.936161       0.002814
      2 C                     1.923791       0.031224
      3 C                     0.956472       0.046282
      4 C                     0.366835       0.018935
      5 C                    -1.010065       0.044400
      6 C                    -2.007706       0.065313
      7 O                    -0.299837       0.216740
      8 C                    -0.949174       0.034914
      9 C                     0.068222       0.022396
     10 C                     0.945405       0.040232
     11 C                     0.947729       0.031243
     12 C                    -0.029130       0.030223
     13 C                    -0.847151       0.035326
     14 C                    -1.843327       0.075672
     15 O                    -0.310777       0.228528
     16 C                    -1.317877       0.066624
     17 C                    -0.319908       0.024407
     18 H                     0.363402      -0.003451
     19 H                     0.184898      -0.000967
     20 H                     0.163931      -0.001308
     21 H                     0.361233      -0.003118
     22 H                     0.360282      -0.002547
     23 H                     0.155452      -0.001912
     24 H                     0.201138      -0.001974
  --------------------------------------------------------
  Sum of atomic charges =    -1.000000

                    Cartesian Multipole Moments
 -----------------------------------------------------------------
    Charge (ESU x 10^10)
                -4.8032
    Dipole Moment (Debye)
         X      -2.2507      Y       1.0145      Z       0.6533
       Tot       2.5538
    Quadrupole Moments (Debye-Ang)
        XX    -122.2569     XY       6.3530     YY    -136.8800
        XZ      -0.7586     YZ       5.6496     ZZ    -113.2963

 Total job time:  713.16s(wall), 3757.11s(cpu)
        *  Thank you very much for using Q-Chem.  Have a nice day.  *
