 Q-Chem 5.4, Q-Chem, Inc., Pleasanton, CA (2021)
 Q-Chem 5.4.0 for Intel X86 EM64T Linux

User input:
--------------------------------------------------------------
$molecule
-1 2
C                  4.9873710000     -2.0431900000      0.4908420000
C                  5.7291490000     -1.3380440000     -0.4381670000
C                  5.1163620000     -0.6064620000     -1.4812240000
C                  3.5856370000     -2.0413300000      0.4084410000
C                  2.9456370000     -1.3131300000     -0.6363850000
C                  3.7431650000     -0.6030520000     -1.5641390000
C                  2.8216440000     -2.8002860000      1.4106080000
C                  1.3586270000     -2.7600010000      1.2620510000
C                  0.7257880000     -2.0298940000      0.2142010000
C                  1.4910320000     -1.2765080000     -0.7778050000
C                  0.5709890000     -3.4679370000      2.1839920000
C                 -0.6864220000     -2.0336870000      0.1330080000
C                 -1.4558850000     -2.7285990000      1.0372700000
O                  3.3767500000     -3.4386480000      2.3214850000
O                  0.9306800000     -0.6352420000     -1.6998330000
H                  5.4580120000     -2.5978860000      1.2928530000
S                  7.4945480000     -1.3777830000     -0.3460540000
H                 -2.5368830000     -2.7231550000      0.9825100000
H                  3.2310520000     -0.0521660000     -2.3435730000
H                  1.0669080000     -4.0137110000      2.9768420000
H                 -1.1417060000     -1.4649870000     -0.6685870000
C                 -0.8061130000     -3.4471130000      2.0668870000
S                 -1.7856100000     -4.3717850000      3.2124880000
O                 -1.0652940000     -4.6232500000      4.4579310000
O                 -3.1460860000     -3.8375100000      3.2769330000
O                 -1.8610040000     -5.8108690000      2.3829540000
C                 -2.5622740000     -6.8714370000      3.0567570000
H                 -2.0717790000     -7.1170550000      4.0016270000
H                 -2.5122010000     -7.7227380000      2.3793730000
H                 -3.6052800000     -6.5949970000      3.2313400000
H                  5.7269600000     -0.0542550000     -2.1839620000
O                  7.9571500000     -1.7213000000      0.9960020000
O                  8.0728670000     -0.2138500000     -1.0179060000
O                  7.7726620000     -2.6961800000     -1.3203900000
C                  9.1530050000     -3.0801170000     -1.4537560000
H                  9.5717640000     -3.3531870000     -0.4822620000
H                  9.7363610000     -2.2734850000     -1.9051740000
H                  9.1462070000     -3.9471850000     -2.1127100000
$end
$rem
MAX_SCF_CYCLES=200
BASIS  =  6-311++G(d,p)
GUI  =  2
JOB_TYPE  =  SP
METHOD  =  B3LYP
SOLVENT_METHOD = PCM
$end
$pcm
theory = CPCM
$end
$solvent
dielectric 37.219
opticaldielectric 1.43
$end

--------------------------------------------------------------

             Standard Nuclear Orientation (Angstroms)
    I     Atom           X                Y                Z
 ----------------------------------------------------------------
    1      C       4.9873710000    -2.0431900000     0.4908420000
    2      C       5.7291490000    -1.3380440000    -0.4381670000
    3      C       5.1163620000    -0.6064620000    -1.4812240000
    4      C       3.5856370000    -2.0413300000     0.4084410000
    5      C       2.9456370000    -1.3131300000    -0.6363850000
    6      C       3.7431650000    -0.6030520000    -1.5641390000
    7      C       2.8216440000    -2.8002860000     1.4106080000
    8      C       1.3586270000    -2.7600010000     1.2620510000
    9      C       0.7257880000    -2.0298940000     0.2142010000
   10      C       1.4910320000    -1.2765080000    -0.7778050000
   11      C       0.5709890000    -3.4679370000     2.1839920000
   12      C      -0.6864220000    -2.0336870000     0.1330080000
   13      C      -1.4558850000    -2.7285990000     1.0372700000
   14      O       3.3767500000    -3.4386480000     2.3214850000
   15      O       0.9306800000    -0.6352420000    -1.6998330000
   16      H       5.4580120000    -2.5978860000     1.2928530000
   17      S       7.4945480000    -1.3777830000    -0.3460540000
   18      H      -2.5368830000    -2.7231550000     0.9825100000
   19      H       3.2310520000    -0.0521660000    -2.3435730000
   20      H       1.0669080000    -4.0137110000     2.9768420000
   21      H      -1.1417060000    -1.4649870000    -0.6685870000
   22      C      -0.8061130000    -3.4471130000     2.0668870000
   23      S      -1.7856100000    -4.3717850000     3.2124880000
   24      O      -1.0652940000    -4.6232500000     4.4579310000
   25      O      -3.1460860000    -3.8375100000     3.2769330000
   26      O      -1.8610040000    -5.8108690000     2.3829540000
   27      C      -2.5622740000    -6.8714370000     3.0567570000
   28      H      -2.0717790000    -7.1170550000     4.0016270000
   29      H      -2.5122010000    -7.7227380000     2.3793730000
   30      H      -3.6052800000    -6.5949970000     3.2313400000
   31      H       5.7269600000    -0.0542550000    -2.1839620000
   32      O       7.9571500000    -1.7213000000     0.9960020000
   33      O       8.0728670000    -0.2138500000    -1.0179060000
   34      O       7.7726620000    -2.6961800000    -1.3203900000
   35      C       9.1530050000    -3.0801170000    -1.4537560000
   36      H       9.5717640000    -3.3531870000    -0.4822620000
   37      H       9.7363610000    -2.2734850000    -1.9051740000
   38      H       9.1462070000    -3.9471850000    -2.1127100000
 ----------------------------------------------------------------

    8   -2015.5280524560      7.26e-06  Convergence criterion met
 Total energy in the final basis set =    -2015.5280524560

                    Orbital Energies (a.u.)
 --------------------------------------------------------------

 Alpha MOs
 -- Occupied --
-89.0926 -89.0925 -19.1775 -19.1775 -19.1422 -19.1421 -19.1411 -19.1411
-19.0982 -19.0922 -10.2511 -10.2399 -10.2271 -10.2270 -10.2264 -10.2264
-10.2047 -10.2047 -10.2002 -10.2002 -10.1967 -10.1966 -10.1961 -10.1961
-10.1892 -10.1892  -8.1537  -8.1536  -6.1173  -6.1173  -6.1158  -6.1157
 -6.1141  -6.1141  -1.1592  -1.1591  -1.0492  -1.0491  -1.0339  -1.0339
 -1.0302  -1.0191  -0.8915  -0.8849  -0.8243  -0.7958  -0.7820  -0.7740
 -0.7468  -0.7330  -0.6946  -0.6777  -0.6672  -0.6262  -0.6260  -0.6057
 -0.5815  -0.5684  -0.5681  -0.5362  -0.5335  -0.5211  -0.5140  -0.5050
 -0.4968  -0.4862  -0.4798  -0.4650  -0.4619  -0.4598  -0.4576  -0.4511
 -0.4474  -0.4433  -0.4394  -0.4382  -0.4335  -0.4150  -0.4110  -0.4089
 -0.3997  -0.3977  -0.3912  -0.3723  -0.3701  -0.3639  -0.3580  -0.3579
 -0.3545  -0.3541  -0.3420  -0.3417  -0.3371  -0.3369  -0.3068  -0.3068
 -0.2912  -0.2838  -0.2788  -0.2758  -0.2658  -0.2559  -0.1625

 Beta MOs
 -- Occupied --
-89.0926 -89.0925 -19.1775 -19.1774 -19.1421 -19.1421 -19.1410 -19.1410
-19.0938 -19.0862 -10.2499 -10.2381 -10.2270 -10.2270 -10.2257 -10.2257
-10.2050 -10.2050 -10.1996 -10.1996 -10.1957 -10.1957 -10.1952 -10.1952
-10.1891 -10.1891  -8.1537  -8.1536  -6.1173  -6.1173  -6.1158  -6.1157
 -6.1141  -6.1141  -1.1590  -1.1590  -1.0490  -1.0490  -1.0338  -1.0338
 -1.0226  -1.0083  -0.8892  -0.8836  -0.8205  -0.7942  -0.7797  -0.7727
 -0.7452  -0.7322  -0.6895  -0.6754  -0.6657  -0.6250  -0.6247  -0.6049
 -0.5798  -0.5675  -0.5665  -0.5355  -0.5326  -0.5201  -0.5130  -0.5036
 -0.4965  -0.4851  -0.4790  -0.4641  -0.4616  -0.4597  -0.4572  -0.4508
 -0.4471  -0.4384  -0.4379  -0.4296  -0.4292  -0.4124  -0.4107  -0.4082
 -0.3960  -0.3884  -0.3776  -0.3715  -0.3650  -0.3582  -0.3578  -0.3573
 -0.3543  -0.3532  -0.3420  -0.3416  -0.3366  -0.3346  -0.3067  -0.3067
 -0.2799  -0.2701  -0.2700  -0.2698  -0.2614  -0.2507

          Ground-State Mulliken Net Atomic Charges

     Atom                 Charge (a.u.)    Spin (a.u.)
  --------------------------------------------------------
      1 C                     0.066077      -0.019984
      2 C                    -0.778533       0.036605
      3 C                    -0.338912       0.051555
      4 C                     0.413617       0.051943
      5 C                     0.420019       0.057881
      6 C                    -0.124954       0.029934
      7 C                    -0.846769       0.063604
      8 C                     0.422796       0.051939
      9 C                     0.417255       0.057482
     10 C                    -0.417220       0.111235
     11 C                     0.063295      -0.019930
     12 C                    -0.125644       0.029729
     13 C                    -0.337168       0.051497
     14 O                    -0.389921       0.167522
     15 O                    -0.437887       0.233767
     16 H                     0.231918       0.000584
     17 S                     0.367667       0.005932
     18 H                     0.257145      -0.003698
     19 H                     0.188460      -0.001836
     20 H                     0.232159       0.000571
     21 H                     0.187936      -0.001840
     22 C                    -0.783137       0.036629
     23 S                     0.366576       0.005836
     24 O                    -0.242103       0.002467
     25 O                    -0.225040      -0.000960
     26 O                    -0.085052       0.000499
     27 C                    -0.160306       0.001079
     28 H                     0.180355       0.000010
     29 H                     0.196734       0.000287
     30 H                     0.180090       0.000009
     31 H                     0.256222      -0.003705
     32 O                    -0.240549       0.002443
     33 O                    -0.227134      -0.000982
     34 O                    -0.084828       0.000510
     35 C                    -0.160398       0.001080
     36 H                     0.180409       0.000010
     37 H                     0.180117       0.000007
     38 H                     0.196670       0.000290
  --------------------------------------------------------
  Sum of atomic charges =    -1.000038

                    Cartesian Multipole Moments
 -----------------------------------------------------------------
    Charge (ESU x 10^10)
                -4.8034
    Dipole Moment (Debye)
         X     -11.7958      Y       7.3203      Z      -7.3717
       Tot      15.7184
    Quadrupole Moments (Debye-Ang)
        XX    -241.9924     XY       8.8854     YY    -175.9291
        XZ     -17.4505     YZ      30.6012     ZZ    -209.0481

 Total job time:  172.04s(wall), 868.71s(cpu)
        *  Thank you very much for using Q-Chem.  Have a nice day.  *
