 Q-Chem 5.4, Q-Chem, Inc., Pleasanton, CA (2021)
 Q-Chem 5.4.0 for Intel X86 EM64T Linux

User input:
--------------------------------------------------------------
$molecule
-2 1
C                 -2.0264270000      3.0455010000     -0.2542180000
C                 -2.9877060000      2.4984360000      0.5724990000
C                 -2.7075270000      1.3114580000      1.2983520000
C                 -0.7452180000      2.4511090000     -0.4055440000
C                 -0.4570400000      1.2425370000      0.3381110000
C                 -1.4623430000      0.7137520000      1.1694720000
C                  0.2375010000      3.0243900000     -1.2706590000
C                  1.4819640000      2.3348100000     -1.3337370000
C                  1.8034710000      1.1691270000     -0.6358940000
C                  0.8406800000      0.5656720000      0.2462570000
O                  0.0969650000      4.1037910000     -1.9944540000
O                  1.0917800000     -0.5021560000      0.9062740000
H                 -2.2200250000      3.9522940000     -0.8192100000
H                 -3.9611060000      2.9772800000      0.6679740000
H                 -3.4626350000      0.8763640000      1.9497990000
H                 -1.2143490000     -0.1933560000      1.7125420000
O                  2.3829280000      2.9371870000     -2.1876970000
H                  1.8293590000      3.7000460000     -2.4921770000
C                  3.1491900000      0.5096930000     -0.8005750000
C                  4.1839690000      0.9412060000      0.2634530000
C                  5.5255220000      0.1813940000      0.2264120000
C                  6.3886350000      0.5290760000      1.4492600000
C                  6.3126990000      0.4321560000     -1.0686630000
H                  3.5403410000      0.7286120000     -1.7997800000
H                  3.0059340000     -0.5740120000     -0.7084820000
H                  3.7239060000      0.7943880000      1.2462260000
H                  4.3773200000      2.0171920000      0.1580730000
H                  5.2959040000     -0.8927700000      0.2765940000
H                  7.3328220000     -0.0314810000      1.4597950000
H                  5.8568450000      0.3111610000      2.3816670000
H                  6.6426460000      1.5963440000      1.4554130000
H                  7.2666730000     -0.1103680000     -1.0706110000
H                  6.5372630000      1.4998490000     -1.1824880000
H                  5.7459390000      0.1202570000     -1.9499720000
$end
$rem
MAX_SCF_CYCLES=200
BASIS  =  6-311++G(d,p)
GUI  =  2
JOB_TYPE  =  SP
METHOD  =  B3LYP
SOLVENT_METHOD = PCM
$end
$pcm
theory = CPCM
$end
$solvent
dielectric 37.219
opticaldielectric 1.43
$end

--------------------------------------------------------------

             Standard Nuclear Orientation (Angstroms)
    I     Atom           X                Y                Z
 ----------------------------------------------------------------
    1      C      -2.0264270000     3.0455010000    -0.2542180000
    2      C      -2.9877060000     2.4984360000     0.5724990000
    3      C      -2.7075270000     1.3114580000     1.2983520000
    4      C      -0.7452180000     2.4511090000    -0.4055440000
    5      C      -0.4570400000     1.2425370000     0.3381110000
    6      C      -1.4623430000     0.7137520000     1.1694720000
    7      C       0.2375010000     3.0243900000    -1.2706590000
    8      C       1.4819640000     2.3348100000    -1.3337370000
    9      C       1.8034710000     1.1691270000    -0.6358940000
   10      C       0.8406800000     0.5656720000     0.2462570000
   11      O       0.0969650000     4.1037910000    -1.9944540000
   12      O       1.0917800000    -0.5021560000     0.9062740000
   13      H      -2.2200250000     3.9522940000    -0.8192100000
   14      H      -3.9611060000     2.9772800000     0.6679740000
   15      H      -3.4626350000     0.8763640000     1.9497990000
   16      H      -1.2143490000    -0.1933560000     1.7125420000
   17      O       2.3829280000     2.9371870000    -2.1876970000
   18      H       1.8293590000     3.7000460000    -2.4921770000
   19      C       3.1491900000     0.5096930000    -0.8005750000
   20      C       4.1839690000     0.9412060000     0.2634530000
   21      C       5.5255220000     0.1813940000     0.2264120000
   22      C       6.3886350000     0.5290760000     1.4492600000
   23      C       6.3126990000     0.4321560000    -1.0686630000
   24      H       3.5403410000     0.7286120000    -1.7997800000
   25      H       3.0059340000    -0.5740120000    -0.7084820000
   26      H       3.7239060000     0.7943880000     1.2462260000
   27      H       4.3773200000     2.0171920000     0.1580730000
   28      H       5.2959040000    -0.8927700000     0.2765940000
   29      H       7.3328220000    -0.0314810000     1.4597950000
   30      H       5.8568450000     0.3111610000     2.3816670000
   31      H       6.6426460000     1.5963440000     1.4554130000
   32      H       7.2666730000    -0.1103680000    -1.0706110000
   33      H       6.5372630000     1.4998490000    -1.1824880000
   34      H       5.7459390000     0.1202570000    -1.9499720000
 ----------------------------------------------------------------

    8    -807.3981711616      8.83e-06  Convergence criterion met
 Total energy in the final basis set =     -807.3981711616

                    Orbital Energies (a.u.)
 --------------------------------------------------------------

 Alpha MOs
 -- Occupied --
-19.1117 -19.0280 -19.0205 -10.1767 -10.1741 -10.1619 -10.1593 -10.1480
-10.1455 -10.1446 -10.1445 -10.1442 -10.1442 -10.1434 -10.1401 -10.1369
-10.1327 -10.1245  -1.0250  -0.9412  -0.9301  -0.8235  -0.7981  -0.7683
 -0.7299  -0.7214  -0.6850  -0.6716  -0.6387  -0.6113  -0.5815  -0.5588
 -0.5428  -0.5342  -0.5022  -0.4707  -0.4555  -0.4448  -0.4322  -0.4261
 -0.4196  -0.4055  -0.3990  -0.3936  -0.3889  -0.3737  -0.3719  -0.3603
 -0.3578  -0.3504  -0.3489  -0.3450  -0.3319  -0.3217  -0.3165  -0.3081
 -0.3058  -0.3038  -0.2969  -0.2943  -0.2297  -0.2252  -0.2171  -0.1990
 -0.1919  -0.1099

          Ground-State Mulliken Net Atomic Charges

     Atom                 Charge (a.u.)
  ----------------------------------------
      1 C                    -0.027112
      2 C                    -0.417165
      3 C                    -0.509686
      4 C                     0.276652
      5 C                    -0.011604
      6 C                     0.046262
      7 C                    -0.917654
      8 C                    -0.658177
      9 C                     2.000659
     10 C                    -0.812257
     11 O                    -0.756432
     12 O                    -0.672183
     13 H                     0.144963
     14 H                     0.170966
     15 H                     0.166096
     16 H                     0.141262
     17 O                    -0.345650
     18 H                     0.285062
     19 C                    -0.217400
     20 C                    -0.669747
     21 C                     0.435686
     22 C                    -0.660385
     23 C                    -0.667256
     24 H                     0.187246
     25 H                     0.164251
     26 H                     0.165995
     27 H                     0.147817
     28 H                     0.133779
     29 H                     0.150663
     30 H                     0.138412
     31 H                     0.144598
     32 H                     0.148860
     33 H                     0.145717
     34 H                     0.147759
  ----------------------------------------
  Sum of atomic charges =    -2.000000

                    Cartesian Multipole Moments
 -----------------------------------------------------------------
    Charge (ESU x 10^10)
                -9.6064
    Dipole Moment (Debye)
         X      -4.7736      Y     -17.3820      Z       4.6159
       Tot      18.6072
    Quadrupole Moments (Debye-Ang)
        XX    -139.4506     XY      -1.7817     YY    -186.0493
        XZ       2.9134     YZ      30.2769     ZZ    -139.7096

 Total job time:  63.31s(wall), 417.90s(cpu)
        *  Thank you very much for using Q-Chem.  Have a nice day.  *
