 Gaussian 16, Revision A.03,
 Gaussian 16:  ES64L-G16RevA.03 25-Dec-2016

 ----------------------------------------------------------------
 #P UB3LYP/6-311++G(d,p) SCRF=(PCM,Solvent=n,n-DiMethylFormamide)
 ----------------------------------------------------------------

 -------
 Reduced
 -------
 Symbolic Z-matrix:
 Charge = -2 Multiplicity = 1

                         Standard orientation:
 ---------------------------------------------------------------------
 Center     Atomic      Atomic             Coordinates (Angstroms)
 Number     Number       Type             X           Y           Z
 ---------------------------------------------------------------------
      1          6           0       -0.525303    1.071559   -0.429019
      2          6           0        0.887101    1.172728   -0.191542
      3          6           0        1.776853    0.104310   -0.059615
      4          6           0        1.295447   -1.263460   -0.150897
      5          6           0       -0.107655   -1.379545   -0.366706
      6          6           0       -0.978811   -0.290777   -0.523211
      7          8           0       -1.287984    2.111359   -0.522530
      8          8           0        2.068017   -2.308248   -0.043102
      9         16           0       -2.702470   -0.630045   -0.901742
     10          6           0       -3.594232    0.271178    0.457789
     11          6           0       -5.074663    0.373127    0.093596
     12          6           0       -3.384743   -0.390523    1.818427
     13          6           0        3.281835    0.339087    0.185307
     14          6           0        3.665311    1.829163    0.268271
     15          6           0        4.094255   -0.295512   -0.970876
     16          6           0        3.697955   -0.331395    1.518230
     17          1           0        1.241386    2.196681   -0.113000
     18          1           0       -0.503137   -2.390186   -0.430002
     19          1           0       -3.130750    1.262365    0.443394
     20          1           0       -5.212509    0.913697   -0.847323
     21          1           0       -5.632552    0.904865    0.877732
     22          1           0       -5.529162   -0.620410   -0.013931
     23          1           0       -2.319199   -0.509676    2.026788
     24          1           0       -3.852250   -1.382024    1.852350
     25          1           0       -3.826609    0.224638    2.618425
     26          1           0        3.146808    2.335544    1.088527
     27          1           0        3.424704    2.361483   -0.657323
     28          1           0        4.746600    1.919213    0.441892
     29          1           0        3.862452    0.209859   -1.915723
     30          1           0        3.822415   -1.350217   -1.054770
     31          1           0        5.176817   -0.202917   -0.788054
     32          1           0        3.182124    0.148210    2.358235
     33          1           0        4.783432   -0.238091    1.682923
     34          1           0        3.418588   -1.386842    1.484269
 ---------------------------------------------------------------------

 SCF Done:  E(UB3LYP) =  -1055.30883840     A.U. after   18 cycles

 The electronic state is 1-A.
 Alpha  occ. eigenvalues --  -88.81265 -19.01075 -19.00317 -10.17870 -10.16601
 Alpha  occ. eigenvalues --  -10.16079 -10.16034 -10.15394 -10.14906 -10.14494
 Alpha  occ. eigenvalues --  -10.13907 -10.13039 -10.13035 -10.12704 -10.11635
 Alpha  occ. eigenvalues --  -10.11508  -7.89869  -5.86230  -5.85892  -5.85302
 Alpha  occ. eigenvalues --   -0.92592  -0.91607  -0.80135  -0.79660  -0.76547
 Alpha  occ. eigenvalues --   -0.71171  -0.67731  -0.66575  -0.65880  -0.65869
 Alpha  occ. eigenvalues --   -0.63011  -0.56558  -0.54592  -0.52695  -0.48796
 Alpha  occ. eigenvalues --   -0.44731  -0.43846  -0.43345  -0.42700  -0.41490
 Alpha  occ. eigenvalues --   -0.40616  -0.39994  -0.39023  -0.38274  -0.37741
 Alpha  occ. eigenvalues --   -0.37597  -0.35930  -0.34885  -0.34778  -0.34326
 Alpha  occ. eigenvalues --   -0.33820  -0.33463  -0.32076  -0.31387  -0.30850
 Alpha  occ. eigenvalues --   -0.30158  -0.29635  -0.29589  -0.28743  -0.22725
 Alpha  occ. eigenvalues --   -0.21416  -0.19186  -0.18910  -0.18028  -0.11192
 Alpha virt. eigenvalues --   -0.00123   0.00444   0.01506   0.01716   0.02112
 Alpha virt. eigenvalues --    0.02323   0.02814   0.03111   0.03567   0.03958
 Alpha virt. eigenvalues --    0.04134   0.04535   0.04803   0.05290   0.05758

  Beta  occ. eigenvalues --  -88.81265 -19.01075 -19.00317 -10.17870 -10.16601
  Beta  occ. eigenvalues --  -10.16079 -10.16034 -10.15394 -10.14906 -10.14494
  Beta  occ. eigenvalues --  -10.13907 -10.13039 -10.13035 -10.12704 -10.11635
  Beta  occ. eigenvalues --  -10.11508  -7.89869  -5.86230  -5.85892  -5.85302
  Beta  occ. eigenvalues --   -0.92592  -0.91607  -0.80135  -0.79660  -0.76547
  Beta  occ. eigenvalues --   -0.71171  -0.67731  -0.66575  -0.65880  -0.65869
  Beta  occ. eigenvalues --   -0.63011  -0.56558  -0.54592  -0.52695  -0.48796
  Beta  occ. eigenvalues --   -0.44731  -0.43846  -0.43345  -0.42700  -0.41490
  Beta  occ. eigenvalues --   -0.40616  -0.39994  -0.39023  -0.38274  -0.37741
  Beta  occ. eigenvalues --   -0.37597  -0.35930  -0.34885  -0.34778  -0.34326
  Beta  occ. eigenvalues --   -0.33820  -0.33463  -0.32076  -0.31387  -0.30850
  Beta  occ. eigenvalues --   -0.30158  -0.29635  -0.29589  -0.28743  -0.22725
  Beta  occ. eigenvalues --   -0.21416  -0.19186  -0.18910  -0.18028  -0.11192
  Beta virt. eigenvalues --   -0.00123   0.00444   0.01506   0.01716   0.02112
  Beta virt. eigenvalues --    0.02323   0.02814   0.03111   0.03567   0.03958
  Beta virt. eigenvalues --    0.04134   0.04535   0.04803   0.05290   0.05758

 Mulliken charges and spin densities:
               1          2
     1  C   -0.768806  -0.000000
     2  C   -0.463059   0.000000
     3  C    0.834553  -0.000000
     4  C   -0.955760  -0.000000
     5  C   -0.682873   0.000000
     6  C    1.672284  -0.000000
     7  O   -0.669364   0.000000
     8  O   -0.671634   0.000000
     9  S   -0.566452  -0.000000
    10  C    0.230915   0.000000
    11  C   -0.654413  -0.000000
    12  C   -0.711581  -0.000000
    13  C    0.671212  -0.000000
    14  C   -0.546756  -0.000000
    15  C   -0.694913   0.000000
    16  C   -0.682118   0.000000
    17  H    0.148956   0.000000
    18  H    0.140013   0.000000
    19  H    0.252992   0.000000
    20  H    0.151029   0.000000
    21  H    0.142350   0.000000
    22  H    0.136821  -0.000000
    23  H    0.151822  -0.000000
    24  H    0.148782  -0.000000
    25  H    0.133339   0.000000
    26  H    0.123667  -0.000000
    27  H    0.124859  -0.000000
    28  H    0.157662  -0.000000
    29  H    0.113813   0.000000
    30  H    0.180073  -0.000000
    31  H    0.130476  -0.000000
    32  H    0.114150  -0.000000
    33  H    0.128715  -0.000000
    34  H    0.179245  -0.000000
 Sum of Mulliken charges =  -2.00000  -0.00000

 Dipole moment (field-independent basis, Debye):
    X=             -1.8048    Y=              2.4844    Z=              4.5237  Tot=              5.4675
 Quadrupole moment (field-independent basis, Debye-Ang):
   XX=           -151.1750   YY=           -157.5949   ZZ=           -122.5826
   XY=             21.7530   XZ=             -9.0843   YZ=              3.3072

 Normal termination of Gaussian 16 at Wed Jan 24 22:55:50 2024.
