 Gaussian 16, Revision A.03,
 Gaussian 16:  ES64L-G16RevA.03 25-Dec-2016

 ----------------------------------------------------------------------
 #P UB3LYP/6-311++G(d,p) nosym opt freq SCRF=(PCM,Solvent=n,n-DiMethylF
 ormamide)
 ----------------------------------------------------------------------

 -------
 Reduced
 -------
 Symbolic Z-matrix:
 Charge = -2 Multiplicity = 1

 SCF Done:  E(UB3LYP) =  -838.693688608     A.U. after   18 cycles
 SCF Done:  E(UB3LYP) =  -838.693307057     A.U. after   15 cycles
 SCF Done:  E(UB3LYP) =  -838.696548555     A.U. after   15 cycles
 SCF Done:  E(UB3LYP) =  -838.697325698     A.U. after   12 cycles
 SCF Done:  E(UB3LYP) =  -838.697208119     A.U. after   14 cycles
 SCF Done:  E(UB3LYP) =  -838.697402424     A.U. after   12 cycles
 SCF Done:  E(UB3LYP) =  -838.697434177     A.U. after   11 cycles
 SCF Done:  E(UB3LYP) =  -838.697462537     A.U. after   12 cycles
 SCF Done:  E(UB3LYP) =  -838.697441217     A.U. after   12 cycles
 SCF Done:  E(UB3LYP) =  -838.697486552     A.U. after   12 cycles
 SCF Done:  E(UB3LYP) =  -838.697563995     A.U. after   12 cycles
 SCF Done:  E(UB3LYP) =  -838.697564096     A.U. after   11 cycles
 SCF Done:  E(UB3LYP) =  -838.695195259     A.U. after   14 cycles
 SCF Done:  E(UB3LYP) =  -838.697563850     A.U. after   10 cycles
 SCF Done:  E(UB3LYP) =  -838.697564198     A.U. after    4 cycles
 SCF Done:  E(UB3LYP) =  -838.697564215     A.U. after   10 cycles
 SCF Done:  E(UB3LYP) =  -838.697564309     A.U. after   10 cycles
 SCF Done:  E(UB3LYP) =  -838.697564269     A.U. after   11 cycles
 SCF Done:  E(UB3LYP) =  -838.697564328     A.U. after   10 cycles
 Optimization completed.
    -- Stationary point found.
 Normal termination of Gaussian 16 at Sun Feb 11 06:00:11 2024.

 ----------------------------------------------------------------------
 #P Geom=AllCheck Guess=TCheck SCRF=Check GenChk UB3LYP/6-311++G(d,p) F
 req
 ----------------------------------------------------------------------

 Structure from the checkpoint file:  "263-an.chk"
 -------
 Reduced
 -------
 Charge = -2 Multiplicity = 1

                          Input orientation:
 ---------------------------------------------------------------------
 Center     Atomic      Atomic             Coordinates (Angstroms)
 Number     Number       Type             X           Y           Z
 ---------------------------------------------------------------------
      1          6           0       -1.259233    2.824613    0.265824
      2          6           0       -2.565904    2.365504    0.235287
      3          6           0       -2.845380    1.006134   -0.003536
      4          6           0       -0.142060    1.957790    0.045340
      5          6           0       -0.456109    0.559057   -0.212195
      6          6           0       -1.812705    0.119086   -0.212468
      7          6           0        1.251581    2.409922    0.058299
      8          6           0        2.198961    1.398074   -0.219014
      9          6           0        1.880626    0.056276   -0.489469
     10          6           0        0.562253   -0.423403   -0.504424
     11          8           0        1.619146    3.636707    0.300112
     12          8           0        0.224249   -1.662958   -0.769179
     13          8           0       -1.045817    4.163036    0.511279
     14          1           0       -3.875843    0.665702   -0.008812
     15          1           0        2.683502   -0.647471   -0.703549
     16          6           0       -2.184499   -1.317484   -0.431544
     17          8           0       -2.689371   -1.760675   -1.450466
     18          8           0       -2.178530   -2.020281    0.730475
     19          6           0       -2.541988   -3.406888    0.635737
     20          1           0       -3.381052    3.063890    0.404084
     21          1           0        3.243892    1.702851   -0.223360
     22          1           0       -1.909435    4.578639    0.626180
     23          1           0       -2.460245   -3.803368    1.646089
     24          1           0       -1.856619   -3.932159   -0.031642
     25          1           0       -3.563868   -3.518738    0.269545
 ---------------------------------------------------------------------

 SCF Done:  E(UB3LYP) =  -838.697564328     A.U. after    1 cycles

 Alpha  occ. eigenvalues --  -19.14980 -19.13710 -19.09332 -19.01761 -19.01051
 Alpha  occ. eigenvalues --  -10.29123 -10.22110 -10.21046 -10.17553 -10.16898
 Alpha  occ. eigenvalues --  -10.16074 -10.15971 -10.15079 -10.15046 -10.14941
 Alpha  occ. eigenvalues --  -10.12372 -10.11956  -1.08806  -1.04726  -1.00028
 Alpha  occ. eigenvalues --   -0.92763  -0.92105  -0.83359  -0.77018  -0.74735
 Alpha  occ. eigenvalues --   -0.71311  -0.70432  -0.64743  -0.61361  -0.59721
 Alpha  occ. eigenvalues --   -0.56473  -0.54475  -0.52159  -0.48893  -0.47002
 Alpha  occ. eigenvalues --   -0.46579  -0.45967  -0.44882  -0.43130  -0.41975
 Alpha  occ. eigenvalues --   -0.40516  -0.40058  -0.39196  -0.37538  -0.36589
 Alpha  occ. eigenvalues --   -0.35512  -0.35478  -0.35278  -0.34337  -0.32240
 Alpha  occ. eigenvalues --   -0.31944  -0.31742  -0.30734  -0.29039  -0.26861
 Alpha  occ. eigenvalues --   -0.22510  -0.21907  -0.21171  -0.19898  -0.18784
 Alpha  occ. eigenvalues --   -0.11434
 Alpha virt. eigenvalues --   -0.00557   0.00062   0.00251   0.00753   0.01272
 Alpha virt. eigenvalues --    0.02266   0.02525   0.03177   0.03496   0.04098
 Alpha virt. eigenvalues --    0.04983   0.05428   0.05924   0.06715   0.07138

  Beta  occ. eigenvalues --  -19.14980 -19.13710 -19.09332 -19.01761 -19.01051
  Beta  occ. eigenvalues --  -10.29123 -10.22110 -10.21046 -10.17553 -10.16898
  Beta  occ. eigenvalues --  -10.16074 -10.15971 -10.15079 -10.15046 -10.14941
  Beta  occ. eigenvalues --  -10.12372 -10.11956  -1.08806  -1.04726  -1.00028
  Beta  occ. eigenvalues --   -0.92763  -0.92105  -0.83359  -0.77018  -0.74735
  Beta  occ. eigenvalues --   -0.71311  -0.70432  -0.64743  -0.61361  -0.59721
  Beta  occ. eigenvalues --   -0.56473  -0.54475  -0.52159  -0.48893  -0.47002
  Beta  occ. eigenvalues --   -0.46579  -0.45967  -0.44882  -0.43130  -0.41975
  Beta  occ. eigenvalues --   -0.40516  -0.40058  -0.39196  -0.37538  -0.36589
  Beta  occ. eigenvalues --   -0.35512  -0.35478  -0.35278  -0.34337  -0.32240
  Beta  occ. eigenvalues --   -0.31944  -0.31742  -0.30734  -0.29039  -0.26861
  Beta  occ. eigenvalues --   -0.22510  -0.21907  -0.21171  -0.19898  -0.18784
  Beta  occ. eigenvalues --   -0.11434
  Beta virt. eigenvalues --   -0.00557   0.00062   0.00251   0.00753   0.01272
  Beta virt. eigenvalues --    0.02266   0.02525   0.03177   0.03496   0.04098
  Beta virt. eigenvalues --    0.04983   0.05428   0.05924   0.06715   0.07138

 Mulliken charges and spin densities:
               1          2
     1  C    0.046975   0.000000
     2  C   -0.052710   0.000000
     3  C   -0.208671   0.000000
     4  C   -0.007118  -0.000000
     5  C    0.517350  -0.000000
     6  C    0.605215  -0.000000
     7  C   -0.442096  -0.000000
     8  C   -0.161211  -0.000000
     9  C   -0.281944   0.000000
    10  C   -0.572300  -0.000000
    11  O   -0.712399   0.000000
    12  O   -0.633614   0.000000
    13  O   -0.246891  -0.000000
    14  H    0.167781   0.000000
    15  H    0.134276  -0.000000
    16  C   -0.691476   0.000000
    17  O   -0.295792  -0.000000
    18  O    0.007785  -0.000000
    19  C   -0.219251   0.000000
    20  H    0.140903   0.000000
    21  H    0.130179   0.000000
    22  H    0.284543  -0.000000
    23  H    0.156485  -0.000000
    24  H    0.173090  -0.000000
    25  H    0.160892   0.000000
 Sum of Mulliken charges =  -2.00000  -0.00000

 Dipole moment (field-independent basis, Debye):
    X=             -5.8988    Y=             -8.6737    Z=              4.3510  Tot=             11.3560
 Quadrupole moment (field-independent basis, Debye-Ang):
   XX=           -121.5893   YY=           -162.7706   ZZ=           -117.0015
   XY=            -31.2073   XZ=            -10.3288   YZ=            -13.6199

  Exact polarizability: 363.671  10.442 326.277  -9.049  31.043 162.597
 Approx polarizability: 412.538   3.650 364.606  -9.061  40.493 183.935

                      1                      2                      3
                      A                      A                      A
 Frequencies --     29.8551                53.1211                97.2878
 Red. masses --      3.7366                 4.8605                 5.1069
 Frc consts  --      0.0020                 0.0081                 0.0285
 IR Inten    --     15.4764                 2.2907                 1.4327

                      4                      5                      6
                      A                      A                      A
 Frequencies --    107.1024               134.4965               163.0258
 Red. masses --      6.1897                 4.0137                 1.3231
 Frc consts  --      0.0418                 0.0428                 0.0207
 IR Inten    --     20.5033                 8.1994                 1.6534

                      7                      8                      9
                      A                      A                      A
 Frequencies --    191.2178               219.9597               236.7936
 Red. masses --      7.9719                 6.2498                 5.5405
 Frc consts  --      0.1717                 0.1782                 0.1830
 IR Inten    --      4.0490                 4.5221                 0.4181

                     10                     11                     12
                      A                      A                      A
 Frequencies --    284.6945               297.1430               322.0263
 Red. masses --      7.0976                 8.4837                 4.0556
 Frc consts  --      0.3389                 0.4413                 0.2478
 IR Inten    --     10.3429                 5.0738                33.0436

                     13                     14                     15
                      A                      A                      A
 Frequencies --    343.1875               359.8845               382.0412
 Red. masses --     11.8543                 6.8313                 8.8123
 Frc consts  --      0.8226                 0.5213                 0.7578
 IR Inten    --     51.6477                 0.4265                 4.1804

                     16                     17                     18
                      A                      A                      A
 Frequencies --    400.0916               438.7180               467.5823
 Red. masses --      1.2153                 3.9483                 9.8238
 Frc consts  --      0.1146                 0.4477                 1.2654
 IR Inten    --    106.6036                 8.3100                 1.5551

                     19                     20                     21
                      A                      A                      A
 Frequencies --    479.6846               484.6925               571.4995
 Red. masses --      5.4748                 5.3285                 3.1271
 Frc consts  --      0.7422                 0.7375                 0.6018
 IR Inten    --     10.5210                10.4455                 0.7990

                     22                     23                     24
                      A                      A                      A
 Frequencies --    575.2237               633.2296               664.3437
 Red. masses --      7.0001                 4.9684                 4.4734
 Frc consts  --      1.3647                 1.1738                 1.1633
 IR Inten    --     14.4748                 8.8490                12.8239

                     25                     26                     27
                      A                      A                      A
 Frequencies --    677.4308               698.5488               726.9608
 Red. masses --      5.8696                 2.7280                 7.9001
 Frc consts  --      1.5870                 0.7843                 2.4598
 IR Inten    --     39.3590                42.9130               229.8073

                     28                     29                     30
                      A                      A                      A
 Frequencies --    763.8486               779.0934               790.1477
 Red. masses --      6.1118                 1.8663                 4.7388
 Frc consts  --      2.1010                 0.6674                 1.7431
 IR Inten    --    136.2110                55.8933                 2.5081

                     31                     32                     33
                      A                      A                      A
 Frequencies --    796.1217               813.5644               871.3106
 Red. masses --      6.1691                 2.1398                 4.0317
 Frc consts  --      2.3037                 0.8345                 1.8034
 IR Inten    --      8.5371               104.7044                95.2096

                     34                     35                     36
                      A                      A                      A
 Frequencies --    883.0612               892.2244               941.9734
 Red. masses --      1.4869                 1.4660                 6.4185
 Frc consts  --      0.6831                 0.6876                 3.3555
 IR Inten    --     13.9979                25.0250               267.3283

                     37                     38                     39
                      A                      A                      A
 Frequencies --    993.6456              1085.9200              1107.4616
 Red. masses --      6.7508                 2.2441                 3.0958
 Frc consts  --      3.9271                 1.5592                 2.2371
 IR Inten    --     67.4582                33.4082               372.4858

                     40                     41                     42
                      A                      A                      A
 Frequencies --   1146.5066              1156.4813              1172.2419
 Red. masses --      2.2579                 1.2971                 1.7219
 Frc consts  --      1.7486                 1.0221                 1.3941
 IR Inten    --    122.0001                15.9047               148.8861

                     43                     44                     45
                      A                      A                      A
 Frequencies --   1196.0612              1201.3893              1218.3059
 Red. masses --      4.3084                 1.5180                 2.0954
 Frc consts  --      3.6314                 1.2909                 1.8324
 IR Inten    --    554.7697                34.7919               191.5623

                     46                     47                     48
                      A                      A                      A
 Frequencies --   1232.4867              1263.2681              1298.2239
 Red. masses --      2.7904                 3.2291                 4.2425
 Frc consts  --      2.4974                 3.0361                 4.2128
 IR Inten    --    261.1651               382.1095               146.5337

                     49                     50                     51
                      A                      A                      A
 Frequencies --   1300.7343              1358.9820              1374.7906
 Red. masses --      2.3332                 6.0943                 4.5802
 Frc consts  --      2.3258                 6.6313                 5.1004
 IR Inten    --    987.5015                50.3534              1232.3723

                     52                     53                     54
                      A                      A                      A
 Frequencies --   1401.8606              1454.8465              1465.4030
 Red. masses --      3.9438                 1.2661                 2.1700
 Frc consts  --      4.5664                 1.5789                 2.7455
 IR Inten    --    132.0001                 6.4241               175.6525

                     55                     56                     57
                      A                      A                      A
 Frequencies --   1473.4907              1485.1605              1519.7682
 Red. masses --      1.0545                 1.0432                 4.6177
 Frc consts  --      1.3490                 1.3558                 6.2839
 IR Inten    --     16.1954                12.4532               184.5797

                     58                     59                     60
                      A                      A                      A
 Frequencies --   1535.0167              1590.8608              1610.4021
 Red. masses --      4.5993                 6.1586                 6.2480
 Frc consts  --      6.3852                 9.1832                 9.5469
 IR Inten    --    548.0173               191.2939                19.9655

                     61                     62                     63
                      A                      A                      A
 Frequencies --   1688.2135              3041.4300              3105.5525
 Red. masses --     11.6213                 1.0296                 1.0840
 Frc consts  --     19.5146                 5.6116                 6.1597
 IR Inten    --    715.8649                65.8675               100.3394

                     64                     65                     66
                      A                      A                      A
 Frequencies --   3112.1965              3128.2755              3137.6454
 Red. masses --      1.1067                 1.0916                 1.0876
 Frc consts  --      6.3156                 6.2938                 6.3086
 IR Inten    --     36.6215               140.0839                45.2481

                     67                     68                     69
                      A                      A                      A
 Frequencies --   3143.3821              3161.7395              3787.1642
 Red. masses --      1.1053                 1.0930                 1.0658
 Frc consts  --      6.4346                 6.4376                 9.0064
 IR Inten    --     28.0093                34.1203                61.5038

 - Thermochemistry -
 -------------------
 Temperature   298.150 Kelvin.  Pressure   1.00000 Atm.
 Atom     1 has atomic number  6 and mass  12.00000

 Molecular mass:   232.03717 amu.
 Principal axes and moments of inertia in atomic units:
                           1         2         3
     Eigenvalues --  2126.125704896.542756572.71852
           X            0.45844   0.88363   0.09505
           Y            0.88684  -0.44788  -0.11368
           Z            0.05788  -0.13641   0.98896
 This molecule is an asymmetric top.
 Rotational symmetry number  1.
 Warning -- assumption of classical behavior for rotation
           may cause significant error
 Rotational temperatures (Kelvin)      0.04074     0.01769     0.01318
 Rotational constants (GHZ):           0.84884     0.36857     0.27458
 Zero-point vibrational energy     457691.8 (Joules/Mol)
                                  109.39097 (Kcal/Mol)
 Warning -- explicit consideration of  22 degrees of freedom as
           vibrations may cause significant error
 Vibrational temperatures:     42.95    76.43   139.98   154.10   193.51
          (Kelvin)            234.56   275.12   316.47   340.69   409.61
                              427.52   463.32   493.77   517.79   549.67
                              575.64   631.22   672.75   690.16   697.36
                              822.26   827.62   911.08   955.84   974.67
                             1005.06  1045.93  1099.01  1120.94  1136.85
                             1145.44  1170.54  1253.62  1270.53  1283.71
                             1355.29  1429.63  1562.40  1593.39  1649.57
                             1663.92  1686.59  1720.87  1728.53  1752.87
                             1773.27  1817.56  1867.85  1871.47  1955.27
                             1978.02  2016.96  2093.20  2108.39  2120.02
                             2136.81  2186.61  2208.55  2288.89  2317.01
                             2428.96  4375.94  4468.20  4477.76  4500.89
                             4514.37  4522.63  4549.04  5448.88

 Zero-point correction=                           0.174326 (Hartree/Particle)
 Thermal correction to Energy=                    0.188736
 Thermal correction to Enthalpy=                  0.189680
 Thermal correction to Gibbs Free Energy=         0.132570
 Sum of electronic and zero-point Energies=           -838.523239
 Sum of electronic and thermal Energies=              -838.508828
 Sum of electronic and thermal Enthalpies=            -838.507884
 Sum of electronic and thermal Free Energies=         -838.564995

                     E (Thermal)             CV                S
                      KCal/Mol        Cal/Mol-Kelvin    Cal/Mol-Kelvin
 Total                  118.434             55.245            120.200
 Electronic               0.000              0.000              0.000
 Translational            0.889              2.981             42.227
 Rotational               0.889              2.981             32.592
 Vibrational            116.656             49.283             45.380
 Vibration     1          0.594              1.984              5.839
 Vibration     2          0.596              1.976              4.698
 Vibration     3          0.603              1.951              3.508
 Vibration     4          0.606              1.944              3.321
 Vibration     5          0.613              1.919              2.881
 Vibration     6          0.623              1.888              2.514
 Vibration     7          0.634              1.852              2.216
 Vibration     8          0.647              1.811              1.959
 Vibration     9          0.656              1.784              1.827
 Vibration    10          0.683              1.702              1.505
 Vibration    11          0.691              1.679              1.433
 Vibration    12          0.707              1.631              1.300
 Vibration    13          0.722              1.589              1.197
 Vibration    14          0.734              1.555              1.123
 Vibration    15          0.752              1.508              1.031
 Vibration    16          0.766              1.470              0.962
 Vibration    17          0.799              1.386              0.831
 Vibration    18          0.825              1.322              0.744
 Vibration    19          0.836              1.295              0.711
 Vibration    20          0.841              1.284              0.698
 Vibration    21          0.928              1.093              0.501
 Vibration    22          0.932              1.085              0.494

 Optimization completed.
    -- Stationary point found.
 Normal termination of Gaussian 16 at Sun Feb 11 06:40:12 2024.
