 Q-Chem 5.4, Q-Chem, Inc., Pleasanton, CA (2021)
 Q-Chem 5.4.0 for Intel X86 EM64T Linux

User input:
--------------------------------------------------------------
$molecule
-1 2
C                 -4.8362490000      1.1305840000     -1.5752710000
C                 -3.6031500000      0.6158390000     -0.8712580000
C                 -3.7295190000     -0.2290730000      0.2546280000
C                 -2.6363450000     -0.7324670000      0.9411860000
C                 -2.9041510000     -1.6271070000      2.1310560000
C                 -1.3161810000     -0.3891320000      0.5009260000
C                 -0.1186620000     -0.8843530000      1.1780640000
O                 -0.1676550000     -1.6393950000      2.1847650000
C                  1.1818140000     -0.4640730000      0.6352640000
C                  2.3341500000     -0.9456810000      1.2942790000
C                  3.6031650000     -0.6155610000      0.8714270000
C                  4.8362620000     -1.1298920000      1.5757840000
C                  3.7295260000      0.2291980000     -0.2545340000
C                  2.6363230000      0.7322750000     -0.9413250000
C                  2.9041330000      1.6267610000     -2.1313150000
C                  1.3162100000      0.3887700000     -0.5011770000
C                  0.1186650000      0.8837910000     -1.1784730000
O                  0.1676970000      1.6384980000     -2.1854110000
C                 -1.1817940000      0.4637770000     -0.6354610000
C                 -2.3341380000      0.9456950000     -1.2942680000
H                 -5.4544880000      0.3085910000     -1.9565770000
H                 -5.4694130000      1.7186570000     -0.8995830000
H                 -4.5678900000      1.7677400000     -2.4214820000
H                 -4.7260430000     -0.4975010000      0.5993550000
H                 -2.4509310000     -2.6120160000      2.0039950000
H                 -2.4643720000     -1.2236400000      3.0450360000
H                 -3.9849370000     -1.7414260000      2.2694420000
H                  2.1745220000     -1.5896950000      2.1516230000
H                  5.4701810000     -1.7171180000      0.9000740000
H                  4.5678620000     -1.7677270000      2.4214640000
H                  5.4537220000     -0.3076990000      1.9579260000
H                  4.7260330000      0.4977990000     -0.5991780000
H                  3.9849110000      1.7414600000     -2.2694170000
H                  2.4504530000      2.6115050000     -2.0046440000
H                  2.4647860000      1.2228800000     -3.0453280000
H                 -2.1744980000      1.5897370000     -2.1515900000
$end

$rem
BASIS  =  6-311++G(d,p)
GUI  =  2
JOB_TYPE  =  SP
METHOD  =  B3LYP
SCF_CONVERGENCE  = 8
SOLVENT_METHOD = sm12
$end

$smx
solvent dimethylformamide
charges CM5
$end

--------------------------------------------------------------

             Standard Nuclear Orientation (Angstroms)
    I     Atom           X                Y                Z
 ----------------------------------------------------------------
    1      C      -4.8362490000     1.1305840000    -1.5752710000
    2      C      -3.6031500000     0.6158390000    -0.8712580000
    3      C      -3.7295190000    -0.2290730000     0.2546280000
    4      C      -2.6363450000    -0.7324670000     0.9411860000
    5      C      -2.9041510000    -1.6271070000     2.1310560000
    6      C      -1.3161810000    -0.3891320000     0.5009260000
    7      C      -0.1186620000    -0.8843530000     1.1780640000
    8      O      -0.1676550000    -1.6393950000     2.1847650000
    9      C       1.1818140000    -0.4640730000     0.6352640000
   10      C       2.3341500000    -0.9456810000     1.2942790000
   11      C       3.6031650000    -0.6155610000     0.8714270000
   12      C       4.8362620000    -1.1298920000     1.5757840000
   13      C       3.7295260000     0.2291980000    -0.2545340000
   14      C       2.6363230000     0.7322750000    -0.9413250000
   15      C       2.9041330000     1.6267610000    -2.1313150000
   16      C       1.3162100000     0.3887700000    -0.5011770000
   17      C       0.1186650000     0.8837910000    -1.1784730000
   18      O       0.1676970000     1.6384980000    -2.1854110000
   19      C      -1.1817940000     0.4637770000    -0.6354610000
   20      C      -2.3341380000     0.9456950000    -1.2942680000
   21      H      -5.4544880000     0.3085910000    -1.9565770000
   22      H      -5.4694130000     1.7186570000    -0.8995830000
   23      H      -4.5678900000     1.7677400000    -2.4214820000
   24      H      -4.7260430000    -0.4975010000     0.5993550000
   25      H      -2.4509310000    -2.6120160000     2.0039950000
   26      H      -2.4643720000    -1.2236400000     3.0450360000
   27      H      -3.9849370000    -1.7414260000     2.2694420000
   28      H       2.1745220000    -1.5896950000     2.1516230000
   29      H       5.4701810000    -1.7171180000     0.9000740000
   30      H       4.5678620000    -1.7677270000     2.4214640000
   31      H       5.4537220000    -0.3076990000     1.9579260000
   32      H       4.7260330000     0.4977990000    -0.5991780000
   33      H       3.9849110000     1.7414600000    -2.2694170000
   34      H       2.4504530000     2.6115050000    -2.0046440000
   35      H       2.4647860000     1.2228800000    -3.0453280000
   36      H      -2.1744980000     1.5897370000    -2.1515900000
 ----------------------------------------------------------------

   16    -846.3108293714      8.20e-09  Convergence criterion met
 Total energy in the final basis set =     -846.3992160074

                    Orbital Energies (a.u.)
 --------------------------------------------------------------

 Alpha MOs
 -- Occupied --
-19.0704 -19.0704 -10.2231 -10.2231 -10.1892 -10.1892 -10.1832 -10.1832
-10.1762 -10.1761 -10.1741 -10.1741 -10.1707 -10.1706 -10.1700 -10.1700
-10.1658 -10.1658 -10.1619 -10.1619  -0.9995  -0.9974  -0.8652  -0.8599
 -0.7992  -0.7837  -0.7819  -0.7569  -0.7058  -0.6976  -0.6910  -0.6860
 -0.6453  -0.6271  -0.5945  -0.5675  -0.5432  -0.5361  -0.5056  -0.4823
 -0.4660  -0.4623  -0.4408  -0.4364  -0.4253  -0.4175  -0.4157  -0.4155
 -0.4148  -0.4134  -0.4050  -0.4039  -0.3948  -0.3945  -0.3911  -0.3730
 -0.3726  -0.3675  -0.3644  -0.3452  -0.3441  -0.3434  -0.3332  -0.3279
 -0.2618  -0.2521  -0.2499  -0.2436  -0.2385  -0.2301  -0.1390

 Beta MOs
 -- Occupied --
-19.0645 -19.0645 -10.2216 -10.2216 -10.1892 -10.1892 -10.1826 -10.1826
-10.1756 -10.1756 -10.1730 -10.1730 -10.1702 -10.1702 -10.1700 -10.1700
-10.1658 -10.1658 -10.1619 -10.1619  -0.9894  -0.9870  -0.8629  -0.8588
 -0.7956  -0.7824  -0.7807  -0.7551  -0.7048  -0.6935  -0.6904  -0.6854
 -0.6405  -0.6250  -0.5926  -0.5668  -0.5408  -0.5342  -0.5043  -0.4805
 -0.4642  -0.4615  -0.4389  -0.4311  -0.4240  -0.4159  -0.4144  -0.4138
 -0.4135  -0.4118  -0.4036  -0.4004  -0.3945  -0.3897  -0.3867  -0.3721
 -0.3666  -0.3631  -0.3529  -0.3439  -0.3430  -0.3389  -0.3317  -0.3162
 -0.2466  -0.2440  -0.2405  -0.2370  -0.2332  -0.2248

          Ground-State Mulliken Net Atomic Charges

     Atom                 Charge (a.u.)    Spin (a.u.)
  --------------------------------------------------------
      1 C                     1.418761      -0.004181
      2 C                     0.826647       0.041342
      3 C                     0.493682       0.046741
      4 C                    -0.356969       0.013336
      5 C                     0.291333       0.004245
      6 C                    -0.855198       0.027555
      7 C                    -1.809567       0.064358
      8 O                    -0.264987       0.219710
      9 C                    -1.261025       0.067845
     10 C                    -0.549422       0.018918
     11 C                     0.826695       0.041319
     12 C                     1.418611      -0.004178
     13 C                     0.493792       0.046746
     14 C                    -0.356906       0.013330
     15 C                     0.291395       0.004246
     16 C                    -0.855149       0.027540
     17 C                    -1.809501       0.064349
     18 O                    -0.264962       0.219697
     19 C                    -1.261080       0.067877
     20 C                    -0.549396       0.018898
     21 H                     0.252352       0.002976
     22 H                     0.252558       0.002969
     23 H                     0.281207       0.000182
     24 H                     0.212823      -0.003255
     25 H                     0.134748      -0.000150
     26 H                     0.134816      -0.000157
     27 H                     0.254237      -0.000480
     28 H                     0.043882      -0.001931
     29 H                     0.252547       0.002966
     30 H                     0.281207       0.000182
     31 H                     0.252355       0.002977
     32 H                     0.212820      -0.003256
     33 H                     0.254242      -0.000480
     34 H                     0.134750      -0.000150
     35 H                     0.134808      -0.000157
     36 H                     0.043891      -0.001930
  --------------------------------------------------------
  Sum of atomic charges =    -1.000000

                    Cartesian Multipole Moments
 -----------------------------------------------------------------
    Charge (ESU x 10^10)
                -4.8032
    Dipole Moment (Debye)
         X      -0.0000      Y       0.0020      Z       0.0012
       Tot       0.0024
    Quadrupole Moments (Debye-Ang)
        XX    -124.2139     XY      -2.0299     YY    -135.2968
        XZ       2.7110     YZ      12.4925     ZZ    -142.5500

 Total job time:  1307.98s(wall), 9973.75s(cpu)
        *  Thank you very much for using Q-Chem.  Have a nice day.  *
