 Gaussian 16, Revision A.03,
 Gaussian 16:  ES64L-G16RevA.03 25-Dec-2016

 ----------------------------------------------------------------------
 #P UB3LYP/6-311++G(d,p) nosym opt freq SCRF=(PCM,Solvent=n,n-DiMethylF
 ormamide)
 ----------------------------------------------------------------------

 --------
 Oxidized
 --------
 Symbolic Z-matrix:
 Charge =  0 Multiplicity = 1

 SCF Done:  E(UB3LYP) =  -692.564280981     A.U. after   14 cycles
 SCF Done:  E(UB3LYP) =  -692.564345337     A.U. after   12 cycles
 SCF Done:  E(UB3LYP) =  -692.564338633     A.U. after   11 cycles
 SCF Done:  E(UB3LYP) =  -692.564269956     A.U. after   12 cycles
 SCF Done:  E(UB3LYP) =  -692.564361645     A.U. after   12 cycles
 SCF Done:  E(UB3LYP) =  -692.564366288     A.U. after   10 cycles
 SCF Done:  E(UB3LYP) =  -692.564366407     A.U. after    8 cycles
 Optimization completed.
    -- Stationary point found.
 Normal termination of Gaussian 16 at Sun Feb 11 00:00:07 2024.

 ----------------------------------------------------------------------
 #P Geom=AllCheck Guess=TCheck SCRF=Check GenChk UB3LYP/6-311++G(d,p) F
 req
 ----------------------------------------------------------------------

 Structure from the checkpoint file:  "239.chk"
 --------
 Oxidized
 --------
 Charge =  0 Multiplicity = 1

                          Input orientation:
 ---------------------------------------------------------------------
 Center     Atomic      Atomic             Coordinates (Angstroms)
 Number     Number       Type             X           Y           Z
 ---------------------------------------------------------------------
      1          6           0       -2.910794    1.314569   -0.746657
      2          6           0       -2.197366    0.083796   -0.155464
      3          6           0       -2.737816   -0.131612    1.281075
      4          6           0       -2.545207   -1.137300   -1.044303
      5          6           0       -0.676878    0.280276   -0.114764
      6          6           0       -0.076482    1.405667   -0.554534
      7          6           0        1.377866    1.651819   -0.539734
      8          8           0        1.824365    2.713255   -0.964796
      9          6           0        2.256594    0.585554   -0.001746
     10          6           0        3.641961    0.758072    0.039763
     11          6           0        4.453494   -0.251724    0.547920
     12          6           0        3.882299   -1.437467    1.016279
     13          6           0        2.502059   -1.613736    0.976546
     14          6           0        1.679258   -0.604873    0.467870
     15          6           0        0.198632   -0.817119    0.434495
     16          8           0       -0.273978   -1.865921    0.848378
     17          1           0       -2.602247    1.513026   -1.776607
     18          1           0       -3.987324    1.128780   -0.755178
     19          1           0       -2.736234    2.215461   -0.152218
     20          1           0       -2.326308   -1.029823    1.738294
     21          1           0       -3.826376   -0.230198    1.243975
     22          1           0       -2.500333    0.725943    1.917223
     23          1           0       -3.632328   -1.243500   -1.098850
     24          1           0       -2.128767   -2.060551   -0.645084
     25          1           0       -2.170677   -0.995076   -2.062135
     26          1           0       -0.648556    2.229696   -0.960572
     27          1           0        4.068046    1.683352   -0.327399
     28          1           0        5.528290   -0.117762    0.580151
     29          1           0        4.514528   -2.223596    1.412037
     30          1           0        2.050278   -2.529008    1.336946
 ---------------------------------------------------------------------

 SCF Done:  E(UB3LYP) =  -692.564366407     A.U. after    1 cycles

 Alpha  occ. eigenvalues --  -19.13656 -19.13474 -10.28758 -10.28281 -10.21986
 Alpha  occ. eigenvalues --  -10.20961 -10.20801 -10.20457 -10.20324 -10.19979
 Alpha  occ. eigenvalues --  -10.19948 -10.19904 -10.19874 -10.16288 -10.16063
 Alpha  occ. eigenvalues --  -10.16061  -1.07012  -1.06396  -0.89198  -0.85769
 Alpha  occ. eigenvalues --   -0.81134  -0.77951  -0.76882  -0.70226  -0.69074
 Alpha  occ. eigenvalues --   -0.68941  -0.65171  -0.64288  -0.59419  -0.56558
 Alpha  occ. eigenvalues --   -0.54230  -0.52645  -0.50019  -0.48821  -0.46478
 Alpha  occ. eigenvalues --   -0.46219  -0.45778  -0.45299  -0.44649  -0.44334
 Alpha  occ. eigenvalues --   -0.43715  -0.42291  -0.41735  -0.39352  -0.38471
 Alpha  occ. eigenvalues --   -0.38421  -0.37938  -0.37125  -0.36891  -0.35844
 Alpha  occ. eigenvalues --   -0.34418  -0.33900  -0.29875  -0.28643  -0.28040
 Alpha  occ. eigenvalues --   -0.27974  -0.27427
 Alpha virt. eigenvalues --   -0.12702  -0.05897  -0.03336  -0.00810   0.00103
 Alpha virt. eigenvalues --    0.01017   0.01717   0.01808   0.02159   0.02252
 Alpha virt. eigenvalues --    0.03396   0.03564   0.03870   0.04226   0.04826

  Beta  occ. eigenvalues --  -19.13656 -19.13474 -10.28758 -10.28281 -10.21986
  Beta  occ. eigenvalues --  -10.20961 -10.20801 -10.20457 -10.20324 -10.19979
  Beta  occ. eigenvalues --  -10.19948 -10.19904 -10.19874 -10.16288 -10.16063
  Beta  occ. eigenvalues --  -10.16061  -1.07012  -1.06396  -0.89198  -0.85769
  Beta  occ. eigenvalues --   -0.81134  -0.77951  -0.76882  -0.70226  -0.69074
  Beta  occ. eigenvalues --   -0.68941  -0.65171  -0.64288  -0.59419  -0.56558
  Beta  occ. eigenvalues --   -0.54230  -0.52645  -0.50019  -0.48821  -0.46478
  Beta  occ. eigenvalues --   -0.46219  -0.45778  -0.45299  -0.44649  -0.44334
  Beta  occ. eigenvalues --   -0.43715  -0.42291  -0.41735  -0.39352  -0.38471
  Beta  occ. eigenvalues --   -0.38421  -0.37938  -0.37125  -0.36891  -0.35844
  Beta  occ. eigenvalues --   -0.34418  -0.33900  -0.29875  -0.28643  -0.28040
  Beta  occ. eigenvalues --   -0.27974  -0.27427
  Beta virt. eigenvalues --   -0.12702  -0.05897  -0.03336  -0.00810   0.00103
  Beta virt. eigenvalues --    0.01017   0.01717   0.01808   0.02159   0.02252
  Beta virt. eigenvalues --    0.03396   0.03564   0.03870   0.04226   0.04826

 Mulliken charges and spin densities:
               1          2
     1  C   -0.481924  -0.000000
     2  C    0.644775   0.000000
     3  C   -0.696718  -0.000000
     4  C   -0.695674  -0.000000
     5  C    0.904570   0.000000
     6  C   -0.222480  -0.000000
     7  C   -0.735552  -0.000000
     8  O   -0.297133  -0.000000
     9  C    0.657636   0.000000
    10  C   -0.099978  -0.000000
    11  C   -0.393687   0.000000
    12  C   -0.372524  -0.000000
    13  C    0.206383  -0.000000
    14  C    0.356059   0.000000
    15  C   -1.040646   0.000000
    16  O   -0.226275  -0.000000
    17  H    0.142529   0.000000
    18  H    0.185528   0.000000
    19  H    0.142615   0.000000
    20  H    0.182992  -0.000000
    21  H    0.168512   0.000000
    22  H    0.148357   0.000000
    23  H    0.168692   0.000000
    24  H    0.182897  -0.000000
    25  H    0.148436   0.000000
    26  H    0.236071   0.000000
    27  H    0.180103   0.000000
    28  H    0.210347   0.000000
    29  H    0.207709  -0.000000
    30  H    0.188382   0.000000
 Sum of Mulliken charges =  -0.00000   0.00000

 Dipole moment (field-independent basis, Debye):
    X=              0.4673    Y=             -1.3515    Z=              0.6372  Tot=              1.5655
 Quadrupole moment (field-independent basis, Debye-Ang):
   XX=            -76.6767   YY=           -107.2455   ZZ=            -97.6300
   XY=            -11.7669   XZ=              6.8354   YZ=              3.4864

  Exact polarizability: 289.811  15.451 256.733   5.694 -48.420 163.949
 Approx polarizability: 311.537  35.648 326.296  -2.800 -69.010 190.582

                      1                      2                      3
                      A                      A                      A
 Frequencies --     29.9190                67.8119               114.3512
 Red. masses --      4.9713                 3.4488                 4.9779
 Frc consts  --      0.0026                 0.0093                 0.0384
 IR Inten    --      6.8620                 0.1624                 0.8027

                      4                      5                      6
                      A                      A                      A
 Frequencies --    134.6567               175.3638               188.2760
 Red. masses --      3.9965                 3.9871                 4.4598
 Frc consts  --      0.0427                 0.0722                 0.0931
 IR Inten    --      8.4232                 1.0941                 0.0015

                      7                      8                      9
                      A                      A                      A
 Frequencies --    207.3174               244.1314               265.2904
 Red. masses --      1.3024                 1.1019                 3.3490
 Frc consts  --      0.0330                 0.0387                 0.1389
 IR Inten    --      1.1997                 0.1485                 0.1994

                     10                     11                     12
                      A                      A                      A
 Frequencies --    269.5175               284.1377               320.1291
 Red. masses --      2.4158                 5.5379                 2.8729
 Frc consts  --      0.1034                 0.2634                 0.1735
 IR Inten    --      0.0103                 1.3725                 0.2733

                     13                     14                     15
                      A                      A                      A
 Frequencies --    336.0871               378.6880               384.9855
 Red. masses --      1.0675                 2.2711                 9.2840
 Frc consts  --      0.0710                 0.1919                 0.8107
 IR Inten    --      0.1057                 0.2536                28.5599

                     16                     17                     18
                      A                      A                      A
 Frequencies --    413.9083               415.5735               461.0692
 Red. masses --      3.1242                 2.8725                 4.2662
 Frc consts  --      0.3154                 0.2923                 0.5343
 IR Inten    --      0.5084                 2.1985                 0.2566

                     19                     20                     21
                      A                      A                      A
 Frequencies --    465.1012               469.8801               525.9316
 Red. masses --      6.6333                 5.9974                 3.6670
 Frc consts  --      0.8454                 0.7802                 0.5976
 IR Inten    --     11.2604                 3.2791                 1.7404

                     22                     23                     24
                      A                      A                      A
 Frequencies --    535.9531               631.8358               683.1840
 Red. masses --      3.7473                 5.4230                 5.7867
 Frc consts  --      0.6342                 1.2756                 1.5913
 IR Inten    --      9.9759                17.2954                 0.2865

                     25                     26                     27
                      A                      A                      A
 Frequencies --    685.2030               719.1881               732.8327
 Red. masses --      3.7677                 6.2603                 2.8289
 Frc consts  --      1.0422                 1.9078                 0.8951
 IR Inten    --     12.0683                 4.7249                66.8791

                     28                     29                     30
                      A                      A                      A
 Frequencies --    789.1418               791.6059               818.7211
 Red. masses --      3.9854                 1.6916                 4.8017
 Frc consts  --      1.4623                 0.6245                 1.8964
 IR Inten    --      0.9795                52.5167                 3.0596

                     31                     32                     33
                      A                      A                      A
 Frequencies --    824.0805               900.6227               914.5164
 Red. masses --      4.3719                 3.3767                 1.4048
 Frc consts  --      1.7493                 1.6137                 0.6922
 IR Inten    --      0.3852                94.1453                 0.7368

                     34                     35                     36
                      A                      A                      A
 Frequencies --    923.6985               937.5933               938.8622
 Red. masses --      1.8186                 1.7428                 1.5175
 Frc consts  --      0.9142                 0.9027                 0.7881
 IR Inten    --      8.1551                 7.7044                20.1940

                     37                     38                     39
                      A                      A                      A
 Frequencies --    964.1081              1000.9762              1023.2774
 Red. masses --      1.1968                 1.3899                 1.3331
 Frc consts  --      0.6554                 0.8205                 0.8224
 IR Inten    --      0.0665                 1.0390                 0.0025

                     40                     41                     42
                      A                      A                      A
 Frequencies --   1044.2748              1046.3034              1046.4104
 Red. masses --      1.4867                 1.4352                 2.4782
 Frc consts  --      0.9552                 0.9257                 1.5988
 IR Inten    --     12.3892                 1.1139                 9.5301

                     43                     44                     45
                      A                      A                      A
 Frequencies --   1094.0944              1104.0542              1142.5197
 Red. masses --      2.9249                 2.8652                 1.7944
 Frc consts  --      2.0629                 2.0577                 1.3800
 IR Inten    --     15.4584                10.5568                55.3302

                     46                     47                     48
                      A                      A                      A
 Frequencies --   1180.0663              1213.1588              1219.0568
 Red. masses --      1.1226                 2.6946                 2.3789
 Frc consts  --      0.9211                 2.3365                 2.0829
 IR Inten    --     11.1533                 5.3956                58.3848

                     49                     50                     51
                      A                      A                      A
 Frequencies --   1238.6549              1265.4531              1277.6585
 Red. masses --      2.3025                 2.6358                 2.2560
 Frc consts  --      2.0814                 2.4869                 2.1698
 IR Inten    --     16.6778               290.7925                88.0615

                     52                     53                     54
                      A                      A                      A
 Frequencies --   1324.1265              1352.5063              1361.6463
 Red. masses --      2.9290                 2.2433                 5.3558
 Frc consts  --      3.0257                 2.4178                 5.8506
 IR Inten    --    226.5135                30.2717                52.4267

                     55                     56                     57
                      A                      A                      A
 Frequencies --   1387.0577              1394.2974              1421.5773
 Red. masses --      1.1952                 1.2336                 1.2179
 Frc consts  --      1.3548                 1.4130                 1.4501
 IR Inten    --      9.8712                20.0267                 6.0319

                     58                     59                     60
                      A                      A                      A
 Frequencies --   1474.9513              1481.2009              1489.3202
 Red. masses --      1.0462                 2.3330                 1.0451
 Frc consts  --      1.3410                 3.0158                 1.3658
 IR Inten    --      0.0167                 3.3567                 0.3220

                     61                     62                     63
                      A                      A                      A
 Frequencies --   1489.8723              1492.0212              1503.2284
 Red. masses --      1.0491                 1.0587                 1.0486
 Frc consts  --      1.3721                 1.3886                 1.3961
 IR Inten    --      0.9065                23.1402                13.2766

                     64                     65                     66
                      A                      A                      A
 Frequencies --   1505.4015              1518.3697              1611.5641
 Red. masses --      2.6450                 1.0618                 6.6866
 Frc consts  --      3.5317                 1.4423                10.2318
 IR Inten    --      8.8630                28.7865                 8.3464

                     67                     68                     69
                      A                      A                      A
 Frequencies --   1620.8477              1645.6843              1687.4420
 Red. masses --      5.9253                 9.0551                10.1118
 Frc consts  --      9.1716                14.4489                16.9643
 IR Inten    --    260.1963               118.4669               714.9970

                     70                     71                     72
                      A                      A                      A
 Frequencies --   1699.6184              3023.9920              3026.3664
 Red. masses --     11.5034                 1.0356                 1.0378
 Frc consts  --     19.5785                 5.5796                 5.6001
 IR Inten    --    251.4760                26.1488                64.7896

                     73                     74                     75
                      A                      A                      A
 Frequencies --   3031.9871              3084.1215              3084.7930
 Red. masses --      1.0385                 1.1025                 1.1020
 Frc consts  --      5.6247                 6.1785                 6.1785
 IR Inten    --     44.5790                16.1672                38.3822

                     76                     77                     78
                      A                      A                      A
 Frequencies --   3090.8705              3095.8577              3133.2928
 Red. masses --      1.1026                 1.1009                 1.0985
 Frc consts  --      6.2062                 6.2169                 6.3541
 IR Inten    --     56.7008                83.2115                 0.1649

                     79                     80                     81
                      A                      A                      A
 Frequencies --   3135.3895              3178.5890              3190.6386
 Red. masses --      1.0979                 1.0874                 1.0911
 Frc consts  --      6.3590                 6.4731                 6.5446
 IR Inten    --     38.9230                 3.1646                 9.5392

                     82                     83                     84
                      A                      A                      A
 Frequencies --   3201.9278              3203.7264              3206.0902
 Red. masses --      1.0933                 1.0902                 1.0950
 Frc consts  --      6.6041                 6.5925                 6.6318
 IR Inten    --      6.2073                 4.5898                14.4577

 - Thermochemistry -
 -------------------
 Temperature   298.150 Kelvin.  Pressure   1.00000 Atm.
 Atom     1 has atomic number  6 and mass  12.00000

 Molecular mass:   214.09938 amu.
 Principal axes and moments of inertia in atomic units:
                           1         2         3
     Eigenvalues --  1786.007894678.536586060.51554
           X            0.99491   0.06554  -0.07659
           Y           -0.02979   0.91703   0.39771
           Z            0.09630  -0.39340   0.91431
 This molecule is an asymmetric top.
 Rotational symmetry number  1.
 Warning -- assumption of classical behavior for rotation
           may cause significant error
 Rotational temperatures (Kelvin)      0.04850     0.01851     0.01429
 Rotational constants (GHZ):           1.01049     0.38575     0.29779
 Zero-point vibrational energy     639928.0 (Joules/Mol)
                                  152.94647 (Kcal/Mol)
 Warning -- explicit consideration of  22 degrees of freedom as
           vibrations may cause significant error
 Vibrational temperatures:     43.05    97.57   164.53   193.74   252.31
          (Kelvin)            270.89   298.28   351.25   381.69   387.78
                              408.81   460.59   483.55   544.85   553.91
                              595.52   597.92   663.38   669.18   676.05
                              756.70   771.12   909.07   982.95   985.85
                             1034.75  1054.38  1135.40  1138.94  1177.96
                             1185.67  1295.80  1315.79  1329.00  1348.99
                             1350.81  1387.14  1440.18  1472.27  1502.48
                             1505.40  1505.55  1574.16  1588.49  1643.83
                             1697.85  1745.46  1753.95  1782.15  1820.70
                             1838.27  1905.12  1945.95  1959.11  1995.67
                             2006.08  2045.33  2122.13  2131.12  2142.80
                             2143.59  2146.69  2162.81  2165.94  2184.60
                             2318.68  2332.04  2367.77  2427.85  2445.37
                             4350.85  4354.27  4362.35  4437.36  4438.33
                             4447.07  4454.25  4508.11  4511.13  4573.28
                             4590.62  4606.86  4609.45  4612.85

 Zero-point correction=                           0.243736 (Hartree/Particle)
 Thermal correction to Energy=                    0.257998
 Thermal correction to Enthalpy=                  0.258942
 Thermal correction to Gibbs Free Energy=         0.203036
 Sum of electronic and zero-point Energies=           -692.320631
 Sum of electronic and thermal Energies=              -692.306369
 Sum of electronic and thermal Enthalpies=            -692.305424
 Sum of electronic and thermal Free Energies=         -692.361330

                     E (Thermal)             CV                S
                      KCal/Mol        Cal/Mol-Kelvin    Cal/Mol-Kelvin
 Total                  161.896             56.494            117.664
 Electronic               0.000              0.000              0.000
 Translational            0.889              2.981             41.987
 Rotational               0.889              2.981             32.293
 Vibrational            160.119             50.533             43.383
 Vibration     1          0.594              1.984              5.835
 Vibration     2          0.598              1.970              4.216
 Vibration     3          0.607              1.938              3.194
 Vibration     4          0.613              1.919              2.878
 Vibration     5          0.627              1.873              2.377
 Vibration     6          0.633              1.856              2.245
 Vibration     7          0.641              1.829              2.067
 Vibration     8          0.659              1.772              1.773
 Vibration     9          0.671              1.737              1.627
 Vibration    10          0.674              1.729              1.599
 Vibration    11          0.683              1.703              1.509
 Vibration    12          0.706              1.635              1.309
 Vibration    13          0.717              1.603              1.231
 Vibration    14          0.749              1.516              1.044
 Vibration    15          0.754              1.502              1.020
 Vibration    16          0.777              1.440              0.913
 Vibration    17          0.779              1.436              0.907
 Vibration    18          0.819              1.336              0.763
 Vibration    19          0.823              1.327              0.751
 Vibration    20          0.827              1.317              0.738
 Vibration    21          0.881              1.193              0.596
 Vibration    22          0.891              1.171              0.574

                           ! Non-Optimized Parameters !
 Normal termination of Gaussian 16 at Sun Feb 11 00:35:32 2024.
