 Q-Chem 5.4, Q-Chem, Inc., Pleasanton, CA (2021)
 Q-Chem 5.4.0 for Intel X86 EM64T Linux

User input:
--------------------------------------------------------------
$molecule
-1 2
C                  3.8911310000      1.2849040000     -1.3017110000
N                  2.5084490000      1.0580270000     -0.9925200000
C                  2.0485900000     -0.0162870000     -0.2777520000
C                  2.9240310000     -1.0018720000      0.1968150000
C                  2.4385830000     -2.0996530000      0.9253670000
C                  1.0924360000     -2.2341800000      1.1911890000
C                  0.1740130000     -1.2645100000      0.7338130000
C                 -1.2435450000     -1.4670950000      1.0519070000
O                 -1.6408590000     -2.4643540000      1.7047510000
C                 -2.1738610000     -0.4493100000      0.5682110000
C                 -3.5537880000     -0.5809180000      0.8374290000
C                 -4.4607990000      0.3618160000      0.3963420000
C                 -4.0097620000      1.4810670000     -0.3378350000
C                 -2.6644600000      1.6289830000     -0.6120080000
C                 -1.7188950000      0.6765450000     -0.1706620000
C                 -0.3050720000      0.8751320000     -0.4855880000
O                  0.0518140000      1.9028310000     -1.1495670000
C                  0.6311630000     -0.1320360000     -0.0112070000
H                  4.3262340000      0.4764980000     -1.9099440000
H                  4.5158680000      1.3849960000     -0.4000580000
H                  3.9736380000      2.2130610000     -1.8711780000
H                  1.7704430000      1.7098740000     -1.2733200000
H                  3.9858710000     -0.9181040000     -0.0002220000
H                  3.1409610000     -2.8489160000      1.2806880000
H                  0.6986010000     -3.0729340000      1.7506760000
H                 -3.8685860000     -1.4503740000      1.4030700000
H                 -5.5188110000      0.2448060000      0.6124030000
H                 -4.7213590000      2.2241470000     -0.6860040000
H                 -2.2920300000      2.4778540000     -1.1730850000
$end

$rem
BASIS  =  6-311++G(d,p)
GUI  =  2
JOB_TYPE  =  SP
METHOD  =  B3LYP
SCF_CONVERGENCE  = 8
SOLVENT_METHOD = sm12
$end

$smx
solvent dimethylformamide
charges CM5
$end

--------------------------------------------------------------

             Standard Nuclear Orientation (Angstroms)
    I     Atom           X                Y                Z
 ----------------------------------------------------------------
    1      C       3.8911310000     1.2849040000    -1.3017110000
    2      N       2.5084490000     1.0580270000    -0.9925200000
    3      C       2.0485900000    -0.0162870000    -0.2777520000
    4      C       2.9240310000    -1.0018720000     0.1968150000
    5      C       2.4385830000    -2.0996530000     0.9253670000
    6      C       1.0924360000    -2.2341800000     1.1911890000
    7      C       0.1740130000    -1.2645100000     0.7338130000
    8      C      -1.2435450000    -1.4670950000     1.0519070000
    9      O      -1.6408590000    -2.4643540000     1.7047510000
   10      C      -2.1738610000    -0.4493100000     0.5682110000
   11      C      -3.5537880000    -0.5809180000     0.8374290000
   12      C      -4.4607990000     0.3618160000     0.3963420000
   13      C      -4.0097620000     1.4810670000    -0.3378350000
   14      C      -2.6644600000     1.6289830000    -0.6120080000
   15      C      -1.7188950000     0.6765450000    -0.1706620000
   16      C      -0.3050720000     0.8751320000    -0.4855880000
   17      O       0.0518140000     1.9028310000    -1.1495670000
   18      C       0.6311630000    -0.1320360000    -0.0112070000
   19      H       4.3262340000     0.4764980000    -1.9099440000
   20      H       4.5158680000     1.3849960000    -0.4000580000
   21      H       3.9736380000     2.2130610000    -1.8711780000
   22      H       1.7704430000     1.7098740000    -1.2733200000
   23      H       3.9858710000    -0.9181040000    -0.0002220000
   24      H       3.1409610000    -2.8489160000     1.2806880000
   25      H       0.6986010000    -3.0729340000     1.7506760000
   26      H      -3.8685860000    -1.4503740000     1.4030700000
   27      H      -5.5188110000     0.2448060000     0.6124030000
   28      H      -4.7213590000     2.2241470000    -0.6860040000
   29      H      -2.2920300000     2.4778540000    -1.1730850000
 ----------------------------------------------------------------

   18    -783.7098853054      4.24e-09  Convergence criterion met
 Total energy in the final basis set =     -783.8018049724

                    Orbital Energies (a.u.)
 --------------------------------------------------------------

 Alpha MOs
 -- Occupied --
-19.0835 -19.0768 -14.3190 -10.2328 -10.2258 -10.2247 -10.2015 -10.1828
-10.1822 -10.1809 -10.1808 -10.1806 -10.1793 -10.1791 -10.1789 -10.1787
-10.1707 -10.1641  -1.0086  -1.0026  -0.9374  -0.8657  -0.8480  -0.7913
 -0.7586  -0.7531  -0.7460  -0.6901  -0.6723  -0.6394  -0.6268  -0.5893
 -0.5701  -0.5403  -0.5325  -0.5074  -0.4812  -0.4783  -0.4663  -0.4537
 -0.4464  -0.4461  -0.4324  -0.4245  -0.4188  -0.4132  -0.4031  -0.3908
 -0.3834  -0.3766  -0.3755  -0.3646  -0.3532  -0.3468  -0.3430  -0.3032
 -0.2736  -0.2641  -0.2572  -0.2504  -0.2397  -0.2100  -0.1452

 Beta MOs
 -- Occupied --
-19.0783 -19.0709 -14.3189 -10.2311 -10.2248 -10.2243 -10.2015 -10.1824
-10.1817 -10.1808 -10.1803 -10.1798 -10.1790 -10.1789 -10.1783 -10.1781
-10.1696 -10.1638  -0.9998  -0.9924  -0.9367  -0.8634  -0.8464  -0.7874
 -0.7565  -0.7519  -0.7439  -0.6889  -0.6655  -0.6378  -0.6246  -0.5883
 -0.5682  -0.5381  -0.5313  -0.5063  -0.4793  -0.4760  -0.4651  -0.4530
 -0.4451  -0.4447  -0.4320  -0.4164  -0.4139  -0.4092  -0.4008  -0.3895
 -0.3757  -0.3731  -0.3639  -0.3610  -0.3518  -0.3414  -0.3353  -0.2981
 -0.2573  -0.2526  -0.2514  -0.2457  -0.2345  -0.2029

          Ground-State Mulliken Net Atomic Charges

     Atom                 Charge (a.u.)    Spin (a.u.)
  --------------------------------------------------------
      1 C                     0.132452      -0.001345
      2 N                    -0.333521       0.007129
      3 C                    -0.534589       0.007966
      4 C                     1.934124       0.083195
      5 C                     0.608570       0.039221
      6 C                    -0.617362       0.052578
      7 C                    -0.855186       0.064747
      8 C                    -2.327806       0.076581
      9 O                    -0.297987       0.221379
     10 C                    -1.314070       0.033087
     11 C                     0.061147       0.027558
     12 C                     1.294831       0.032397
     13 C                     1.012189       0.043055
     14 C                     0.305453       0.023896
     15 C                    -0.510806       0.022362
     16 C                    -1.345381       0.092097
     17 O                    -0.270350       0.194785
     18 C                    -0.855437       0.001576
     19 H                     0.214190       0.000763
     20 H                     0.216177       0.000768
     21 H                     0.298712      -0.000092
     22 H                     0.344377      -0.002796
     23 H                     0.318381      -0.005916
     24 H                     0.349838      -0.002723
     25 H                     0.111100      -0.003666
     26 H                     0.151318      -0.001969
     27 H                     0.362916      -0.002587
     28 H                     0.365351      -0.003308
     29 H                     0.181370      -0.000735
  --------------------------------------------------------
  Sum of atomic charges =    -1.000000

                    Cartesian Multipole Moments
 -----------------------------------------------------------------
    Charge (ESU x 10^10)
                -4.8032
    Dipole Moment (Debye)
         X       4.3249      Y       3.3990      Z      -2.6096
       Tot       6.0884
    Quadrupole Moments (Debye-Ang)
        XX    -112.8360     XY      -4.3930     YY    -129.2690
        XZ       2.4969     YZ       9.6189     ZZ    -120.4482

 Total job time:  855.13s(wall), 6492.86s(cpu)
        *  Thank you very much for using Q-Chem.  Have a nice day.  *
