 Q-Chem 5.4, Q-Chem, Inc., Pleasanton, CA (2021)
 Q-Chem 5.4.0 for Intel X86 EM64T Linux

User input:
--------------------------------------------------------------
$molecule
-2 1
C                  6.8763690000     -1.6273040000     -0.2414080000
C                  7.4606330000     -0.6711420000     -1.0496840000
C                  6.6284040000      0.3430880000     -1.6301670000
C                  5.2767710000      0.3371920000     -1.3438790000
C                  4.6596270000     -0.6301060000     -0.5143170000
C                  5.4933330000     -1.6537820000      0.0604220000
C                  4.9698270000     -2.6962060000      0.9263980000
C                  3.5388790000     -2.6244370000      1.1668310000
C                  2.7051020000     -1.6010350000      0.5917120000
C                  3.2286000000     -0.5586330000     -0.2742950000
C                  2.9219350000     -3.5911240000      1.9972260000
C                  1.5687070000     -3.6027200000      2.2757250000
C                  0.7396840000     -2.5770430000      1.7109770000
C                  1.3220790000     -1.6274250000      0.8936980000
O                  5.7095240000     -3.6043560000      1.4363280000
O                  2.4888700000      0.3494100000     -0.7843700000
C                  0.9789600000     -4.6476590000      3.1961860000
C                 -0.7505410000     -2.5650360000      1.9678990000
C                  8.9407680000     -0.7192850000     -1.3559800000
C                  7.2286540000      1.4252400000     -2.4994260000
H                  7.4785290000     -2.4170540000      0.1989480000
H                  4.6244420000      1.1019970000     -1.7558980000
H                  3.5772420000     -4.3453570000      2.4237650000
H                  0.7169470000     -0.8482330000      0.4388460000
H                  1.7423190000     -5.3709570000      3.4969630000
H                  0.1598440000     -5.2044530000      2.7276320000
H                  0.5587040000     -4.2085430000      4.1181090000
H                 -0.9912510000     -2.5362000000      3.0364140000
H                 -1.2546020000     -3.4623250000      1.5676490000
H                 -1.2151050000     -1.6926490000      1.4994540000
H                  9.4236000000     -1.5262750000     -0.7974280000
H                  9.4524140000      0.2149680000     -1.0992760000
H                  9.1441840000     -0.8918520000     -2.4275360000
H                  7.7787000000      1.0183750000     -3.3552240000
H                  7.9480040000      2.0571050000     -1.9492480000
H                  6.4471420000      2.0834020000     -2.8898170000
$end
$rem
MAX_SCF_CYCLES=200
BASIS  =  6-311++G(d,p)
GUI  =  2
JOB_TYPE  =  SP
METHOD  =  B3LYP
SOLVENT_METHOD = COSMO
$end
$solvent
dielectric 37.219
opticaldielectric 1.43
$end

--------------------------------------------------------------

             Standard Nuclear Orientation (Angstroms)
    I     Atom           X                Y                Z
 ----------------------------------------------------------------
    1      C       2.4751476989    -1.3813792832    -0.0006364149
    2      C       3.6866985536    -0.7172758861     0.0049750493
    3      C       3.6867288540     0.7173432908    -0.0048193946
    4      C       2.4751985537     1.3814816154    -0.0001326455
    5      C       1.2233397891     0.7200024581    -0.0005880975
    6      C       1.2233374686    -0.7198944703    -0.0006194633
    7      C       0.0000108058    -1.5035350656    -0.0003874868
    8      C      -1.2233341849    -0.7199548510    -0.0001110076
    9      C      -1.2233255420     0.7199400784    -0.0005534277
   10      C       0.0000000127     1.5035820397    -0.0008242102
   11      C      -2.4751672583    -1.3814479439     0.0004853748
   12      C      -3.6867127796    -0.7173292339    -0.0046106123
   13      C      -3.6866915738     0.7172906520     0.0053155519
   14      C      -2.4751609835     1.3814176550    -0.0003588218
   15      O       0.0000473569    -2.7810000073    -0.0003605975
   16      O      -0.0000398167     2.7810478994    -0.0010342699
   17      C      -4.9885844755    -1.4861524332     0.0268292651
   18      C      -4.9885599772     1.4861246411    -0.0256132406
   19      C       4.9884853305    -1.4862490197    -0.0261073221
   20      C       4.9886131746     1.4861024869     0.0279027176
   21      H       2.4437443481    -2.4672639063    -0.0097769657
   22      H       2.4438152485     2.4673692713     0.0089533659
   23      H      -2.4437731927    -2.4673399439     0.0096055694
   24      H      -2.4437688931     2.4673035211    -0.0093962257
   25      H      -4.8017463479    -2.5624147074    -0.0288016140
   26      H      -5.6521003079    -1.2206826562    -0.8037042793
   27      H      -5.5668015656    -1.2986461079     0.9487220787
   28      H      -5.6524183135     1.2194794169     0.8042599774
   29      H      -5.5663815418     1.2998439626    -0.9480160008
   30      H      -4.8017455061     2.5623008474     0.0315237190
   31      H       4.8014845104    -2.5624782488     0.0295817850
   32      H       5.6519223674    -1.2207823502     0.8044864333
   33      H       5.5668888024    -1.2989781434    -0.9479363421
   34      H       5.6534228918     1.2199795277    -0.8013659708
   35      H       5.5653223916     1.2991860405     0.9508774483
   36      H       4.8019339852     2.5623399584    -0.0287289216
 ----------------------------------------------------------------

   18    -846.2321772803      8.57e-06  Convergence criterion met
 Total energy in the final basis set =     -846.2321772803
    6    -846.5044049758      3.79e-06  Convergence criterion met
 Total energy in the final basis set =     -846.5044049758

                    Orbital Energies (a.u.)
 --------------------------------------------------------------

 Alpha MOs
 -- Occupied --
-19.0234 -19.0234 -10.1726 -10.1726 -10.1542 -10.1542 -10.1538 -10.1538
-10.1507 -10.1507 -10.1507 -10.1507 -10.1397 -10.1397 -10.1397 -10.1397
-10.1319 -10.1319 -10.1315 -10.1315  -0.9463  -0.9433  -0.8333  -0.8292
 -0.7716  -0.7424  -0.7407  -0.7405  -0.6843  -0.6786  -0.6771  -0.6426
 -0.6115  -0.5843  -0.5595  -0.5576  -0.5220  -0.4811  -0.4764  -0.4545
 -0.4301  -0.4214  -0.4173  -0.4162  -0.4150  -0.3990  -0.3917  -0.3839
 -0.3830  -0.3825  -0.3807  -0.3749  -0.3713  -0.3691  -0.3682  -0.3513
 -0.3478  -0.3377  -0.3295  -0.3214  -0.3107  -0.3094  -0.2967  -0.2886
 -0.2285  -0.2213  -0.2210  -0.2068  -0.2039  -0.1978  -0.1028

          Ground-State Mulliken Net Atomic Charges

     Atom                 Charge (a.u.)
  ----------------------------------------
      1 C                    -0.296651
      2 C                     0.302201
      3 C                     0.301762
      4 C                    -0.293704
      5 C                     0.105551
      6 C                     0.106638
      7 C                    -0.639816
      8 C                     0.105214
      9 C                     0.104277
     10 C                    -0.637336
     11 C                    -0.294235
     12 C                     0.301687
     13 C                     0.299816
     14 C                    -0.293557
     15 O                    -0.692198
     16 O                    -0.692263
     17 C                    -0.541659
     18 C                    -0.541207
     19 C                    -0.542856
     20 C                    -0.540719
     21 H                     0.118621
     22 H                     0.118646
     23 H                     0.118536
     24 H                     0.118578
     25 H                     0.163614
     26 H                     0.150782
     27 H                     0.161747
     28 H                     0.150638
     29 H                     0.161862
     30 H                     0.163646
     31 H                     0.163659
     32 H                     0.150737
     33 H                     0.161782
     34 H                     0.150673
     35 H                     0.161868
     36 H                     0.163650
  ----------------------------------------
  Sum of atomic charges =    -2.000016

                    Cartesian Multipole Moments
 -----------------------------------------------------------------
    Charge (ESU x 10^10)
                -9.6065
    Dipole Moment (Debye)
         X      -0.0012      Y       0.0032      Z       0.0075
       Tot       0.0082
    Quadrupole Moments (Debye-Ang)
        XX    -134.3459     XY      -0.0001     YY    -183.9117
        XZ       0.0038     YZ       0.0087     ZZ    -131.0280

 Total job time:  160.64s(wall), 1241.81s(cpu)
        *  Thank you very much for using Q-Chem.  Have a nice day.  *
