 Gaussian 16, Revision A.03,
 Gaussian 16:  ES64L-G16RevA.03 25-Dec-2016

 ----------------------------------------------------------------
 #P UB3LYP/6-311++G(d,p) SCRF=(PCM,Solvent=n,n-DiMethylFormamide)
 ----------------------------------------------------------------

 -------
 Reduced
 -------
 Symbolic Z-matrix:
 Charge = -2 Multiplicity = 1

                         Standard orientation:
 ---------------------------------------------------------------------
 Center     Atomic      Atomic             Coordinates (Angstroms)
 Number     Number       Type             X           Y           Z
 ---------------------------------------------------------------------
      1          6           0        0.705048   -1.503073    0.078279
      2          6           0       -0.476475   -0.704936    0.015438
      3          6           0       -0.476493    0.704900   -0.015688
      4          6           0        0.704992    1.503084   -0.078653
      5          6           0        1.903044    0.695122   -0.029079
      6          6           0        1.903067   -0.695027    0.029006
      7          8           0        0.742482   -2.782917    0.210089
      8          8           0        0.742337    2.782955   -0.210376
      9          8           0        3.137072   -1.336109    0.156004
     10          6           0        3.417994   -2.254082   -0.887162
     11         35           0       -2.138769   -1.715496    0.209277
     12         35           0       -2.138871    1.715416   -0.209187
     13          1           0        2.620027   -2.999786   -0.960293
     14          1           0        4.367911   -2.740116   -0.631287
     15          1           0        3.538339   -1.727367   -1.848148
     16          8           0        3.137098    1.336186   -0.155806
     17          6           0        3.417787    2.254255    0.887352
     18          1           0        2.620120    3.000340    0.959801
     19          1           0        4.368152    2.739690    0.632013
     20          1           0        3.537159    1.727683    1.848536
 ---------------------------------------------------------------------

 SCF Done:  E(UB3LYP) =  -5758.02781947     A.U. after   16 cycles

 The electronic state is 1-A.
 Alpha  occ. eigenvalues -- -482.80631-482.80631 -62.45904 -62.45904 -56.27917
 Alpha  occ. eigenvalues --  -56.27917 -56.27575 -56.27575 -56.27546 -56.27546
 Alpha  occ. eigenvalues --  -19.11867 -19.11866 -19.02527 -19.02526 -10.19260
 Alpha  occ. eigenvalues --  -10.19260 -10.19028 -10.19026 -10.18967 -10.18915
 Alpha  occ. eigenvalues --  -10.18850 -10.18804  -8.66859  -8.66858  -6.49915
 Alpha  occ. eigenvalues --   -6.49914  -6.48782  -6.48782  -6.48696  -6.48696
 Alpha  occ. eigenvalues --   -2.61022  -2.61021  -2.60714  -2.60713  -2.60648
 Alpha  occ. eigenvalues --   -2.60648  -2.59747  -2.59747  -2.59746  -2.59746
 Alpha  occ. eigenvalues --   -1.03921  -1.02092  -0.94352  -0.94040  -0.81958
 Alpha  occ. eigenvalues --   -0.76694  -0.76364  -0.70265  -0.68708  -0.64387
 Alpha  occ. eigenvalues --   -0.63667  -0.55333  -0.54386  -0.49124  -0.47030
 Alpha  occ. eigenvalues --   -0.46411  -0.44857  -0.42989  -0.42396  -0.40979
 Alpha  occ. eigenvalues --   -0.40023  -0.37561  -0.37126  -0.35591  -0.34974
 Alpha  occ. eigenvalues --   -0.33237  -0.33057  -0.32969  -0.30000  -0.28557
 Alpha  occ. eigenvalues --   -0.28110  -0.26717  -0.26611  -0.25515  -0.22969
 Alpha  occ. eigenvalues --   -0.20517  -0.20406  -0.19796  -0.13056
 Alpha virt. eigenvalues --   -0.02252   0.00160   0.01276   0.01685   0.01819
 Alpha virt. eigenvalues --    0.02516   0.03063   0.03645   0.04288   0.04397
 Alpha virt. eigenvalues --    0.04980   0.05135   0.06311   0.06524   0.06609

  Beta  occ. eigenvalues -- -482.80631-482.80631 -62.45904 -62.45904 -56.27917
  Beta  occ. eigenvalues --  -56.27917 -56.27575 -56.27575 -56.27546 -56.27546
  Beta  occ. eigenvalues --  -19.11867 -19.11866 -19.02527 -19.02526 -10.19260
  Beta  occ. eigenvalues --  -10.19260 -10.19028 -10.19026 -10.18967 -10.18915
  Beta  occ. eigenvalues --  -10.18850 -10.18804  -8.66859  -8.66858  -6.49915
  Beta  occ. eigenvalues --   -6.49914  -6.48782  -6.48782  -6.48696  -6.48696
  Beta  occ. eigenvalues --   -2.61022  -2.61021  -2.60714  -2.60713  -2.60648
  Beta  occ. eigenvalues --   -2.60648  -2.59747  -2.59747  -2.59746  -2.59746
  Beta  occ. eigenvalues --   -1.03921  -1.02092  -0.94352  -0.94040  -0.81958
  Beta  occ. eigenvalues --   -0.76694  -0.76364  -0.70265  -0.68708  -0.64387
  Beta  occ. eigenvalues --   -0.63667  -0.55333  -0.54386  -0.49124  -0.47030
  Beta  occ. eigenvalues --   -0.46411  -0.44857  -0.42989  -0.42396  -0.40979
  Beta  occ. eigenvalues --   -0.40023  -0.37561  -0.37126  -0.35591  -0.34974
  Beta  occ. eigenvalues --   -0.33237  -0.33057  -0.32969  -0.30000  -0.28557
  Beta  occ. eigenvalues --   -0.28110  -0.26717  -0.26611  -0.25515  -0.22969
  Beta  occ. eigenvalues --   -0.20517  -0.20406  -0.19796  -0.13056
  Beta virt. eigenvalues --   -0.02252   0.00160   0.01276   0.01685   0.01819
  Beta virt. eigenvalues --    0.02516   0.03063   0.03645   0.04288   0.04397
  Beta virt. eigenvalues --    0.04980   0.05135   0.06311   0.06524   0.06609

 Mulliken charges and spin densities:
               1          2
     1  C   -0.409811  -0.000000
     2  C    0.318681  -0.000000
     3  C    0.318813  -0.000000
     4  C   -0.409682   0.000000
     5  C   -0.058547   0.000000
     6  C   -0.057818  -0.000000
     7  O   -0.619932   0.000000
     8  O   -0.619971   0.000000
     9  O   -0.204530   0.000000
    10  C   -0.258397  -0.000000
    11  Br  -0.208083   0.000000
    12  Br  -0.208080   0.000000
    13  H    0.177576   0.000000
    14  H    0.139891   0.000000
    15  H    0.122675  -0.000000
    16  O   -0.204552  -0.000000
    17  C   -0.258363  -0.000000
    18  H    0.177567  -0.000000
    19  H    0.139894   0.000000
    20  H    0.122667   0.000000
 Sum of Mulliken charges =  -2.00000   0.00000

 Dipole moment (field-independent basis, Debye):
    X=             -3.0672    Y=             -0.0002    Z=              0.0009  Tot=              3.0672
 Quadrupole moment (field-independent basis, Debye-Ang):
   XX=           -138.7247   YY=           -170.4630   ZZ=           -115.1885
   XY=              0.0010   XZ=              0.0000   YZ=              9.8369

 Normal termination of Gaussian 16 at Wed Jan 24 22:52:02 2024.
