 Q-Chem 5.4, Q-Chem, Inc., Pleasanton, CA (2021)
 Q-Chem 5.4.0 for Intel X86 EM64T Linux

User input:
--------------------------------------------------------------
$molecule
-1 2
C                 -3.5119920000      0.6853210000     -0.1981900000
O                 -2.7659420000     -0.5094320000     -0.1918940000
C                 -1.4157260000     -0.4190510000      0.0438260000
C                 -0.7500320000      0.7603920000      0.2675580000
C                  0.6713780000      0.8332870000      0.5288020000
O                  1.2521490000      1.9310270000      0.7760290000
C                  1.3661830000     -0.4463080000      0.4962640000
C                  0.6987410000     -1.6241320000      0.2734130000
C                 -0.7213040000     -1.7105780000      0.0394630000
O                 -1.3191220000     -2.8006640000     -0.1630680000
O                  2.7209080000     -0.5135680000      0.7812190000
C                  3.5686190000      0.2795640000     -0.0465100000
H                 -4.5452110000      0.3969040000     -0.4005290000
H                 -3.1696970000      1.3773910000     -0.9793600000
H                 -3.4633930000      1.2031550000      0.7690370000
H                 -1.2627440000      1.7145520000      0.2827080000
H                  1.2515830000     -2.5576010000      0.2761970000
H                  3.5069210000     -0.0557150000     -1.0917900000
H                  3.3019880000      1.3356440000      0.0209420000
H                  4.5866930000      0.1198110000      0.3176780000
$end
$rem
MAX_SCF_CYCLES=200
BASIS  =  6-311++G(d,p)
GUI  =  2
JOB_TYPE  =  SP
METHOD  =  B3LYP
SOLVENT_METHOD = COSMO
$end
$solvent
dielectric 37.219
opticaldielectric 1.43
$end

--------------------------------------------------------------

             Standard Nuclear Orientation (Angstroms)
    I     Atom           X                Y                Z
 ----------------------------------------------------------------
    1      C       3.3941037666    -1.3066169004    -0.1599247808
    2      O       2.7888824815    -0.0354386331    -0.1165890951
    3      C       1.4203899233     0.0180601064    -0.0108446227
    4      C       0.6086147669    -1.0872264550     0.0495955301
    5      C      -0.8308460417    -1.0098706011     0.1758379518
    6      O      -1.5518529970    -2.0461693942     0.2742403573
    7      C      -1.3721107134     0.3421386256     0.1925615699
    8      C      -0.5588742475     1.4455474105     0.1330109990
    9      C       0.8780573917     1.3797008230     0.0349038816
   10      O       1.6106643600     2.4030041501    -0.0182937244
   11      O      -2.7323455539     0.5485048905     0.3604223121
   12      C      -3.5774500964    -0.0729688431    -0.6051740409
   13      H       4.4679070506    -1.1288322294    -0.2436269722
   14      H       3.0554664209    -1.8917754456    -1.0255271987
   15      H       3.1930260934    -1.8867799465     0.7505808992
   16      H       1.0077937096    -2.0940516306     0.0276032459
   17      H      -1.0018097645     2.4353099816     0.1674287602
   18      H      -3.3760725259     0.3308230873    -1.6077846734
   19      H      -3.4381262371    -1.1553435263    -0.6060321896
   20      H      -4.6022795676     0.1788566075    -0.3206795993
 ----------------------------------------------------------------

   11    -610.7492820285      5.11e-06  Convergence criterion met
 Total energy in the final basis set =     -610.7492820285
    4    -610.8445844762      9.20e-06  Convergence criterion met
 Total energy in the final basis set =     -610.8445844762

                    Orbital Energies (a.u.)
 --------------------------------------------------------------

 Alpha MOs
 -- Occupied --
-19.1565 -19.1404 -19.0847 -19.0816 -10.2305 -10.2285 -10.2283 -10.2219
-10.2137 -10.2034 -10.1609 -10.1608  -1.0717  -1.0536  -1.0051  -0.9999
 -0.8252  -0.7550  -0.7158  -0.6949  -0.6549  -0.6003  -0.5714  -0.5155
 -0.5072  -0.4967  -0.4701  -0.4572  -0.4443  -0.4414  -0.4177  -0.4139
 -0.4095  -0.4054  -0.3825  -0.3769  -0.3512  -0.3398  -0.3340  -0.3013
 -0.2708  -0.2515  -0.2445  -0.2318  -0.1634

 Beta MOs
 -- Occupied --
-19.1556 -19.1401 -19.0779 -19.0753 -10.2289 -10.2268 -10.2266 -10.2200
-10.2138 -10.2033 -10.1610 -10.1603  -1.0696  -1.0519  -0.9934  -0.9890
 -0.8193  -0.7528  -0.7131  -0.6911  -0.6488  -0.5967  -0.5682  -0.5139
 -0.5051  -0.4938  -0.4660  -0.4537  -0.4429  -0.4391  -0.4129  -0.4097
 -0.4061  -0.3910  -0.3761  -0.3560  -0.3482  -0.3383  -0.3233  -0.2953
 -0.2474  -0.2443  -0.2387  -0.2253

          Ground-State Mulliken Net Atomic Charges

     Atom                 Charge (a.u.)    Spin (a.u.)
  --------------------------------------------------------
      1 C                    -0.326501      -0.000271
      2 O                    -0.221136       0.019437
      3 C                    -0.252634       0.168302
      4 C                     0.626955      -0.020413
      5 C                    -0.378626       0.099836
      6 O                    -0.534736       0.223621
      7 C                    -0.282610       0.151296
      8 C                     0.660461       0.021878
      9 C                    -0.667923       0.089377
     10 O                    -0.546713       0.239361
     11 O                    -0.248651       0.004786
     12 C                    -0.307847       0.007241
     13 H                     0.204007      -0.000201
     14 H                     0.167875       0.001853
     15 H                     0.167647       0.001849
     16 H                     0.230108      -0.002787
     17 H                     0.227647      -0.005716
     18 H                     0.143056       0.000611
     19 H                     0.179454      -0.001195
     20 H                     0.160167       0.001135
  --------------------------------------------------------
  Sum of atomic charges =    -1.000000

                    Cartesian Multipole Moments
 -----------------------------------------------------------------
    Charge (ESU x 10^10)
                -4.8032
    Dipole Moment (Debye)
         X       0.2868      Y      -3.7475      Z      -2.0953
       Tot       4.3031
    Quadrupole Moments (Debye-Ang)
        XX     -81.6704     XY     -24.2979     YY     -98.7861
        XZ       5.8291     YZ       1.7563     ZZ     -74.1346

 Total job time:  34.99s(wall), 258.00s(cpu)
        *  Thank you very much for using Q-Chem.  Have a nice day.  *
