 Gaussian 16, Revision A.03,
 Gaussian 16:  ES64L-G16RevA.03 25-Dec-2016

 ----------------------------------------------------------------------
 #P UB3LYP/6-311++G(d,p) nosym opt freq SCRF=(PCM,Solvent=n,n-DiMethylF
 ormamide)
 ----------------------------------------------------------------------

 -------
 Radical
 -------
 Symbolic Z-matrix:
 Charge = -1 Multiplicity = 2

 SCF Done:  E(UB3LYP) =  -6109.03081272     A.U. after   18 cycles
 SCF Done:  E(UB3LYP) =  -6109.03124538     A.U. after   14 cycles
 SCF Done:  E(UB3LYP) =  -6109.03125117     A.U. after   14 cycles
 SCF Done:  E(UB3LYP) =  -6109.03138262     A.U. after   13 cycles
 SCF Done:  E(UB3LYP) =  -6109.03139657     A.U. after   13 cycles
 SCF Done:  E(UB3LYP) =  -6109.03140927     A.U. after   13 cycles
 SCF Done:  E(UB3LYP) =  -6109.03141902     A.U. after   13 cycles
 SCF Done:  E(UB3LYP) =  -6109.03143706     A.U. after   13 cycles
 SCF Done:  E(UB3LYP) =  -6109.03142212     A.U. after   13 cycles
 SCF Done:  E(UB3LYP) =  -6109.03143210     A.U. after   12 cycles
 SCF Done:  E(UB3LYP) =  -6109.03144413     A.U. after   12 cycles
 SCF Done:  E(UB3LYP) =  -6109.03143422     A.U. after   13 cycles
 SCF Done:  E(UB3LYP) =  -6109.03144481     A.U. after   13 cycles
 SCF Done:  E(UB3LYP) =  -6109.03143556     A.U. after   12 cycles
 SCF Done:  E(UB3LYP) =  -6109.03144490     A.U. after   12 cycles
 SCF Done:  E(UB3LYP) =  -6109.03143608     A.U. after   12 cycles
 SCF Done:  E(UB3LYP) =  -6109.03144498     A.U. after   12 cycles
 SCF Done:  E(UB3LYP) =  -6109.03143584     A.U. after   12 cycles
 SCF Done:  E(UB3LYP) =  -6109.03144499     A.U. after   12 cycles
 Optimization completed.
    -- Stationary point found.
 Normal termination of Gaussian 16 at Sat Feb 10 18:11:13 2024.

 ----------------------------------------------------------------------
 #P Geom=AllCheck Guess=TCheck SCRF=Check GenChk UB3LYP/6-311++G(d,p) F
 req
 ----------------------------------------------------------------------

 Structure from the checkpoint file:  "025-rad.chk"
 -------
 Radical
 -------
 Charge = -1 Multiplicity = 2

                          Input orientation:
 ---------------------------------------------------------------------
 Center     Atomic      Atomic             Coordinates (Angstroms)
 Number     Number       Type             X           Y           Z
 ---------------------------------------------------------------------
      1          6           0       -1.963293   -0.337434    1.132107
      2          6           0       -2.754636    0.805755    0.619230
      3          6           0       -2.122821    1.762906   -0.154996
      4          6           0       -0.725856    1.741536   -0.464982
      5          6           0        0.065498    0.598379    0.047949
      6          6           0       -0.566316   -0.358768    0.822175
      7          8           0       -0.137511    2.618827   -1.162545
      8          8           0       -2.551609   -1.214648    1.829792
      9         35           0        0.423293   -1.782963    1.679848
     10         35           0       -3.112401    3.187144   -1.012632
     11          7           0        1.409170    0.673751   -0.284503
     12          7           0       -4.098293    0.730370    0.951737
     13          6           0       -4.885203    1.829720    1.547671
     14          6           0       -6.326508    1.342394    1.746187
     15          6           0       -7.207740    2.427139    2.383200
     16          6           0       -6.611998    2.944853    3.699796
     17          6           0       -5.168015    3.427109    3.504865
     18          6           0       -4.291115    2.333876    2.876242
     19          6           0        2.196058   -0.425645   -0.880379
     20          6           0        3.637424    0.061564   -1.078735
     21          6           0        1.602064   -0.929725   -2.209022
     22          6           0        2.478937   -2.023016   -2.837580
     23          6           0        4.518630   -1.023240   -1.715685
     24          6           0        3.922979   -1.540875   -3.032353
     25          1           0        1.526039    1.531760   -0.823111
     26          1           0       -4.215138   -0.127667    1.490306
     27          1           0       -4.904011    2.661136    0.842454
     28          1           0       -6.317539    0.454441    2.393349
     29          1           0       -6.740677    1.029065    0.782819
     30          1           0       -8.215354    2.033309    2.550009
     31          1           0       -7.312582    3.263992    1.680899
     32          1           0       -6.625729    2.138586    4.444654
     33          1           0       -7.231187    3.753607    4.101543
     34          1           0       -4.739298    3.743792    4.461152
     35          1           0       -5.166492    4.311514    2.854662
     36          1           0       -4.207153    1.486301    3.569064
     37          1           0       -3.276621    2.708420    2.706941
     38          1           0        2.214719   -1.257076   -0.175175
     39          1           0        4.051521    0.374833   -0.115316
     40          1           0        3.628596    0.949534   -1.725874
     41          1           0        1.518241   -0.082129   -2.901835
     42          1           0        0.587522   -1.304188   -2.039830
     43          1           0        2.050291   -2.339643   -3.793917
     44          1           0        2.477274   -2.907436   -2.187396
     45          1           0        4.623333   -1.860118   -1.013392
     46          1           0        5.526294   -0.629490   -1.882383
     47          1           0        4.542142   -2.349671   -3.434056
     48          1           0        3.936852   -0.734592   -3.777191
 ---------------------------------------------------------------------

 SCF Done:  E(UB3LYP) =  -6109.03144499     A.U. after    1 cycles

 Alpha  occ. eigenvalues -- -482.82134-482.82134 -62.47415 -62.47415 -56.29437
 Alpha  occ. eigenvalues --  -56.29437 -56.29078 -56.29078 -56.29051 -56.29051
 Alpha  occ. eigenvalues --  -19.08158 -19.08158 -14.31686 -14.31686 -10.23369
 Alpha  occ. eigenvalues --  -10.23367 -10.21790 -10.21789 -10.20817 -10.20816
 Alpha  occ. eigenvalues --  -10.19834 -10.19834 -10.16244 -10.16243 -10.16186
 Alpha  occ. eigenvalues --  -10.16186 -10.16106 -10.16106 -10.15985 -10.15985
 Alpha  occ. eigenvalues --  -10.15944 -10.15944  -8.68387  -8.68386  -6.51477
 Alpha  occ. eigenvalues --   -6.51477  -6.50285  -6.50285  -6.50211  -6.50211
 Alpha  occ. eigenvalues --   -2.62579  -2.62579  -2.62249  -2.62249  -2.62195
 Alpha  occ. eigenvalues --   -2.62194  -2.61247  -2.61247  -2.61246  -2.61246
 Alpha  occ. eigenvalues --   -1.01275  -1.00876  -0.92834  -0.92808  -0.84119
 Alpha  occ. eigenvalues --   -0.82648  -0.81658  -0.80309  -0.76913  -0.74665
 Alpha  occ. eigenvalues --   -0.74067  -0.73975  -0.72754  -0.68988  -0.67209
 Alpha  occ. eigenvalues --   -0.62183  -0.61059  -0.61035  -0.60485  -0.58393
 Alpha  occ. eigenvalues --   -0.56204  -0.56145  -0.55115  -0.51964  -0.49518
 Alpha  occ. eigenvalues --   -0.49269  -0.48338  -0.47206  -0.44911  -0.44625
 Alpha  occ. eigenvalues --   -0.44222  -0.44044  -0.43311  -0.43296  -0.42278
 Alpha  occ. eigenvalues --   -0.41511  -0.41464  -0.40389  -0.40049  -0.39359
 Alpha  occ. eigenvalues --   -0.39260  -0.38092  -0.38014  -0.37814  -0.37769
 Alpha  occ. eigenvalues --   -0.36194  -0.35119  -0.35005  -0.34378  -0.34329
 Alpha  occ. eigenvalues --   -0.33576  -0.32214  -0.32128  -0.31886  -0.31451
 Alpha  occ. eigenvalues --   -0.31259  -0.30643  -0.30592  -0.28856  -0.28240
 Alpha  occ. eigenvalues --   -0.27989  -0.27850  -0.25808  -0.24942  -0.23874
 Alpha  occ. eigenvalues --   -0.20547  -0.15462
 Alpha virt. eigenvalues --   -0.01465  -0.01209  -0.00424  -0.00114   0.00405
 Alpha virt. eigenvalues --    0.00925   0.00969   0.01269   0.01420   0.01622
 Alpha virt. eigenvalues --    0.02427   0.02520   0.03070   0.03220   0.03780

  Beta  occ. eigenvalues -- -482.82135-482.82135 -62.47416 -62.47416 -56.29438
  Beta  occ. eigenvalues --  -56.29438 -56.29079 -56.29079 -56.29051 -56.29051
  Beta  occ. eigenvalues --  -19.07619 -19.07619 -14.31545 -14.31544 -10.23166
  Beta  occ. eigenvalues --  -10.23165 -10.21559 -10.21558 -10.20883 -10.20882
  Beta  occ. eigenvalues --  -10.19820 -10.19820 -10.16244 -10.16244 -10.16187
  Beta  occ. eigenvalues --  -10.16187 -10.16105 -10.16105 -10.15984 -10.15984
  Beta  occ. eigenvalues --  -10.15933 -10.15933  -8.68387  -8.68387  -6.51477
  Beta  occ. eigenvalues --   -6.51477  -6.50287  -6.50287  -6.50212  -6.50212
  Beta  occ. eigenvalues --   -2.62580  -2.62580  -2.62251  -2.62251  -2.62195
  Beta  occ. eigenvalues --   -2.62195  -2.61249  -2.61249  -2.61247  -2.61247
  Beta  occ. eigenvalues --   -1.00375  -0.99939  -0.92510  -0.92422  -0.83846
  Beta  occ. eigenvalues --   -0.82603  -0.81591  -0.80266  -0.76712  -0.74500
  Beta  occ. eigenvalues --   -0.74057  -0.73939  -0.72682  -0.68869  -0.66362
  Beta  occ. eigenvalues --   -0.62067  -0.61029  -0.61017  -0.60389  -0.58065
  Beta  occ. eigenvalues --   -0.56103  -0.56010  -0.54978  -0.51786  -0.49340
  Beta  occ. eigenvalues --   -0.48987  -0.48279  -0.47132  -0.44865  -0.44276
  Beta  occ. eigenvalues --   -0.44106  -0.43967  -0.43211  -0.42904  -0.41750
  Beta  occ. eigenvalues --   -0.41243  -0.40938  -0.40112  -0.39899  -0.39218
  Beta  occ. eigenvalues --   -0.38755  -0.37861  -0.37804  -0.37632  -0.36530
  Beta  occ. eigenvalues --   -0.35907  -0.34969  -0.34942  -0.34329  -0.34311
  Beta  occ. eigenvalues --   -0.33241  -0.32200  -0.32114  -0.31532  -0.31406
  Beta  occ. eigenvalues --   -0.30678  -0.30476  -0.30260  -0.28190  -0.28086
  Beta  occ. eigenvalues --   -0.27503  -0.27472  -0.25316  -0.24458  -0.22406
  Beta  occ. eigenvalues --   -0.19890
  Beta virt. eigenvalues --   -0.08831  -0.01441  -0.01131  -0.00152  -0.00104
  Beta virt. eigenvalues --    0.00939   0.00944   0.01154   0.01421   0.01554
  Beta virt. eigenvalues --    0.01630   0.02554   0.03084   0.03206   0.03792

 Mulliken charges and spin densities:
               1          2
     1  C   -0.250873   0.133495
     2  C   -0.118955   0.176408
     3  C    0.272502  -0.072568
     4  C   -0.251158   0.133507
     5  C   -0.119092   0.176409
     6  C    0.272458  -0.072580
     7  O   -0.425238   0.198034
     8  O   -0.425244   0.198033
     9  Br  -0.085425   0.000013
    10  Br  -0.085430   0.000013
    11  N    0.207137   0.062954
    12  N    0.207144   0.062960
    13  C   -0.426546  -0.004231
    14  C   -0.177178   0.002403
    15  C   -0.383077   0.000142
    16  C   -0.407967  -0.000313
    17  C   -0.434821   0.001481
    18  C   -0.181883   0.003597
    19  C   -0.426456  -0.004231
    20  C   -0.177220   0.002404
    21  C   -0.181932   0.003595
    22  C   -0.434807   0.001481
    23  C   -0.383040   0.000142
    24  C   -0.407991  -0.000312
    25  H    0.296453  -0.001380
    26  H    0.296452  -0.001380
    27  H    0.033985  -0.001947
    28  H    0.131275  -0.000729
    29  H    0.180991   0.002024
    30  H    0.180816  -0.000178
    31  H    0.141954   0.000229
    32  H    0.125644   0.000211
    33  H    0.170605  -0.000070
    34  H    0.171233   0.000629
    35  H    0.141784   0.000054
    36  H    0.169552   0.000660
    37  H    0.168282  -0.000920
    38  H    0.033928  -0.001949
    39  H    0.180992   0.002025
    40  H    0.131273  -0.000729
    41  H    0.169551   0.000660
    42  H    0.168286  -0.000920
    43  H    0.171231   0.000629
    44  H    0.141785   0.000054
    45  H    0.141954   0.000229
    46  H    0.180814  -0.000178
    47  H    0.170604  -0.000070
    48  H    0.125645   0.000211
 Sum of Mulliken charges =  -1.00000   1.00000

 Dipole moment (field-independent basis, Debye):
    X=              6.4581    Y=             -3.3725    Z=             -1.6024  Tot=              7.4598
 Quadrupole moment (field-independent basis, Debye-Ang):
   XX=           -181.0612   YY=           -202.0025   ZZ=           -185.3321
   XY=             -5.5082   XZ=             -4.5816   YZ=             19.1258

  Exact polarizability: 488.366 -24.932 412.356 -56.010 -63.100 365.497
 Approx polarizability: 494.236   9.722 455.536 -52.687 -89.316 395.339

                      1                      2                      3
                      A                      A                      A
 Frequencies --      9.6916                14.2491                20.2177
 Red. masses --      3.6422                 3.3450                 3.8647
 Frc consts  --      0.0002                 0.0004                 0.0009
 IR Inten    --      3.2828                 0.0000                 1.3191

                      4                      5                      6
                      A                      A                      A
 Frequencies --     34.8927                36.6240                63.3426
 Red. masses --      4.9496                 5.2026                 8.3204
 Frc consts  --      0.0036                 0.0041                 0.0197
 IR Inten    --      1.8717                 0.0000                 1.8777

                      7                      8                      9
                      A                      A                      A
 Frequencies --     66.5922               104.6166               115.4851
 Red. masses --      5.1596                 8.0961                 9.5615
 Frc consts  --      0.0135                 0.0522                 0.0751
 IR Inten    --      0.0000                18.5617                 0.0000

                     10                     11                     12
                      A                      A                      A
 Frequencies --    139.0728               145.1316               149.0960
 Red. masses --      9.2167                 4.0105                 3.3322
 Frc consts  --      0.1050                 0.0498                 0.0436
 IR Inten    --      1.8876                 0.0000                 4.4387

                     13                     14                     15
                      A                      A                      A
 Frequencies --    185.7647               199.7762               200.7960
 Red. masses --      6.4738                 7.6696                 9.6165
 Frc consts  --      0.1316                 0.1803                 0.2284
 IR Inten    --      0.0000                 2.3261                 0.0000

                     16                     17                     18
                      A                      A                      A
 Frequencies --    213.0698               228.0879               230.2158
 Red. masses --      4.4539                 1.8551                 1.8933
 Frc consts  --      0.1191                 0.0569                 0.0591
 IR Inten    --      0.0000                 0.0911                 0.0000

                     19                     20                     21
                      A                      A                      A
 Frequencies --    254.4026               293.2746               300.8898
 Red. masses --      5.7292                 4.8597                 9.0312
 Frc consts  --      0.2185                 0.2463                 0.4817
 IR Inten    --      0.5716                22.2997                 0.0000

                     22                     23                     24
                      A                      A                      A
 Frequencies --    328.6449               332.0633               356.1547
 Red. masses --      1.9408                 1.9809                 4.9272
 Frc consts  --      0.1235                 0.1287                 0.3682
 IR Inten    --      0.0000                12.5252                 0.0000

                     25                     26                     27
                      A                      A                      A
 Frequencies --    366.5695               416.6897               426.9209
 Red. masses --      5.5052                 5.0885                 3.1124
 Frc consts  --      0.4359                 0.5206                 0.3342
 IR Inten    --      0.7420                 0.0000                 0.0000

                     28                     29                     30
                      A                      A                      A
 Frequencies --    432.8142               446.2965               450.7289
 Red. masses --      2.5714                 3.7253                 3.2044
 Frc consts  --      0.2838                 0.4372                 0.3836
 IR Inten    --      5.5287                48.5457                 0.0000

                     31                     32                     33
                      A                      A                      A
 Frequencies --    454.4162               475.9022               478.2064
 Red. masses --      2.5419                 3.3912                 3.7679
 Frc consts  --      0.3093                 0.4525                 0.5077
 IR Inten    --     11.2511                 0.0000                 0.0000

                     34                     35                     36
                      A                      A                      A
 Frequencies --    526.8005               546.8640               555.0937
 Red. masses --      2.8919                 3.2451                 2.6232
 Frc consts  --      0.4729                 0.5718                 0.4762
 IR Inten    --      0.2305                81.1891                 0.0000

                     37                     38                     39
                      A                      A                      A
 Frequencies --    588.3940               592.5644               732.2430
 Red. masses --      7.5386                 4.9277                 5.8651
 Frc consts  --      1.5377                 1.0194                 1.8528
 IR Inten    --     74.4233                 0.0000                42.2252

                     40                     41                     42
                      A                      A                      A
 Frequencies --    732.3968               747.7252               750.3118
 Red. masses --      3.8185                 5.6751                 6.9805
 Frc consts  --      1.2068                 1.8694                 2.3154
 IR Inten    --      0.0015               268.8579                 0.0000

                     43                     44                     45
                      A                      A                      A
 Frequencies --    780.6634               784.4897               793.1217
 Red. masses --      2.2923                 2.2508                 1.4555
 Frc consts  --      0.8231                 0.8161                 0.5394
 IR Inten    --      0.0002               209.4138                22.8092

                     46                     47                     48
                      A                      A                      A
 Frequencies --    793.2259               813.6489               816.5995
 Red. masses --      1.4631                 3.3571                 1.7814
 Frc consts  --      0.5424                 1.3095                 0.6999
 IR Inten    --      0.0002                 0.0001               220.4397

                     49                     50                     51
                      A                      A                      A
 Frequencies --    849.4796               849.7526               864.1118
 Red. masses --      2.2417                 1.9899                 2.2162
 Frc consts  --      0.9531                 0.8466                 0.9750
 IR Inten    --      0.0000                28.1114                 0.0000

                     52                     53                     54
                      A                      A                      A
 Frequencies --    895.9891               897.1588               900.2832
 Red. masses --      1.7839                 1.7850                 1.8841
 Frc consts  --      0.8438                 0.8465                 0.8997
 IR Inten    --     79.8261                 0.0000                 5.5309

                     55                     56                     57
                      A                      A                      A
 Frequencies --    914.6069               930.4711               931.5552
 Red. masses --      1.9801                 1.5550                 1.6253
 Frc consts  --      0.9759                 0.7932                 0.8310
 IR Inten    --      0.0000                 1.3489                 0.0000

                     58                     59                     60
                      A                      A                      A
 Frequencies --    977.9347               979.6587              1031.0781
 Red. masses --      2.2608                 2.1976                 1.7804
 Frc consts  --      1.2739                 1.2427                 1.1152
 IR Inten    --     72.6768                 0.0000                 5.2615

                     61                     62                     63
                      A                      A                      A
 Frequencies --   1031.1706              1039.4146              1061.3055
 Red. masses --      1.7793                 4.1595                 1.4734
 Frc consts  --      1.1147                 2.6477                 0.9778
 IR Inten    --      0.0002                20.8685                 0.0000

                     64                     65                     66
                      A                      A                      A
 Frequencies --   1065.3291              1078.8086              1085.4605
 Red. masses --      1.5303                 4.3193                 3.5918
 Frc consts  --      1.0233                 2.9618                 2.4934
 IR Inten    --     41.9578               142.8203                 0.0000

                     67                     68                     69
                      A                      A                      A
 Frequencies --   1088.8253              1089.0387              1095.2106
 Red. masses --      1.1396                 1.2062                 2.5892
 Frc consts  --      0.7960                 0.8429                 1.8298
 IR Inten    --      0.0000                 2.3151                 0.0000

                     70                     71                     72
                      A                      A                      A
 Frequencies --   1095.7377              1163.8343              1167.2573
 Red. masses --      2.4206                 2.6010                 2.3720
 Frc consts  --      1.7124                 2.0758                 1.9042
 IR Inten    --     38.7080                56.6547                 0.0000

                     73                     74                     75
                      A                      A                      A
 Frequencies --   1170.4499              1196.9973              1203.9862
 Red. masses --      4.9353                 2.6267                 1.5764
 Frc consts  --      3.9835                 2.2174                 1.3464
 IR Inten    --    354.7788               106.5094                 0.0000

                     76                     77                     78
                      A                      A                      A
 Frequencies --   1213.0627              1221.1066              1266.8255
 Red. masses --      2.1573                 4.0509                 1.4030
 Frc consts  --      1.8704                 3.5588                 1.3266
 IR Inten    --     48.7538                 0.0000                 0.0000

                     79                     80                     81
                      A                      A                      A
 Frequencies --   1271.5283              1280.7109              1282.2145
 Red. masses --      1.3400                 1.3110                 1.2932
 Frc consts  --      1.2765                 1.2670                 1.2527
 IR Inten    --     45.8418                 0.0000                21.4437

                     82                     83                     84
                      A                      A                      A
 Frequencies --   1283.4319              1284.0095              1311.8387
 Red. masses --      1.2685                 1.2852                 2.3003
 Frc consts  --      1.2311                 1.2484                 2.3323
 IR Inten    --      0.0000                 4.1026                 0.0000

                     85                     86                     87
                      A                      A                      A
 Frequencies --   1334.8312              1335.8756              1345.9389
 Red. masses --      1.3213                 1.3477                 1.2414
 Frc consts  --      1.3871                 1.4171                 1.3250
 IR Inten    --      0.6527                 0.0000                33.2265

                     88                     89                     90
                      A                      A                      A
 Frequencies --   1355.3560              1364.3645              1364.8361
 Red. masses --      1.5763                 1.3709                 1.3899
 Frc consts  --      1.7061                 1.5036                 1.5254
 IR Inten    --      0.0000                 3.0867                 0.0000

                     91                     92                     93
                      A                      A                      A
 Frequencies --   1371.8599              1371.8615              1375.2112
 Red. masses --      1.4401                 1.4402                 1.4473
 Frc consts  --      1.5969                 1.5970                 1.6127
 IR Inten    --      0.0468                 0.0000                41.3129

                     94                     95                     96
                      A                      A                      A
 Frequencies --   1376.0099              1376.3322              1376.4405
 Red. masses --      1.4362                 1.3613                 1.3807
 Frc consts  --      1.6021                 1.5193                 1.5412
 IR Inten    --      0.0008                11.7831                 0.0017

                     97                     98                     99
                      A                      A                      A
 Frequencies --   1394.4916              1397.3410              1467.8647
 Red. masses --      1.4326                 1.4965                 5.1144
 Frc consts  --      1.6414                 1.7216                 6.4926
 IR Inten    --      7.6434                 0.0000              2522.9237

                    100                    101                    102
                      A                      A                      A
 Frequencies --   1478.7224              1478.7295              1480.8499
 Red. masses --      1.0892                 1.0892                 1.0929
 Frc consts  --      1.4032                 1.4032                 1.4121
 IR Inten    --      0.0018                 1.0048                 0.0000

                    103                    104                    105
                      A                      A                      A
 Frequencies --   1480.8941              1483.0736              1483.1305
 Red. masses --      1.0944                 1.0985                 1.0993
 Frc consts  --      1.4140                 1.4235                 1.4247
 IR Inten    --     26.2933                 0.0005                14.1022

                    106                    107                    108
                      A                      A                      A
 Frequencies --   1485.6809              1485.7516              1498.3029
 Red. masses --      1.0881                 1.0880                 1.2598
 Frc consts  --      1.4150                 1.4150                 1.6663
 IR Inten    --      0.0028                24.1788                 0.0001

                    109                    110                    111
                      A                      A                      A
 Frequencies --   1498.5360              1499.8540              1516.6735
 Red. masses --      1.1014                 2.9495                10.5777
 Frc consts  --      1.4572                 3.9093                14.3359
 IR Inten    --      6.7933                 0.0000               146.1902

                    112                    113                    114
                      A                      A                      A
 Frequencies --   1555.0078              1557.6972              1583.3015
 Red. masses --      2.2658                 1.4622                 3.8618
 Frc consts  --      3.2280                 2.0903                 5.7038
 IR Inten    --      0.0008               232.8496                 0.0000

                    115                    116                    117
                      A                      A                      A
 Frequencies --   2991.2380              2991.2459              2997.4151
 Red. masses --      1.0685                 1.0685                 1.0709
 Frc consts  --      5.6330                 5.6330                 5.6688
 IR Inten    --     81.9007                 2.7167                56.8056

                    118                    119                    120
                      A                      A                      A
 Frequencies --   2997.4320              2999.5648              2999.5840
 Red. masses --      1.0709                 1.0670                 1.0670
 Frc consts  --      5.6688                 5.6562                 5.6565
 IR Inten    --      0.0053                44.9978                 0.0549

                    121                    122                    123
                      A                      A                      A
 Frequencies --   3003.1052              3003.1067              3004.6335
 Red. masses --      1.0626                 1.0626                 1.0605
 Frc consts  --      5.6464                 5.6464                 5.6407
 IR Inten    --     12.4166                21.4477                 0.6572

                    124                    125                    126
                      A                      A                      A
 Frequencies --   3004.6386              3045.2875              3045.3092
 Red. masses --      1.0605                 1.0934                 1.0934
 Frc consts  --      5.6407                 5.9741                 5.9742
 IR Inten    --    234.9651               260.7079                 0.0108

                    127                    128                    129
                      A                      A                      A
 Frequencies --   3046.1166              3046.1173              3050.6100
 Red. masses --      1.0967                 1.0967                 1.0989
 Frc consts  --      5.9956                 5.9956                 6.0256
 IR Inten    --    126.2787                98.0180               189.0506

                    130                    131                    132
                      A                      A                      A
 Frequencies --   3050.6207              3052.3185              3052.3189
 Red. masses --      1.0989                 1.0943                 1.0943
 Frc consts  --      6.0256                 6.0067                 6.0066
 IR Inten    --      0.1425                48.0743                84.8281

                    133                    134                    135
                      A                      A                      A
 Frequencies --   3052.8078              3052.8107              3089.0336
 Red. masses --      1.0975                 1.0975                 1.0858
 Frc consts  --      6.0264                 6.0263                 6.1044
 IR Inten    --      0.0017               108.9058               109.1922

                    136                    137                    138
                      A                      A                      A
 Frequencies --   3089.1142              3448.1998              3448.5695
 Red. masses --      1.0858                 1.0727                 1.0728
 Frc consts  --      6.1049                 7.5150                 7.5170
 IR Inten    --      0.0925                 0.0461               166.5803

 - Thermochemistry -
 -------------------
 Temperature   298.150 Kelvin.  Pressure   1.00000 Atm.
 Atom     1 has atomic number  6 and mass  12.00000

 Molecular mass:   458.02045 amu.
 Principal axes and moments of inertia in atomic units:
                           1         2         3
     Eigenvalues --  6217.04726********************
           X            0.86086  -0.06216   0.50504
           Y           -0.41161  -0.66860   0.61931
           Z           -0.29917   0.74102   0.60116
 This molecule is an asymmetric top.
 Rotational symmetry number  1.
 Warning -- assumption of classical behavior for rotation
           may cause significant error
 Rotational temperatures (Kelvin)      0.01393     0.00406     0.00339
 Rotational constants (GHZ):           0.29029     0.08469     0.07074
 Zero-point vibrational energy    1042727.9 (Joules/Mol)
                                  249.21795 (Kcal/Mol)
 Warning -- explicit consideration of  38 degrees of freedom as
           vibrations may cause significant error
 Vibrational temperatures:     13.94    20.50    29.09    50.20    52.69
          (Kelvin)             91.14    95.81   150.52   166.16   200.09
                              208.81   214.52   267.27   287.43   288.90
                              306.56   328.17   331.23   366.03   421.96
                              432.91   472.85   477.76   512.43   527.41
                              599.52   614.24   622.72   642.12   648.50
                              653.80   684.72   688.03   757.95   786.82
                              798.66   846.57   852.57  1053.53  1053.76
                             1075.81  1079.53  1123.20  1128.71  1141.13
                             1141.28  1170.66  1174.90  1222.21  1222.60
                             1243.26  1289.13  1290.81  1295.31  1315.92
                             1338.74  1340.30  1407.03  1409.51  1483.49
                             1483.62  1495.49  1526.98  1532.77  1552.16
                             1561.74  1566.58  1566.88  1575.76  1576.52
                             1674.50  1679.42  1684.02  1722.21  1732.27
                             1745.33  1756.90  1822.68  1829.45  1842.66
                             1844.82  1846.57  1847.40  1887.44  1920.52
                             1922.03  1936.51  1950.05  1963.02  1963.69
                             1973.80  1973.80  1978.62  1979.77  1980.23
                             1980.39  2006.36  2010.46  2111.93  2127.55
                             2127.56  2130.61  2130.68  2133.81  2133.89
                             2137.56  2137.67  2155.72  2156.06  2157.96
                             2182.15  2237.31  2241.18  2278.02  4303.72
                             4303.74  4312.61  4312.64  4315.70  4315.73
                             4320.80  4320.80  4323.00  4323.00  4381.49
                             4381.52  4382.68  4382.68  4389.15  4389.16
                             4391.61  4391.61  4392.31  4392.31  4444.43
                             4444.55  4961.19  4961.72

 Zero-point correction=                           0.397154 (Hartree/Particle)
 Thermal correction to Energy=                    0.420726
 Thermal correction to Enthalpy=                  0.421670
 Thermal correction to Gibbs Free Energy=         0.338664
 Sum of electronic and zero-point Energies=          -6108.634291
 Sum of electronic and thermal Energies=             -6108.610719
 Sum of electronic and thermal Enthalpies=           -6108.609775
 Sum of electronic and thermal Free Energies=        -6108.692781

                     E (Thermal)             CV                S
                      KCal/Mol        Cal/Mol-Kelvin    Cal/Mol-Kelvin
 Total                  264.009             89.510            174.702
 Electronic               0.000              0.000              1.377
 Translational            0.889              2.981             44.254
 Rotational               0.889              2.981             36.467
 Vibrational            262.232             83.548             92.603
 Vibration     1          0.593              1.987              8.073
 Vibration     2          0.593              1.986              7.308
 Vibration     3          0.593              1.986              6.613
 Vibration     4          0.594              1.983              5.530
 Vibration     5          0.594              1.982              5.434
 Vibration     6          0.597              1.972              4.350
 Vibration     7          0.598              1.970              4.252
 Vibration     8          0.605              1.946              3.366
 Vibration     9          0.608              1.937              3.175
 Vibration    10          0.615              1.914              2.817
 Vibration    11          0.617              1.908              2.735
 Vibration    12          0.618              1.904              2.684
 Vibration    13          0.632              1.859              2.270
 Vibration    14          0.638              1.840              2.135
 Vibration    15          0.638              1.839              2.126
 Vibration    16          0.644              1.821              2.017
 Vibration    17          0.651              1.798              1.894
 Vibration    18          0.652              1.795              1.877
 Vibration    19          0.665              1.755              1.700
 Vibration    20          0.688              1.686              1.455
 Vibration    21          0.693              1.672              1.412
 Vibration    22          0.712              1.618              1.267
 Vibration    23          0.714              1.611              1.250
 Vibration    24          0.732              1.563              1.139
 Vibration    25          0.739              1.541              1.094
 Vibration    26          0.780              1.434              0.903
 Vibration    27          0.789              1.412              0.869
 Vibration    28          0.794              1.399              0.850
 Vibration    29          0.806              1.369              0.807
 Vibration    30          0.810              1.359              0.794
 Vibration    31          0.813              1.351              0.783
 Vibration    32          0.833              1.304              0.721
 Vibration    33          0.835              1.298              0.715
 Vibration    34          0.882              1.191              0.594
 Vibration    35          0.902              1.147              0.551
 Vibration    36          0.911              1.129              0.534
 Vibration    37          0.946              1.057              0.470
 Vibration    38          0.950              1.048              0.463

 Optimization completed.
    -- Stationary point found.
 Normal termination of Gaussian 16 at Sun Feb 11 00:54:08 2024.
