 Gaussian 16, Revision A.03,
 Gaussian 16:  ES64L-G16RevA.03 25-Dec-2016

 ----------------------------------------------------------------------
 #P UB3LYP/6-311++G(d,p) nosym opt freq SCRF=(PCM,Solvent=n,n-DiMethylF
 ormamide)
 ----------------------------------------------------------------------

 --------
 Oxidized
 --------
 Symbolic Z-matrix:
 Charge =  0 Multiplicity = 1

 SCF Done:  E(UB3LYP) =  -1279.17347775     A.U. after   17 cycles
 SCF Done:  E(UB3LYP) =  -1279.17378611     A.U. after   17 cycles
 SCF Done:  E(UB3LYP) =  -1279.17380919     A.U. after   16 cycles
 SCF Done:  E(UB3LYP) =  -1279.17399514     A.U. after   14 cycles
 SCF Done:  E(UB3LYP) =  -1279.17400738     A.U. after   15 cycles
 SCF Done:  E(UB3LYP) =  -1279.17403304     A.U. after   14 cycles
 SCF Done:  E(UB3LYP) =  -1279.17403418     A.U. after   12 cycles
 SCF Done:  E(UB3LYP) =  -1279.17403540     A.U. after   12 cycles
 SCF Done:  E(UB3LYP) =  -1279.17403551     A.U. after   10 cycles
 SCF Done:  E(UB3LYP) =  -1279.17403555     A.U. after   10 cycles
 SCF Done:  E(UB3LYP) =  -1279.17403563     A.U. after    9 cycles
 SCF Done:  E(UB3LYP) =  -1279.17403580     A.U. after   10 cycles
 SCF Done:  E(UB3LYP) =  -1279.17403610     A.U. after   10 cycles
 SCF Done:  E(UB3LYP) =  -1279.17403662     A.U. after   11 cycles
 SCF Done:  E(UB3LYP) =  -1279.17403737     A.U. after   11 cycles
 SCF Done:  E(UB3LYP) =  -1279.17403849     A.U. after   11 cycles
 SCF Done:  E(UB3LYP) =  -1279.17403956     A.U. after   11 cycles
 SCF Done:  E(UB3LYP) =  -1279.17403991     A.U. after   11 cycles
 SCF Done:  E(UB3LYP) =  -1279.17403992     A.U. after   10 cycles
 Optimization completed.
    -- Stationary point found.
 Normal termination of Gaussian 16 at Sun Feb 11 18:08:41 2024.

 ----------------------------------------------------------------------
 #P Geom=AllCheck Guess=TCheck SCRF=Check GenChk UB3LYP/6-311++G(d,p) F
 req
 ----------------------------------------------------------------------

 Structure from the checkpoint file:  "297.chk"
 --------
 Oxidized
 --------
 Charge =  0 Multiplicity = 1

                          Input orientation:
 ---------------------------------------------------------------------
 Center     Atomic      Atomic             Coordinates (Angstroms)
 Number     Number       Type             X           Y           Z
 ---------------------------------------------------------------------
      1          6           0       -0.539865    2.938855    0.838908
      2          6           0       -1.691069    2.642375    0.114851
      3          6           0       -1.686533    1.588139   -0.799569
      4          6           0        0.616494    2.178112    0.647885
      5          6           0        0.625055    1.117658   -0.275147
      6          6           0       -0.532651    0.829928   -0.995940
      7          6           0        1.832809    2.471957    1.417935
      8          6           0        3.031898    1.597344    1.217196
      9          6           0        3.042469    0.550644    0.348748
     10          6           0        1.862665    0.304226   -0.516042
     11          8           0        1.931580    3.373690    2.243025
     12          8           0        1.888603   -0.528551   -1.409698
     13          8           0        4.078634    1.928428    1.974445
     14          1           0       -0.525760    3.753243    1.552243
     15          1           0       -2.588902    3.230349    0.262147
     16          1           0       -2.582723    1.357085   -1.363145
     17          1           0       -0.520435    0.013676   -1.706622
     18          1           0        3.799052    2.693961    2.514908
     19         16           0        4.531438   -0.391425    0.120640
     20          6           0        3.971848   -2.090186    0.310349
     21          6           0        4.477361   -3.055590   -0.561235
     22          6           0        3.124287   -2.476542    1.352031
     23          6           0        4.136340   -4.396542   -0.386770
     24          6           0        2.773691   -3.815462    1.499550
     25          6           0        3.277404   -4.801332    0.640223
     26          6           0        2.919370   -6.254395    0.834414
     27          1           0        5.125199   -2.764143   -1.379892
     28          1           0        2.735756   -1.737867    2.043362
     29          1           0        4.535802   -5.135478   -1.073664
     30          1           0        2.104396   -4.098969    2.305575
     31          1           0        1.869153   -6.371202    1.112717
     32          1           0        3.518813   -6.700673    1.635225
     33          1           0        3.100082   -6.832851   -0.073655
 ---------------------------------------------------------------------

 SCF Done:  E(UB3LYP) =  -1279.17403992     A.U. after    2 cycles

 Alpha  occ. eigenvalues --  -88.87213 -19.18926 -19.15562 -19.13506 -10.30049
 Alpha  occ. eigenvalues --  -10.29123 -10.28263 -10.23371 -10.21698 -10.21687
 Alpha  occ. eigenvalues --  -10.21639 -10.20636 -10.20426 -10.20280 -10.20241
 Alpha  occ. eigenvalues --  -10.19259 -10.18741 -10.18703 -10.18233 -10.18204
 Alpha  occ. eigenvalues --  -10.16914  -7.95789  -5.92199  -5.91791  -5.91172
 Alpha  occ. eigenvalues --   -1.11977  -1.07488  -1.06924  -0.89888  -0.87936
 Alpha  occ. eigenvalues --   -0.85319  -0.81024  -0.78637  -0.78279  -0.75943
 Alpha  occ. eigenvalues --   -0.74188  -0.70347  -0.67997  -0.66178  -0.63528
 Alpha  occ. eigenvalues --   -0.62158  -0.61235  -0.58817  -0.58080  -0.55287
 Alpha  occ. eigenvalues --   -0.52743  -0.50817  -0.50180  -0.48540  -0.47833
 Alpha  occ. eigenvalues --   -0.47680  -0.47303  -0.46334  -0.45790  -0.45165
 Alpha  occ. eigenvalues --   -0.43374  -0.43200  -0.43156  -0.42498  -0.41855
 Alpha  occ. eigenvalues --   -0.41277  -0.39412  -0.39213  -0.38424  -0.37959
 Alpha  occ. eigenvalues --   -0.37680  -0.36737  -0.35347  -0.34600  -0.31135
 Alpha  occ. eigenvalues --   -0.30326  -0.29255  -0.28726  -0.28449  -0.26951
 Alpha  occ. eigenvalues --   -0.26641  -0.22918
 Alpha virt. eigenvalues --   -0.13269  -0.06308  -0.03799  -0.02965  -0.02494
 Alpha virt. eigenvalues --   -0.01044  -0.00276   0.00223   0.00990   0.01231
 Alpha virt. eigenvalues --    0.01497   0.01889   0.02547   0.02788   0.03225

  Beta  occ. eigenvalues --  -88.87213 -19.18926 -19.15562 -19.13506 -10.30049
  Beta  occ. eigenvalues --  -10.29123 -10.28263 -10.23371 -10.21698 -10.21687
  Beta  occ. eigenvalues --  -10.21639 -10.20636 -10.20426 -10.20280 -10.20241
  Beta  occ. eigenvalues --  -10.19259 -10.18741 -10.18703 -10.18233 -10.18204
  Beta  occ. eigenvalues --  -10.16914  -7.95789  -5.92199  -5.91791  -5.91172
  Beta  occ. eigenvalues --   -1.11977  -1.07488  -1.06924  -0.89888  -0.87936
  Beta  occ. eigenvalues --   -0.85319  -0.81024  -0.78637  -0.78279  -0.75943
  Beta  occ. eigenvalues --   -0.74188  -0.70347  -0.67997  -0.66178  -0.63528
  Beta  occ. eigenvalues --   -0.62158  -0.61235  -0.58817  -0.58080  -0.55287
  Beta  occ. eigenvalues --   -0.52743  -0.50817  -0.50180  -0.48540  -0.47833
  Beta  occ. eigenvalues --   -0.47680  -0.47303  -0.46334  -0.45790  -0.45165
  Beta  occ. eigenvalues --   -0.43374  -0.43200  -0.43156  -0.42498  -0.41855
  Beta  occ. eigenvalues --   -0.41277  -0.39412  -0.39213  -0.38424  -0.37959
  Beta  occ. eigenvalues --   -0.37680  -0.36737  -0.35347  -0.34600  -0.31135
  Beta  occ. eigenvalues --   -0.30326  -0.29255  -0.28726  -0.28449  -0.26951
  Beta  occ. eigenvalues --   -0.26641  -0.22918
  Beta virt. eigenvalues --   -0.13269  -0.06308  -0.03799  -0.02965  -0.02494
  Beta virt. eigenvalues --   -0.01044  -0.00276   0.00223   0.00990   0.01231
  Beta virt. eigenvalues --    0.01497   0.01889   0.02547   0.02788   0.03225

 Mulliken charges and spin densities:
               1          2
     1  C   -0.046602   0.000000
     2  C   -0.479658   0.000000
     3  C   -0.436922  -0.000000
     4  C    0.582334  -0.000000
     5  C    0.478386  -0.000000
     6  C    0.045884   0.000000
     7  C   -0.532298  -0.000000
     8  C   -0.467392  -0.000000
     9  C    1.380300   0.000000
    10  C   -0.966169   0.000000
    11  O   -0.303408  -0.000000
    12  O   -0.223713   0.000000
    13  O   -0.156965   0.000000
    14  H    0.207466   0.000000
    15  H    0.209992   0.000000
    16  H    0.211716  -0.000000
    17  H    0.208200   0.000000
    18  H    0.304611   0.000000
    19  S   -0.192503  -0.000000
    20  C    0.587396  -0.000000
    21  C   -0.473926   0.000000
    22  C   -0.209268   0.000000
    23  C   -0.588551   0.000000
    24  C   -0.308234  -0.000000
    25  C    0.453909  -0.000000
    26  C   -0.601765   0.000000
    27  H    0.215418  -0.000000
    28  H    0.219899   0.000000
    29  H    0.183016   0.000000
    30  H    0.210993   0.000000
    31  H    0.154479   0.000000
    32  H    0.175500  -0.000000
    33  H    0.157874  -0.000000
 Sum of Mulliken charges =  -0.00000  -0.00000

 Dipole moment (field-independent basis, Debye):
    X=             -5.0263    Y=              0.0514    Z=              1.0811  Tot=              5.1415
 Quadrupole moment (field-independent basis, Debye-Ang):
   XX=           -137.4982   YY=           -111.2540   ZZ=           -130.5311
   XY=             -9.3023   XZ=              0.9904   YZ=             -4.1361

  Exact polarizability: 336.801 -44.837 412.021   2.548  79.872 275.844
 Approx polarizability: 374.714 -30.061 460.580  -1.989 120.266 352.892

                      1                      2                      3
                      A                      A                      A
 Frequencies --     21.4655                25.0771                28.5906
 Red. masses --      1.0599                 5.6721                 5.5422
 Frc consts  --      0.0003                 0.0021                 0.0027
 IR Inten    --      0.5033                 2.1633                 1.3283

                      4                      5                      6
                      A                      A                      A
 Frequencies --     34.5151                67.3129                92.4597
 Red. masses --      3.7094                 8.0829                 7.0525
 Frc consts  --      0.0026                 0.0216                 0.0355
 IR Inten    --      0.3567                 7.0192                 1.4236

                      7                      8                      9
                      A                      A                      A
 Frequencies --    116.0812               126.6245               170.0005
 Red. masses --      4.5757                 5.8619                 7.1144
 Frc consts  --      0.0363                 0.0554                 0.1211
 IR Inten    --      1.4625                 0.4538                 1.2816

                     10                     11                     12
                      A                      A                      A
 Frequencies --    188.1204               221.0490               266.9662
 Red. masses --      7.7477                 5.5210                 6.2269
 Frc consts  --      0.1615                 0.1589                 0.2615
 IR Inten    --      4.3665                 2.2459                 3.1241

                     13                     14                     15
                      A                      A                      A
 Frequencies --    282.3424               294.5269               342.6134
 Red. masses --      7.3070                 5.0395                 5.0736
 Frc consts  --      0.3432                 0.2576                 0.3509
 IR Inten    --      0.4366                 3.3339                 9.7229

                     16                     17                     18
                      A                      A                      A
 Frequencies --    361.3447               381.7384               392.3215
 Red. masses --      3.9872                 7.3508                11.0522
 Frc consts  --      0.3067                 0.6311                 1.0023
 IR Inten    --     12.8612                 2.2791                54.9033

                     19                     20                     21
                      A                      A                      A
 Frequencies --    397.8799               412.4638               416.1467
 Red. masses --      4.7637                 7.9918                 3.1399
 Frc consts  --      0.4443                 0.8011                 0.3204
 IR Inten    --      4.3504                14.1107                 3.1607

                     22                     23                     24
                      A                      A                      A
 Frequencies --    435.7923               448.5730               495.3262
 Red. masses --      4.0288                 5.1759                 7.4820
 Frc consts  --      0.4508                 0.6136                 1.0816
 IR Inten    --      0.7663                 4.2784                19.4713

                     25                     26                     27
                      A                      A                      A
 Frequencies --    504.3579               565.7243               592.6903
 Red. masses --      3.2808                 6.4891                 8.3624
 Frc consts  --      0.4917                 1.2236                 1.7308
 IR Inten    --     32.1104                35.9011                 1.9434

                     28                     29                     30
                      A                      A                      A
 Frequencies --    627.5749               640.9920               648.5709
 Red. masses --      5.5015                 1.1109                 6.9094
 Frc consts  --      1.2766                 0.2689                 1.7124
 IR Inten    --      4.8123               126.9274                 0.1969

                     31                     32                     33
                      A                      A                      A
 Frequencies --    668.0917               699.8252               716.4404
 Red. masses --      6.8847                 4.4681                 3.9901
 Frc consts  --      1.8105                 1.2893                 1.2067
 IR Inten    --     12.5986                27.4746                 3.8814

                     34                     35                     36
                      A                      A                      A
 Frequencies --    721.6475               733.5876               782.8738
 Red. masses --      5.9192                 2.5274                 6.7700
 Frc consts  --      1.8162                 0.8014                 2.4447
 IR Inten    --      7.0055               120.2252                 3.2876

                     37                     38                     39
                      A                      A                      A
 Frequencies --    805.4611               807.1526               822.5547
 Red. masses --      1.9274                 4.1008                 1.5321
 Frc consts  --      0.7367                 1.5741                 0.6108
 IR Inten    --     20.2278                16.2571                44.8489

                     40                     41                     42
                      A                      A                      A
 Frequencies --    834.5981               844.3831               875.7546
 Red. masses --      7.3175                 1.2532                 6.5474
 Frc consts  --      3.0031                 0.5264                 2.9586
 IR Inten    --     79.9292                 0.2441                32.1179

                     43                     44                     45
                      A                      A                      A
 Frequencies --    912.7664               962.2275               986.1876
 Red. masses --      1.3667                 1.2818                 1.3650
 Frc consts  --      0.6709                 0.6992                 0.7822
 IR Inten    --      0.7561                 0.9794                 0.4374

                     46                     47                     48
                      A                      A                      A
 Frequencies --    999.3049              1006.3065              1017.7815
 Red. masses --      1.3877                 1.4202                 7.8630
 Frc consts  --      0.8165                 0.8473                 4.7990
 IR Inten    --      1.6697                 1.4744               151.1636

                     49                     50                     51
                      A                      A                      A
 Frequencies --   1023.2489              1029.4343              1059.0644
 Red. masses --      1.3358                 3.6422                 2.1739
 Frc consts  --      0.8240                 2.2741                 1.4366
 IR Inten    --      0.0677                30.9086                20.5781

                     52                     53                     54
                      A                      A                      A
 Frequencies --   1059.6969              1093.8955              1106.5497
 Red. masses --      1.5504                 3.5024                 2.8181
 Frc consts  --      1.0258                 2.4693                 2.0330
 IR Inten    --     18.7135                22.5874                 3.6106

                     55                     56                     57
                      A                      A                      A
 Frequencies --   1135.7101              1137.7895              1181.6677
 Red. masses --      1.3316                 2.4385                 1.1192
 Frc consts  --      1.0120                 1.8600                 0.9207
 IR Inten    --     10.3458                77.7951                 9.3183

                     58                     59                     60
                      A                      A                      A
 Frequencies --   1203.8010              1227.8018              1230.2060
 Red. masses --      1.1341                 3.0690                 2.6720
 Frc consts  --      0.9683                 2.7258                 2.3826
 IR Inten    --      9.1291                23.2484                70.1242

                     61                     62                     63
                      A                      A                      A
 Frequencies --   1247.1318              1292.2288              1302.6849
 Red. masses --      2.7976                 3.4361                 1.9512
 Frc consts  --      2.5636                 3.3806                 1.9509
 IR Inten    --    143.9692               840.8664               223.6439

                     64                     65                     66
                      A                      A                      A
 Frequencies --   1308.7059              1333.7708              1359.9722
 Red. masses --      6.2946                 1.3597                 3.8452
 Frc consts  --      6.3519                 1.4251                 4.1902
 IR Inten    --     29.5764                 2.7344               445.3547

                     67                     68                     69
                      A                      A                      A
 Frequencies --   1368.5488              1409.3378              1422.5478
 Red. masses --      3.8391                 1.2445                 2.4194
 Frc consts  --      4.2364                 1.4564                 2.8847
 IR Inten    --    593.2292                 0.3211                 1.8062

                     70                     71                     72
                      A                      A                      A
 Frequencies --   1478.1630              1482.6276              1482.7812
 Red. masses --      1.0567                 1.1691                 2.1107
 Frc consts  --      1.3603                 1.5142                 2.7342
 IR Inten    --     12.4324                19.7346                 5.7175

                     73                     74                     75
                      A                      A                      A
 Frequencies --   1504.6867              1520.4629              1599.3606
 Red. masses --      2.6763                 2.2788                 5.7599
 Frc consts  --      3.5700                 3.1038                 8.6808
 IR Inten    --     14.8568                62.7888                 5.0647

                     76                     77                     78
                      A                      A                      A
 Frequencies --   1609.3773              1618.9400              1631.0998
 Red. masses --      6.5173                 5.9445                 5.6856
 Frc consts  --      9.9456                 9.1797                 8.9123
 IR Inten    --     15.9610               258.7458                 0.4522

                     79                     80                     81
                      A                      A                      A
 Frequencies --   1651.3569              1686.2480              1694.5116
 Red. masses --      7.0784                11.5495                12.1998
 Frc consts  --     11.3728                19.3489                20.6392
 IR Inten    --    205.6093               817.3460               180.5870

                     82                     83                     84
                      A                      A                      A
 Frequencies --   3022.5748              3076.0113              3105.1673
 Red. masses --      1.0405                 1.0954                 1.1024
 Frc consts  --      5.6005                 6.1064                 6.2625
 IR Inten    --     46.6122                26.9034                28.0727

                     85                     86                     87
                      A                      A                      A
 Frequencies --   3160.7439              3163.0762              3182.0640
 Red. masses --      1.0885                 1.0885                 1.0876
 Frc consts  --      6.4072                 6.4165                 6.4885
 IR Inten    --     17.3296                19.7989                 2.9269

                     88                     89                     90
                      A                      A                      A
 Frequencies --   3182.6761              3184.3081              3193.7490
 Red. masses --      1.0933                 1.0943                 1.0911
 Frc consts  --      6.5250                 6.5377                 6.5572
 IR Inten    --     23.0964                 2.1303                 7.3857

                     91                     92                     93
                      A                      A                      A
 Frequencies --   3204.5303              3208.3615              3592.4914
 Red. masses --      1.0936                 1.0954                 1.0643
 Frc consts  --      6.6164                 6.6436                 8.0929
 IR Inten    --      4.0038                14.2268               348.1430

 - Thermochemistry -
 -------------------
 Temperature   298.150 Kelvin.  Pressure   1.00000 Atm.
 Atom     1 has atomic number  6 and mass  12.00000

 Molecular mass:   296.05072 amu.
 Principal axes and moments of inertia in atomic units:
                           1         2         3
     Eigenvalues --  3537.22367********************
           X           -0.46185   0.83108  -0.30984
           Y            0.88664   0.42327  -0.18629
           Z            0.02368   0.36076   0.93236
 This molecule is an asymmetric top.
 Rotational symmetry number  1.
 Warning -- assumption of classical behavior for rotation
           may cause significant error
 Rotational temperatures (Kelvin)      0.02449     0.00834     0.00708
 Rotational constants (GHZ):           0.51021     0.17387     0.14744
 Zero-point vibrational energy     643383.7 (Joules/Mol)
                                  153.77239 (Kcal/Mol)
 Warning -- explicit consideration of  27 degrees of freedom as
           vibrations may cause significant error
 Vibrational temperatures:     30.88    36.08    41.14    49.66    96.85
          (Kelvin)            133.03   167.01   182.18   244.59   270.66
                              318.04   384.10   406.23   423.76   492.94
                              519.89   549.24   564.46   572.46   593.44
                              598.74   627.01   645.40   712.66   725.66
                              813.95   852.75   902.94   922.24   933.15
                              961.23  1006.89  1030.80  1038.29  1055.47
                             1126.38  1158.88  1161.31  1183.47  1200.80
                             1214.88  1260.02  1313.27  1384.43  1418.90
                             1437.78  1447.85  1464.36  1472.23  1481.13
                             1523.76  1524.67  1573.87  1592.08  1634.03
                             1637.03  1700.16  1732.00  1766.53  1769.99
                             1794.34  1859.23  1874.27  1882.94  1919.00
                             1956.70  1969.04  2027.72  2046.73  2126.75
                             2133.17  2133.39  2164.91  2187.61  2301.12
                             2315.54  2329.29  2346.79  2375.93  2426.13
                             2438.02  4348.81  4425.69  4467.64  4547.61
                             4550.96  4578.28  4579.16  4581.51  4595.09
                             4610.60  4616.12  5168.79

 Zero-point correction=                           0.245052 (Hartree/Particle)
 Thermal correction to Energy=                    0.263131
 Thermal correction to Enthalpy=                  0.264075
 Thermal correction to Gibbs Free Energy=         0.195910
 Sum of electronic and zero-point Energies=          -1278.928988
 Sum of electronic and thermal Energies=             -1278.910909
 Sum of electronic and thermal Enthalpies=           -1278.909964
 Sum of electronic and thermal Free Energies=        -1278.978130

                     E (Thermal)             CV                S
                      KCal/Mol        Cal/Mol-Kelvin    Cal/Mol-Kelvin
 Total                  165.117             68.944            143.467
 Electronic               0.000              0.000              0.000
 Translational            0.889              2.981             42.953
 Rotational               0.889              2.981             34.462
 Vibrational            163.340             62.983             66.051
 Vibration     1          0.593              1.985              6.494
 Vibration     2          0.593              1.985              6.185
 Vibration     3          0.593              1.984              5.925
 Vibration     4          0.594              1.983              5.551
 Vibration     5          0.598              1.970              4.230
 Vibration     6          0.602              1.955              3.607
 Vibration     7          0.608              1.936              3.165
 Vibration     8          0.611              1.927              2.997
 Vibration     9          0.625              1.879              2.435
 Vibration    10          0.633              1.856              2.246
 Vibration    11          0.648              1.809              1.950
 Vibration    12          0.672              1.734              1.616
 Vibration    13          0.681              1.706              1.519
 Vibration    14          0.689              1.684              1.448
 Vibration    15          0.722              1.590              1.200
 Vibration    16          0.736              1.552              1.116
 Vibration    17          0.751              1.509              1.032
 Vibration    18          0.760              1.487              0.991
 Vibration    19          0.764              1.475              0.970
 Vibration    20          0.776              1.443              0.918
 Vibration    21          0.779              1.435              0.905
 Vibration    22          0.796              1.392              0.840
 Vibration    23          0.808              1.364              0.800
 Vibration    24          0.851              1.260              0.670
 Vibration    25          0.860              1.240              0.647
 Vibration    26          0.922              1.105              0.513
 Vibration    27          0.950              1.047              0.462

                           ! Non-Optimized Parameters !
 Normal termination of Gaussian 16 at Sun Feb 11 20:06:30 2024.
