 Q-Chem 5.4, Q-Chem, Inc., Pleasanton, CA (2021)
 Q-Chem 5.4.0 for Intel X86 EM64T Linux

User input:
--------------------------------------------------------------
$molecule
0 1
N                 -4.5123570000     -0.8893230000     -0.7774490000
C                 -3.2682400000     -0.6408720000     -0.2323240000
C                 -3.0675900000     -0.7108990000      1.1617370000
C                 -1.8120990000     -0.5059270000      1.7020800000
C                 -0.7094120000     -0.2260560000      0.8833380000
C                  0.6193500000     -0.0119900000      1.4941200000
O                  0.7924630000     -0.0701040000      2.7040300000
C                  1.7595410000      0.2815830000      0.5703000000
C                  3.0327400000      0.4874640000      1.1086500000
C                  4.1100100000      0.7620020000      0.2737770000
C                  3.9252460000      0.8340200000     -1.1096760000
C                  2.6629450000      0.6313090000     -1.6544390000
C                  1.5737050000      0.3542220000     -0.8218500000
C                  0.2303180000      0.1416970000     -1.4339540000
O                  0.0644260000      0.2088580000     -2.6414520000
C                 -0.9061120000     -0.1564790000     -0.5093280000
C                 -2.1680010000     -0.3622260000     -1.0557270000
H                 -5.3154550000     -0.8192080000     -0.1728270000
H                 -4.6768120000     -0.5938770000     -1.7268320000
H                 -3.9085850000     -0.9308770000      1.8114650000
H                 -1.6564890000     -0.5577450000      2.7728120000
H                  3.1525910000      0.4270770000      2.1832900000
H                  5.0952890000      0.9204020000      0.6976560000
H                  4.7666210000      1.0481010000     -1.7589770000
H                  2.4958540000      0.6823910000     -2.7232550000
H                 -2.2799470000     -0.3035420000     -2.1324930000
$end
$rem
MAX_SCF_CYCLES=200
BASIS  =  6-311++G(d,p)
GUI  =  2
JOB_TYPE  =  SP
METHOD  =  B3LYP
SOLVENT_METHOD = COSMO
$end
$solvent
dielectric 37.219
opticaldielectric 1.43
$end

--------------------------------------------------------------

             Standard Nuclear Orientation (Angstroms)
    I     Atom           X                Y                Z
 ----------------------------------------------------------------
    1      N       4.6564939928    -0.8459264657    -0.0530138850
    2      C       3.4000625428    -0.2751421928    -0.0050388920
    3      C       3.2472745081     1.1267227637    -0.0041813934
    4      C       1.9879674595     1.6962656920    -0.0012935254
    5      C       0.8343390775     0.9001964268    -0.0009188397
    6      C      -0.4970562104     1.5419622385     0.0023349048
    7      O      -0.6291628929     2.7584172526     0.0058815847
    8      C      -1.6924198452     0.6415358966     0.0008521355
    9      C      -2.9693170019     1.2096705573     0.0010987025
   10      C      -4.0973365883     0.3969806038    -0.0001440936
   11      C      -3.9602840083    -0.9938759195    -0.0012635212
   12      C      -2.6948294673    -1.5682338353    -0.0009813966
   13      C      -1.5546259541    -0.7580729598    -0.0001267357
   14      C      -0.2092101067    -1.4017981542     0.0008144835
   15      O      -0.0858793093    -2.6162341339     0.0049304489
   16      C       0.9833696186    -0.5001023119    -0.0028622610
   17      C       2.2489697822    -1.0758586799    -0.0057560868
   18      H       5.4440330099    -0.2774517872     0.2154430207
   19      H       4.7400347309    -1.8193674722     0.1941609898
   20      H       4.1289343141     1.7595442991    -0.0089010636
   21      H       1.8687676350     2.7729052381     0.0010048592
   22      H      -3.0516996281     2.2895196281     0.0021325080
   23      H      -5.0851400853     0.8439514115    -0.0002953311
   24      H      -4.8411697454    -1.6258359518    -0.0023541839
   25      H      -2.5641831254    -2.6433280098    -0.0016626292
   26      H       2.3238797233    -2.1574177969    -0.0101281299
 ----------------------------------------------------------------

    9    -744.3347681821      3.08e-06  Convergence criterion met
 Total energy in the final basis set =     -744.3347681821
    5    -744.3557480477      4.39e-06  Convergence criterion met
 Total energy in the final basis set =     -744.3557480477

                    Orbital Energies (a.u.)
 --------------------------------------------------------------

 Alpha MOs
 -- Occupied --
-19.1313 -19.1227 -14.3333 -10.2828 -10.2758 -10.2412 -10.2059 -10.2053
-10.2048 -10.1948 -10.1944 -10.1940 -10.1937 -10.1934 -10.1930 -10.1890
-10.1889  -1.0663  -1.0578  -0.9396  -0.8876  -0.8682  -0.8020  -0.7757
 -0.7732  -0.7553  -0.6859  -0.6639  -0.6392  -0.6177  -0.5850  -0.5627
 -0.5587  -0.5266  -0.5089  -0.4970  -0.4822  -0.4680  -0.4582  -0.4528
 -0.4491  -0.4451  -0.4444  -0.4315  -0.4168  -0.4102  -0.4024  -0.3787
 -0.3759  -0.3708  -0.3617  -0.3300  -0.2865  -0.2840  -0.2771  -0.2747
 -0.2727  -0.2300

          Ground-State Mulliken Net Atomic Charges

     Atom                 Charge (a.u.)
  ----------------------------------------
      1 N                    -0.364047
      2 C                    -0.452392
      3 C                    -0.094408
      4 C                     0.202996
      5 C                     0.131722
      6 C                    -0.556151
      7 O                    -0.329555
      8 C                     0.092196
      9 C                     0.187954
     10 C                    -0.447441
     11 C                    -0.435450
     12 C                     0.169553
     13 C                     0.271057
     14 C                    -0.696346
     15 O                    -0.298795
     16 C                     0.541278
     17 C                     0.004201
     18 H                     0.303599
     19 H                     0.303912
     20 H                     0.230133
     21 H                     0.199439
     22 H                     0.199330
     23 H                     0.224355
     24 H                     0.225243
     25 H                     0.198656
     26 H                     0.188961
  ----------------------------------------
  Sum of atomic charges =     0.000000

                    Cartesian Multipole Moments
 -----------------------------------------------------------------
    Charge (ESU x 10^10)
                 0.0000
    Dipole Moment (Debye)
         X       3.2856      Y      -1.3849      Z       0.9668
       Tot       3.6943
    Quadrupole Moments (Debye-Ang)
        XX     -47.5560     XY       0.9369     YY    -110.6019
        XZ       5.2080     YZ      -1.0564     ZZ    -101.8831

 Total job time:  71.27s(wall), 387.60s(cpu)
        *  Thank you very much for using Q-Chem.  Have a nice day.  *
