 Q-Chem 5.4, Q-Chem, Inc., Pleasanton, CA (2021)
 Q-Chem 5.4.0 for Intel X86 EM64T Linux

User input:
--------------------------------------------------------------
$molecule
0 1
C                  4.8263720000     -3.0159550000      0.2902800000
C                  5.7306640000     -2.2040530000     -0.3836380000
C                  5.2952060000     -1.0278070000     -1.0009820000
C                  3.4758190000     -2.6580240000      0.3526560000
C                  3.0376240000     -1.4741980000     -0.2687100000
C                  3.9553140000     -0.6636770000     -0.9442640000
C                  2.5241520000     -3.5335050000      1.0749730000
C                  1.1127350000     -3.1425550000      1.1221910000
C                  0.6680590000     -1.9435050000      0.4936390000
C                  1.6120490000     -1.0738990000     -0.2175570000
C                  0.2003870000     -3.9701320000      1.8023540000
C                 -1.1629490000     -3.5799420000      1.8360420000
C                 -0.6882790000     -1.5828650000      0.5554340000
C                 -1.5958100000     -2.4212950000      1.2380200000
O                  2.9221870000     -4.5736080000      1.6241590000
O                  1.2315200000     -0.0286050000     -0.7638700000
O                  0.5678570000     -5.0899870000      2.4210810000
H                  5.1438910000     -3.9307180000      0.7744350000
H                  6.7765200000     -2.4846950000     -0.4304080000
H                  6.0038200000     -0.3975010000     -1.5257000000
H                  1.5456620000     -5.1917350000      2.2716390000
O                 -1.1822390000     -0.4740050000     -0.0025480000
H                 -2.6400320000     -2.1391880000      1.2854400000
H                 -0.4277760000     -0.0055950000     -0.4365490000
H                  3.5978740000      0.2429740000     -1.4158250000
S                 -2.4066770000     -4.6287490000      2.6187060000
O                 -3.6452750000     -3.8728450000      2.6356710000
O                 -2.3587950000     -5.9651570000      2.0475400000
O                 -1.8395460000     -4.6681120000      4.1434930000
C                 -1.5215420000     -5.9524530000      4.7432170000
H                 -0.8495670000     -6.5158000000      4.0990640000
H                 -2.4361780000     -6.5131420000      4.9360600000
H                 -1.0313760000     -5.6940540000      5.6796090000
$end
$rem
MAX_SCF_CYCLES=200
BASIS  =  6-311++G(d,p)
GUI  =  2
JOB_TYPE  =  SP
METHOD  =  B3LYP
SOLVENT_METHOD = COSMO
$end
$solvent
dielectric 37.219
opticaldielectric 1.43
$end

--------------------------------------------------------------

             Standard Nuclear Orientation (Angstroms)
    I     Atom           X                Y                Z
 ----------------------------------------------------------------
    1      C       3.8037444587    -2.0345877485    -0.0664586370
    2      C       5.1584620745    -1.7289211998    -0.0174434163
    3      C       5.5764927671    -0.3973196009     0.0624280962
    4      C       2.8532393148    -1.0091011293    -0.0361941828
    5      C       3.2740381626     0.3310573928     0.0441676714
    6      C       4.6395401452     0.6284909837     0.0932597186
    7      C       1.4129789805    -1.3508047543    -0.0888032220
    8      C       0.4346344507    -0.2602470833    -0.0624339746
    9      C       0.8598170770     1.0973408969     0.0194798492
   10      C       2.2866105013     1.4351643366     0.0766402718
   11      C      -0.9357785888    -0.5747974705    -0.1163823360
   12      C      -1.8702816802     0.4920930081    -0.0936481053
   13      C      -0.0938937602     2.1283824735     0.0498361983
   14      C      -1.4660805994     1.8023000147    -0.0073873707
   15      O       1.0521767345    -2.5371181513    -0.1546335939
   16      O       2.6622024274     2.6138791562     0.1505445293
   17      O      -1.3848813083    -1.8265255211    -0.1748302370
   18      H       3.4600728514    -3.0592975946    -0.1287104100
   19      H       5.8924017438    -2.5261120881    -0.0415553887
   20      H       6.6341086624    -0.1633051875     0.1003003333
   21      H      -0.5849236852    -2.4168465382    -0.1942488570
   22      O       0.2233207277     3.4236345539     0.1311252540
   23      H      -2.1984000268     2.5993440787     0.0183345521
   24      H       1.2096731530     3.4804778585     0.1603988991
   25      H       4.9425632615     1.6660562437     0.1547779144
   26      S      -3.6413761397     0.1743528173    -0.2409029360
   27      O      -4.3169688217     1.4373778679    -0.0082101695
   28      O      -3.9077418984    -0.6013546264    -1.4416680555
   29      O      -3.8825545149    -0.7558463726     1.0723848736
   30      C      -4.4310961181    -2.0897705388     0.8989615390
   31      H      -3.8473898207    -2.6480199449     0.1699293797
   32      H      -5.4763231954    -2.0290309034     0.5957608738
   33      H      -4.3487545947    -2.5409637395     1.8856262731
 ----------------------------------------------------------------

    9   -1502.6632089456      7.85e-06  Convergence criterion met
 Total energy in the final basis set =    -1502.6632089456
    5   -1502.6867437902      3.62e-06  Convergence criterion met
 Total energy in the final basis set =    -1502.6867437902

                    Orbital Energies (a.u.)
 --------------------------------------------------------------

 Alpha MOs
 -- Occupied --
-89.1086 -19.1916 -19.1763 -19.1730 -19.1547 -19.1538 -19.1483 -19.1481
-10.2983 -10.2978 -10.2902 -10.2803 -10.2492 -10.2326 -10.2255 -10.2253
-10.2248 -10.2160 -10.2154 -10.2020 -10.2020 -10.2012 -10.2007  -8.1687
 -6.1324  -6.1308  -6.1295  -1.1775  -1.1082  -1.1024  -1.0722  -1.0707
 -1.0645  -1.0509  -0.9085  -0.8915  -0.8397  -0.7939  -0.7877  -0.7806
 -0.7558  -0.7166  -0.6932  -0.6726  -0.6502  -0.6387  -0.6100  -0.5823
 -0.5795  -0.5716  -0.5567  -0.5482  -0.5301  -0.5127  -0.5107  -0.5013
 -0.4865  -0.4830  -0.4769  -0.4688  -0.4629  -0.4597  -0.4571  -0.4565
 -0.4470  -0.4467  -0.4390  -0.4174  -0.4152  -0.4130  -0.3986  -0.3881
 -0.3845  -0.3764  -0.3731  -0.3670  -0.3556  -0.3472  -0.3459  -0.3307
 -0.3082  -0.3080  -0.2916  -0.2861  -0.2841  -0.2472

          Ground-State Mulliken Net Atomic Charges

     Atom                 Charge (a.u.)
  ----------------------------------------
      1 C                    -0.005381
      2 C                    -0.386435
      3 C                    -0.467933
      4 C                     0.402352
      5 C                     0.062965
      6 C                     0.045671
      7 C                    -0.486331
      8 C                     0.588962
      9 C                     0.790395
     10 C                    -0.335427
     11 C                    -0.456648
     12 C                    -0.536661
     13 C                    -0.379484
     14 C                    -0.193815
     15 O                    -0.324684
     16 O                    -0.328916
     17 O                    -0.329928
     18 H                     0.203821
     19 H                     0.235145
     20 H                     0.231655
     21 H                     0.438705
     22 O                    -0.329918
     23 H                     0.287379
     24 H                     0.375878
     25 H                     0.210226
     26 S                     1.011462
     27 O                    -0.144926
     28 O                    -0.238858
     29 O                    -0.193970
     30 C                    -0.353705
     31 H                     0.204339
     32 H                     0.215485
     33 H                     0.188576
  ----------------------------------------
  Sum of atomic charges =    -0.000006

                    Cartesian Multipole Moments
 -----------------------------------------------------------------
    Charge (ESU x 10^10)
                -0.0000
    Dipole Moment (Debye)
         X       8.0979      Y      -4.1314      Z       1.9463
       Tot       9.2969
    Quadrupole Moments (Debye-Ang)
        XX    -122.1870     XY       5.0527     YY    -143.2222
        XZ      -8.9282     YZ      -5.0324     ZZ    -143.6630

 Total job time:  118.27s(wall), 812.65s(cpu)
        *  Thank you very much for using Q-Chem.  Have a nice day.  *
