 Gaussian 16, Revision A.03,
 Gaussian 16:  ES64L-G16RevA.03 25-Dec-2016

 ----------------------------------------------------------------
 #P UB3LYP/6-311++G(d,p) SCRF=(PCM,Solvent=n,n-DiMethylFormamide)
 ----------------------------------------------------------------

 ------------------
 Radical PCM in DMF
 ------------------
 Symbolic Z-matrix:
 Charge = -1 Multiplicity = 2

                         Standard orientation:
 ---------------------------------------------------------------------
 Center     Atomic      Atomic             Coordinates (Angstroms)
 Number     Number       Type             X           Y           Z
 ---------------------------------------------------------------------
      1          6           0        0.388777    1.455603   -0.101911
      2          6           0       -0.933632    2.052014   -0.066227
      3          6           0       -2.066972    1.305591    0.007812
      4          6           0       -2.039835   -0.141187    0.056668
      5          6           0       -0.725946   -0.778352    0.018933
      6          6           0        0.443430   -0.010421   -0.045060
      7          8           0        1.408638    2.187458   -0.208157
      8          8           0       -3.113366   -0.806734    0.131313
      9          6           0        1.777701   -0.670492   -0.068340
     10          6           0        2.973496    0.025598    0.567260
     11          8           0        1.951154   -1.783440   -0.559348
     12          1           0       -0.964767    3.136913   -0.111172
     13          1           0       -3.050473    1.767044    0.031910
     14          1           0        2.693298    0.635581    1.427062
     15          1           0        3.421310    0.708596   -0.157561
     16          1           0        3.696740   -0.744738    0.846538
     17          6           0       -0.738764   -2.284138    0.091942
     18          1           0       -1.707191   -2.607127    0.475646
     19          1           0        0.070758   -2.673994    0.711057
     20          1           0       -0.600615   -2.725843   -0.900405
 ---------------------------------------------------------------------

 SCF Done:  E(UB3LYP) =  -573.739868826     A.U. after   20 cycles

 The electronic state is 2-A.
 Alpha  occ. eigenvalues --  -19.10460 -19.08167 -19.07993 -10.25642 -10.22967
 Alpha  occ. eigenvalues --  -10.22201 -10.18634 -10.17261 -10.16920 -10.16705
 Alpha  occ. eigenvalues --  -10.15703 -10.15150  -1.03649  -1.00550  -1.00243
 Alpha  occ. eigenvalues --   -0.82999  -0.77198  -0.74053  -0.69908  -0.66554
 Alpha  occ. eigenvalues --   -0.61521  -0.56190  -0.52736  -0.48833  -0.46844
 Alpha  occ. eigenvalues --   -0.45795  -0.44178  -0.42509  -0.41818  -0.41477
 Alpha  occ. eigenvalues --   -0.40329  -0.40034  -0.39136  -0.38373  -0.37057
 Alpha  occ. eigenvalues --   -0.36152  -0.36009  -0.34910  -0.28352  -0.25914
 Alpha  occ. eigenvalues --   -0.25512  -0.24695  -0.23514  -0.16753
 Alpha virt. eigenvalues --   -0.05002  -0.00210   0.00962   0.01159   0.01319
 Alpha virt. eigenvalues --    0.02646   0.03287   0.03638   0.04123   0.04389
 Alpha virt. eigenvalues --    0.05178   0.06120   0.06910   0.07328   0.08277

  Beta  occ. eigenvalues --  -19.10410 -19.07411 -19.07397 -10.25638 -10.22870
  Beta  occ. eigenvalues --  -10.22065 -10.18390 -10.17205 -10.16873 -10.16582
  Beta  occ. eigenvalues --  -10.15704 -10.15165  -1.03556  -0.99504  -0.98931
  Beta  occ. eigenvalues --   -0.82375  -0.76926  -0.73853  -0.69599  -0.65834
  Beta  occ. eigenvalues --   -0.61194  -0.55803  -0.52477  -0.48610  -0.46562
  Beta  occ. eigenvalues --   -0.45571  -0.43762  -0.42325  -0.41149  -0.41005
  Beta  occ. eigenvalues --   -0.40037  -0.39610  -0.38580  -0.37478  -0.35902
  Beta  occ. eigenvalues --   -0.35800  -0.34874  -0.34382  -0.25578  -0.25436
  Beta  occ. eigenvalues --   -0.24603  -0.24027  -0.23043
  Beta virt. eigenvalues --   -0.09708  -0.03856  -0.00177   0.01150   0.01319
  Beta virt. eigenvalues --    0.02097   0.03013   0.03356   0.03715   0.04433
  Beta virt. eigenvalues --    0.04816   0.05832   0.06158   0.07148   0.07377

 Mulliken charges and spin densities:
               1          2
     1  C   -1.015931   0.062821
     2  C   -0.071651   0.084535
     3  C    0.007695   0.032428
     4  C   -0.916620   0.091409
     5  C    0.636341   0.176038
     6  C    1.454314   0.043188
     7  O   -0.447556   0.212265
     8  O   -0.476126   0.270195
     9  C   -0.164428   0.012066
    10  C   -0.643547   0.002679
    11  O   -0.333262   0.015921
    12  H    0.192211  -0.007912
    13  H    0.192690  -0.004387
    14  H    0.157952  -0.000412
    15  H    0.198211   0.000999
    16  H    0.158237  -0.000664
    17  C   -0.434474  -0.004880
    18  H    0.162238  -0.001051
    19  H    0.154869   0.004340
    20  H    0.188834   0.010422
 Sum of Mulliken charges =  -1.00000   1.00000

 Dipole moment (field-independent basis, Debye):
    X=              2.0126    Y=              0.5133    Z=              1.6473  Tot=              2.6510
 Quadrupole moment (field-independent basis, Debye-Ang):
   XX=           -104.3243   YY=            -91.1401   ZZ=            -74.2219
   XY=             -8.6188   XZ=              4.9282   YZ=             -1.2979

 Normal termination of Gaussian 16 at Sun Jan 21 07:27:32 2024.
