 Gaussian 16, Revision A.03,
 Gaussian 16:  ES64L-G16RevA.03 25-Dec-2016

 ----------------------------------------------------------------------
 #P UB3LYP/6-311++G(d,p) nosym opt freq SCRF=(PCM,Solvent=n,n-DiMethylF
 ormamide)
 ----------------------------------------------------------------------

 -------
 Reduced
 -------
 Symbolic Z-matrix:
 Charge = -2 Multiplicity = 1

 SCF Done:  E(UB3LYP) =  -1357.83870871     A.U. after   19 cycles
 SCF Done:  E(UB3LYP) =  -1357.84085237     A.U. after   17 cycles
 SCF Done:  E(UB3LYP) =  -1357.84141983     A.U. after   17 cycles
 SCF Done:  E(UB3LYP) =  -1357.84159223     A.U. after   16 cycles
 SCF Done:  E(UB3LYP) =  -1357.84156843     A.U. after   12 cycles
 SCF Done:  E(UB3LYP) =  -1357.84158167     A.U. after   12 cycles
 SCF Done:  E(UB3LYP) =  -1357.84157222     A.U. after   12 cycles
 SCF Done:  E(UB3LYP) =  -1357.84158381     A.U. after   11 cycles
 SCF Done:  E(UB3LYP) =  -1357.84157388     A.U. after   11 cycles
 SCF Done:  E(UB3LYP) =  -1357.84158468     A.U. after   11 cycles
 SCF Done:  E(UB3LYP) =  -1357.84157465     A.U. after   11 cycles
 SCF Done:  E(UB3LYP) =  -1357.84158498     A.U. after   12 cycles
 SCF Done:  E(UB3LYP) =  -1357.84157506     A.U. after   11 cycles
 SCF Done:  E(UB3LYP) =  -1357.84158526     A.U. after   11 cycles
 SCF Done:  E(UB3LYP) =  -1357.84158534     A.U. after   10 cycles
 SCF Done:  E(UB3LYP) =  -1357.84158537     A.U. after    9 cycles
 Optimization completed.
    -- Stationary point found.
 Normal termination of Gaussian 16 at Sun Feb 11 19:42:52 2024.

 ----------------------------------------------------------------------
 #P Geom=AllCheck Guess=TCheck SCRF=Check GenChk UB3LYP/6-311++G(d,p) F
 req
 ----------------------------------------------------------------------

 Structure from the checkpoint file:  "314-an.chk"
 -------
 Reduced
 -------
 Charge = -2 Multiplicity = 1

                          Input orientation:
 ---------------------------------------------------------------------
 Center     Atomic      Atomic             Coordinates (Angstroms)
 Number     Number       Type             X           Y           Z
 ---------------------------------------------------------------------
      1          6           0       -4.387596   -0.701173   -3.452877
      2          6           0       -3.581436   -0.956159   -4.544935
      3          6           0       -2.225194   -0.559666   -4.523748
      4          6           0       -3.899123   -0.046747   -2.292758
      5          6           0       -2.522118    0.352107   -2.272139
      6          6           0       -1.720202    0.077156   -3.405843
      7          6           0       -4.795181    0.200374   -1.170786
      8          6           0       -4.224572    0.855441   -0.060144
      9          6           0       -2.840050    1.255178   -0.051382
     10          6           0       -1.930140    1.025675   -1.115629
     11          8           0       -6.050188   -0.178093   -1.231971
     12          8           0       -0.677698    1.352894   -1.114972
     13          1           0       -5.429914   -0.998957   -3.451207
     14          1           0       -3.986615   -1.459363   -5.417829
     15          1           0       -1.586016   -0.755153   -5.379251
     16          1           0       -0.682338    0.387601   -3.369320
     17          6           0       -5.116144    1.128725    1.128248
     18         16           0       -2.217277    2.171460    1.358696
     19          6           0       -1.614761    0.946562    2.518713
     20          6           0       -1.160815    1.368104    3.755750
     21          6           0       -0.672816    0.444208    4.713685
     22          6           0       -0.652418   -0.951843    4.392916
     23          6           0       -1.124209   -1.354507    3.114874
     24          6           0       -1.590627   -0.438296    2.203914
     25          6           0       -0.203606    0.854554    5.993175
     26          6           0        0.260737   -0.066317    6.903651
     27          6           0        0.280959   -1.446348    6.583766
     28          6           0       -0.166430   -1.875648    5.354800
     29          1           0       -5.317522    2.199657    1.264690
     30          1           0       -4.679997    0.775588    2.068785
     31          1           0       -6.070483    0.624930    0.972043
     32          1           0       -1.175490    2.423454    4.012306
     33          1           0       -1.110696   -2.409855    2.860417
     34          1           0       -1.946320   -0.755343    1.230661
     35          1           0       -0.217903    1.910951    6.241507
     36          1           0        0.614645    0.262861    7.874540
     37          1           0        0.649908   -2.161084    7.310736
     38          1           0       -0.153341   -2.931772    5.104548
 ---------------------------------------------------------------------

 SCF Done:  E(UB3LYP) =  -1357.84158537     A.U. after    1 cycles

 Alpha  occ. eigenvalues --  -88.82985 -19.02063 -19.00993 -10.20105 -10.18618
 Alpha  occ. eigenvalues --  -10.18249 -10.18100 -10.17642 -10.17620 -10.17594
 Alpha  occ. eigenvalues --  -10.17493 -10.17373 -10.17220 -10.17084 -10.16644
 Alpha  occ. eigenvalues --  -10.15336 -10.15174 -10.15096 -10.14922 -10.14703
 Alpha  occ. eigenvalues --  -10.14342 -10.14286 -10.13333 -10.13201  -7.91566
 Alpha  occ. eigenvalues --   -5.87961  -5.87542  -5.87010  -0.93561  -0.91896
 Alpha  occ. eigenvalues --   -0.87811  -0.83144  -0.82866  -0.78978  -0.77559
 Alpha  occ. eigenvalues --   -0.75516  -0.72964  -0.72468  -0.72355  -0.70029
 Alpha  occ. eigenvalues --   -0.65726  -0.63007  -0.62329  -0.60476  -0.59761
 Alpha  occ. eigenvalues --   -0.57176  -0.56288  -0.52495  -0.51487  -0.50447
 Alpha  occ. eigenvalues --   -0.48527  -0.47735  -0.46099  -0.44795  -0.44073
 Alpha  occ. eigenvalues --   -0.43289  -0.42140  -0.42038  -0.41695  -0.40169
 Alpha  occ. eigenvalues --   -0.39790  -0.39447  -0.38806  -0.37914  -0.37388
 Alpha  occ. eigenvalues --   -0.36634  -0.36250  -0.35312  -0.34662  -0.34088
 Alpha  occ. eigenvalues --   -0.33692  -0.33433  -0.32850  -0.31649  -0.30860
 Alpha  occ. eigenvalues --   -0.30665  -0.29624  -0.29336  -0.26618  -0.23180
 Alpha  occ. eigenvalues --   -0.23021  -0.22330  -0.21234  -0.20180  -0.19778
 Alpha  occ. eigenvalues --   -0.18687  -0.11760
 Alpha virt. eigenvalues --   -0.04697  -0.01773  -0.01098  -0.00241   0.00031
 Alpha virt. eigenvalues --    0.00369   0.00649   0.01049   0.01301   0.01811
 Alpha virt. eigenvalues --    0.02463   0.02919   0.03057   0.03862   0.04244

  Beta  occ. eigenvalues --  -88.82985 -19.02063 -19.00993 -10.20105 -10.18618
  Beta  occ. eigenvalues --  -10.18249 -10.18100 -10.17642 -10.17620 -10.17594
  Beta  occ. eigenvalues --  -10.17493 -10.17373 -10.17220 -10.17084 -10.16644
  Beta  occ. eigenvalues --  -10.15336 -10.15174 -10.15096 -10.14922 -10.14703
  Beta  occ. eigenvalues --  -10.14342 -10.14286 -10.13333 -10.13201  -7.91566
  Beta  occ. eigenvalues --   -5.87961  -5.87542  -5.87010  -0.93561  -0.91896
  Beta  occ. eigenvalues --   -0.87811  -0.83144  -0.82866  -0.78978  -0.77559
  Beta  occ. eigenvalues --   -0.75516  -0.72964  -0.72468  -0.72355  -0.70029
  Beta  occ. eigenvalues --   -0.65726  -0.63007  -0.62329  -0.60476  -0.59761
  Beta  occ. eigenvalues --   -0.57176  -0.56288  -0.52495  -0.51487  -0.50447
  Beta  occ. eigenvalues --   -0.48527  -0.47735  -0.46099  -0.44795  -0.44073
  Beta  occ. eigenvalues --   -0.43289  -0.42140  -0.42038  -0.41695  -0.40169
  Beta  occ. eigenvalues --   -0.39790  -0.39447  -0.38806  -0.37914  -0.37388
  Beta  occ. eigenvalues --   -0.36634  -0.36250  -0.35312  -0.34662  -0.34088
  Beta  occ. eigenvalues --   -0.33692  -0.33433  -0.32850  -0.31649  -0.30860
  Beta  occ. eigenvalues --   -0.30665  -0.29624  -0.29336  -0.26618  -0.23180
  Beta  occ. eigenvalues --   -0.23021  -0.22330  -0.21234  -0.20180  -0.19778
  Beta  occ. eigenvalues --   -0.18687  -0.11760
  Beta virt. eigenvalues --   -0.04697  -0.01773  -0.01098  -0.00241   0.00031
  Beta virt. eigenvalues --    0.00369   0.00649   0.01049   0.01301   0.01811
  Beta virt. eigenvalues --    0.02463   0.02919   0.03057   0.03862   0.04244

 Mulliken charges and spin densities:
               1          2
     1  C   -0.061675  -0.000000
     2  C   -0.547900  -0.000000
     3  C   -0.491806  -0.000000
     4  C    0.370930   0.000000
     5  C    0.075659   0.000000
     6  C   -0.070193   0.000000
     7  C   -0.472355  -0.000000
     8  C    0.451015   0.000000
     9  C    0.786298  -0.000000
    10  C   -0.549561   0.000000
    11  O   -0.714602   0.000000
    12  O   -0.628191   0.000000
    13  H    0.171084   0.000000
    14  H    0.157188  -0.000000
    15  H    0.159227   0.000000
    16  H    0.172934  -0.000000
    17  C   -0.562454  -0.000000
    18  S   -0.364638  -0.000000
    19  C   -0.029633   0.000000
    20  C   -0.061050   0.000000
    21  C   -0.104847   0.000000
    22  C    0.234417   0.000000
    23  C   -0.090747  -0.000000
    24  C   -0.400369   0.000000
    25  C   -0.253950   0.000000
    26  C   -0.311298  -0.000000
    27  C   -0.220790   0.000000
    28  C   -0.344436  -0.000000
    29  H    0.150071  -0.000000
    30  H    0.107714   0.000000
    31  H    0.157944   0.000000
    32  H    0.167966  -0.000000
    33  H    0.196983  -0.000000
    34  H    0.248209   0.000000
    35  H    0.155720   0.000000
    36  H    0.184489  -0.000000
    37  H    0.188173   0.000000
    38  H    0.144474  -0.000000
 Sum of Mulliken charges =  -2.00000   0.00000

 Dipole moment (field-independent basis, Debye):
    X=             31.0591    Y=             -6.8966    Z=              8.6196  Tot=             32.9625
 Quadrupole moment (field-independent basis, Debye-Ang):
   XX=           -316.6934   YY=           -164.5460   ZZ=           -181.2448
   XY=              5.1812   XZ=            -31.8893   YZ=              1.3041

  Exact polarizability: 408.740   4.387 375.794  71.809  46.077 663.465
 Approx polarizability: 464.600   8.023 441.052  60.141  57.527 683.692

                      1                      2                      3
                      A                      A                      A
 Frequencies --     17.5741                25.1901                32.9723
 Red. masses --      6.0851                 5.5343                 5.3416
 Frc consts  --      0.0011                 0.0021                 0.0034
 IR Inten    --      4.0339                 0.8815                 1.2657

                      4                      5                      6
                      A                      A                      A
 Frequencies --     86.5547                90.8339               104.5712
 Red. masses --      5.3556                 5.1767                 2.5199
 Frc consts  --      0.0236                 0.0252                 0.0162
 IR Inten    --     12.3074                12.2569                 0.2464

                      7                      8                      9
                      A                      A                      A
 Frequencies --    138.1490               159.7448               172.3394
 Red. masses --      2.4044                 4.5639                 1.9897
 Frc consts  --      0.0270                 0.0686                 0.0348
 IR Inten    --      1.1541                 4.5475                 0.8860

                     10                     11                     12
                      A                      A                      A
 Frequencies --    184.4909               186.3115               224.3442
 Red. masses --      4.6760                 5.3558                 7.9165
 Frc consts  --      0.0938                 0.1095                 0.2348
 IR Inten    --      1.0059                 2.8742                12.3669

                     13                     14                     15
                      A                      A                      A
 Frequencies --    262.2969               280.2156               289.5680
 Red. masses --      5.0238                 5.3587                 5.4903
 Frc consts  --      0.2036                 0.2479                 0.2712
 IR Inten    --      1.4243                 2.2306                15.7485

                     16                     17                     18
                      A                      A                      A
 Frequencies --    339.7494               353.3616               373.5385
 Red. masses --      4.0621                 5.5646                10.2156
 Frc consts  --      0.2763                 0.4094                 0.8398
 IR Inten    --      0.8962                 6.3455                 9.5753

                     19                     20                     21
                      A                      A                      A
 Frequencies --    381.2899               400.5436               405.7053
 Red. masses --     10.5073                 6.5651                 3.2019
 Frc consts  --      0.9000                 0.6206                 0.3105
 IR Inten    --     13.6080                 3.2637                 0.4454

                     22                     23                     24
                      A                      A                      A
 Frequencies --    428.9834               444.1031               473.7886
 Red. masses --      6.1959                 3.9918                 4.2571
 Frc consts  --      0.6718                 0.4639                 0.5630
 IR Inten    --      6.6664                 3.1972                12.1765

                     25                     26                     27
                      A                      A                      A
 Frequencies --    477.7259               505.2480               522.3772
 Red. masses --      2.5322                10.5968                 3.7451
 Frc consts  --      0.3405                 1.5938                 0.6021
 IR Inten    --     32.9661                 0.4659                 0.0562

                     28                     29                     30
                      A                      A                      A
 Frequencies --    524.2973               540.3775               572.0301
 Red. masses --      6.6771                 5.2431                 6.6614
 Frc consts  --      1.0814                 0.9021                 1.2843
 IR Inten    --      3.4397                 7.2872                50.9242

                     31                     32                     33
                      A                      A                      A
 Frequencies --    601.7433               638.3122               648.2078
 Red. masses --      7.5013                 3.6393                 6.9689
 Frc consts  --      1.6003                 0.8736                 1.7252
 IR Inten    --     14.5767                 0.8950                 1.6830

                     34                     35                     36
                      A                      A                      A
 Frequencies --    654.9980               674.6398               682.5210
 Red. masses --      6.3079                 4.7321                 5.7996
 Frc consts  --      1.5945                 1.2689                 1.5918
 IR Inten    --     16.3791                 6.4541                 2.3467

                     37                     38                     39
                      A                      A                      A
 Frequencies --    698.7583               753.2019               770.6907
 Red. masses --      2.7156                 1.2642                 3.2352
 Frc consts  --      0.7812                 0.4226                 1.1322
 IR Inten    --     99.4627                54.5086                 4.0049

                     40                     41                     42
                      A                      A                      A
 Frequencies --    774.8572               779.8878               794.0467
 Red. masses --      4.7872                 1.8191                 4.0537
 Frc consts  --      1.6934                 0.6519                 1.5059
 IR Inten    --      1.0915                52.0351                 4.2282

                     43                     44                     45
                      A                      A                      A
 Frequencies --    799.4362               833.6996               847.4658
 Red. masses --      6.8186                 1.3580                 4.4511
 Frc consts  --      2.5675                 0.5561                 1.8835
 IR Inten    --    115.3804                65.6193                 7.8394

                     46                     47                     48
                      A                      A                      A
 Frequencies --    852.9116               859.7956               872.3107
 Red. masses --      5.8401                 1.3996                 1.6085
 Frc consts  --      2.5031                 0.6096                 0.7211
 IR Inten    --     22.0810                45.4871                 0.3992

                     49                     50                     51
                      A                      A                      A
 Frequencies --    887.7271               952.2867               963.9777
 Red. masses --      1.6229                 4.9976                 6.7482
 Frc consts  --      0.7535                 2.6702                 3.6946
 IR Inten    --      5.5506                36.9697               155.1474

                     52                     53                     54
                      A                      A                      A
 Frequencies --    970.4958               977.4836               986.1893
 Red. masses --      1.3423                 1.3641                 1.2590
 Frc consts  --      0.7449                 0.7679                 0.7214
 IR Inten    --      5.2955                 4.7462                 0.5356

                     55                     56                     57
                      A                      A                      A
 Frequencies --    990.4547               995.5840              1012.6713
 Red. masses --      1.3113                 1.2862                 1.9138
 Frc consts  --      0.7579                 0.7511                 1.1563
 IR Inten    --      0.9284                 0.0088                61.8805

                     58                     59                     60
                      A                      A                      A
 Frequencies --   1029.2762              1035.2170              1043.5486
 Red. masses --      2.0490                 2.3854                 1.4441
 Frc consts  --      1.2790                 1.5062                 0.9265
 IR Inten    --     73.8879                11.2009                 7.1097

                     61                     62                     63
                      A                      A                      A
 Frequencies --   1072.8307              1098.9327              1116.2119
 Red. masses --      2.5609                 2.3122                 2.0942
 Frc consts  --      1.7366                 1.6452                 1.5373
 IR Inten    --     50.8778               106.5259               168.7422

                     64                     65                     66
                      A                      A                      A
 Frequencies --   1150.8853              1154.6900              1165.6474
 Red. masses --      1.6403                 1.9640                 1.2337
 Frc consts  --      1.2801                 1.5428                 0.9876
 IR Inten    --     34.3447                13.2828                 0.9805

                     67                     68                     69
                      A                      A                      A
 Frequencies --   1170.4515              1185.9165              1214.3927
 Red. masses --      1.1828                 1.8622                 3.0026
 Frc consts  --      0.9547                 1.5431                 2.6090
 IR Inten    --      4.7686               140.7501               298.5060

                     70                     71                     72
                      A                      A                      A
 Frequencies --   1218.9149              1253.4058              1265.2865
 Red. masses --      2.2222                 2.4190                 1.5369
 Frc consts  --      1.9452                 2.2390                 1.4497
 IR Inten    --      3.4429                30.5594                 0.8698

                     73                     74                     75
                      A                      A                      A
 Frequencies --   1285.5448              1310.6562              1349.7171
 Red. masses --      1.8734                 7.4696                 6.9586
 Frc consts  --      1.8241                 7.5600                 7.4689
 IR Inten    --      7.0499               402.4118               301.5307

                     76                     77                     78
                      A                      A                      A
 Frequencies --   1357.1200              1360.9590              1388.5991
 Red. masses --      2.7914                 2.4774                 2.8044
 Frc consts  --      3.0290                 2.7036                 3.1859
 IR Inten    --    798.0565               181.6622                 6.2832

                     79                     80                     81
                      A                      A                      A
 Frequencies --   1392.3485              1394.4096              1420.1849
 Red. masses --      1.8214                 6.8709                 2.5925
 Frc consts  --      2.0804                 7.8712                 3.0807
 IR Inten    --    578.4201                36.9387                27.8620

                     82                     83                     84
                      A                      A                      A
 Frequencies --   1427.5040              1457.9669              1464.0536
 Red. masses --      4.2693                 2.3402                 1.2042
 Frc consts  --      5.1258                 2.9309                 1.5208
 IR Inten    --     55.5089                14.9061                 8.3005

                     85                     86                     87
                      A                      A                      A
 Frequencies --   1480.5123              1490.3037              1499.0596
 Red. masses --      1.9929                 1.1369                 3.0334
 Frc consts  --      2.5737                 1.4878                 4.0162
 IR Inten    --     62.4228                 4.9372                42.2497

                     88                     89                     90
                      A                      A                      A
 Frequencies --   1506.8218              1530.0746              1582.3020
 Red. masses --      3.2182                 3.1452                 7.2164
 Frc consts  --      4.3051                 4.3383                10.6450
 IR Inten    --    298.9115                67.9008                41.7594

                     91                     92                     93
                      A                      A                      A
 Frequencies --   1594.5795              1613.9725              1618.5127
 Red. masses --      6.5985                 5.6424                 5.3398
 Frc consts  --      9.8852                 8.6597                 8.2416
 IR Inten    --      3.2925                18.4195               132.5866

                     94                     95                     96
                      A                      A                      A
 Frequencies --   1651.3761              2984.3198              3029.4524
 Red. masses --      5.9398                 1.0507                 1.0877
 Frc consts  --      9.5437                 5.5135                 5.8816
 IR Inten    --    112.7709               214.1939                81.7979

                     97                     98                     99
                      A                      A                      A
 Frequencies --   3104.4687              3140.5144              3149.5169
 Red. masses --      1.0944                 1.0851                 1.0896
 Frc consts  --      6.2145                 6.3056                 6.3679
 IR Inten    --     26.4816                18.3302                24.7884

                    100                    101                    102
                      A                      A                      A
 Frequencies --   3155.7145              3156.8753              3157.1300
 Red. masses --      1.0862                 1.0904                 1.0884
 Frc consts  --      6.3734                 6.4027                 6.3916
 IR Inten    --      5.5651                44.6641                17.8459

                    103                    104                    105
                      A                      A                      A
 Frequencies --   3160.3192              3172.3822              3178.2381
 Red. masses --      1.0880                 1.0934                 1.0906
 Frc consts  --      6.4022                 6.4832                 6.4907
 IR Inten    --      1.6668                51.5568                31.1237

                    106                    107                    108
                      A                      A                      A
 Frequencies --   3181.5799              3183.0686              3185.1540
 Red. masses --      1.0926                 1.0925                 1.0971
 Frc consts  --      6.5162                 6.5220                 6.5579
 IR Inten    --     63.9469                13.1866                49.0204

 - Thermochemistry -
 -------------------
 Temperature   298.150 Kelvin.  Pressure   1.00000 Atm.
 Atom     1 has atomic number  6 and mass  12.00000

 Molecular mass:   330.07145 amu.
 Principal axes and moments of inertia in atomic units:
                           1         2         3
     Eigenvalues --  3407.66337********************
           X            0.36472   0.87353   0.32237
           Y           -0.02729  -0.33604   0.94145
           Z            0.93072  -0.35217  -0.09873
 This molecule is an asymmetric top.
 Rotational symmetry number  1.
 Warning -- assumption of classical behavior for rotation
           may cause significant error
 Rotational temperatures (Kelvin)      0.02542     0.00511     0.00495
 Rotational constants (GHZ):           0.52961     0.10643     0.10319
 Zero-point vibrational energy     745055.5 (Joules/Mol)
                                  178.07254 (Kcal/Mol)
 Warning -- explicit consideration of  31 degrees of freedom as
           vibrations may cause significant error
 Vibrational temperatures:     25.29    36.24    47.44   124.53   130.69
          (Kelvin)            150.45   198.77   229.84   247.96   265.44
                              268.06   322.78   377.39   403.17   416.62
                              488.82   508.41   537.44   548.59   576.29
                              583.72   617.21   638.97   681.68   687.34
                              726.94   751.58   754.35   777.48   823.02
                              865.77   918.39   932.63   942.40   970.66
                              982.00  1005.36  1083.69  1108.85  1114.85
                             1122.08  1142.46  1150.21  1199.51  1219.31
                             1227.15  1237.05  1255.06  1277.24  1370.13
                             1386.95  1396.33  1406.38  1418.91  1425.04
                             1432.42  1457.01  1480.90  1489.45  1501.43
                             1543.56  1581.12  1605.98  1655.87  1661.34
                             1677.11  1684.02  1706.27  1747.24  1753.75
                             1803.37  1820.47  1849.61  1885.74  1941.94
                             1952.59  1958.12  1997.88  2003.28  2006.24
                             2043.33  2053.86  2097.69  2106.45  2130.13
                             2144.21  2156.81  2167.98  2201.44  2276.58
                             2294.24  2322.15  2328.68  2375.96  4293.77
                             4358.71  4466.64  4518.50  4531.45  4540.37
                             4542.04  4542.41  4546.99  4564.35  4572.78
                             4577.58  4579.73  4582.73

 Zero-point correction=                           0.283777 (Hartree/Particle)
 Thermal correction to Energy=                    0.303091
 Thermal correction to Enthalpy=                  0.304035
 Thermal correction to Gibbs Free Energy=         0.234589
 Sum of electronic and zero-point Energies=          -1357.557809
 Sum of electronic and thermal Energies=             -1357.538495
 Sum of electronic and thermal Enthalpies=           -1357.537551
 Sum of electronic and thermal Free Energies=        -1357.606996

                     E (Thermal)             CV                S
                      KCal/Mol        Cal/Mol-Kelvin    Cal/Mol-Kelvin
 Total                  190.192             77.325            146.160
 Electronic               0.000              0.000              0.000
 Translational            0.889              2.981             43.278
 Rotational               0.889              2.981             35.268
 Vibrational            188.415             71.364             67.615
 Vibration     1          0.593              1.986              6.891
 Vibration     2          0.593              1.985              6.176
 Vibration     3          0.594              1.983              5.642
 Vibration     4          0.601              1.959              3.736
 Vibration     5          0.602              1.956              3.642
 Vibration     6          0.605              1.946              3.367
 Vibration     7          0.614              1.915              2.829
 Vibration     8          0.622              1.892              2.553
 Vibration     9          0.626              1.877              2.410
 Vibration    10          0.631              1.861              2.282
 Vibration    11          0.632              1.859              2.264
 Vibration    12          0.649              1.804              1.924
 Vibration    13          0.670              1.742              1.646
 Vibration    14          0.680              1.710              1.532
 Vibration    15          0.686              1.693              1.476
 Vibration    16          0.720              1.596              1.213
 Vibration    17          0.730              1.568              1.151
 Vibration    18          0.745              1.526              1.065
 Vibration    19          0.751              1.510              1.034
 Vibration    20          0.766              1.469              0.961
 Vibration    21          0.771              1.458              0.942
 Vibration    22          0.790              1.407              0.862
 Vibration    23          0.804              1.374              0.814
 Vibration    24          0.831              1.308              0.727
 Vibration    25          0.834              1.299              0.716
 Vibration    26          0.860              1.238              0.645
 Vibration    27          0.877              1.200              0.604
 Vibration    28          0.879              1.196              0.600
 Vibration    29          0.895              1.161              0.564
 Vibration    30          0.928              1.092              0.500
 Vibration    31          0.960              1.028              0.447

                           ! Non-Optimized Parameters !
 Normal termination of Gaussian 16 at Sun Feb 11 23:18:47 2024.
