 Q-Chem 5.4, Q-Chem, Inc., Pleasanton, CA (2021)
 Q-Chem 5.4.0 for Intel X86 EM64T Linux

User input:
--------------------------------------------------------------
$molecule
-2 1
C                  1.5166810000      0.9902200000     -3.0847590000
C                  0.2384000000      1.5525320000     -3.4357000000
C                 -0.9467230000      1.0095310000     -3.0017080000
C                 -1.0499390000     -0.1730940000     -2.1763180000
C                  0.1930740000     -0.7870960000     -1.8513170000
O                  2.6066790000      1.5826390000     -3.4002380000
O                 -2.2151290000     -0.6168710000     -1.8108570000
H                  0.2565860000      2.4591800000     -4.0393730000
C                  1.4548680000     -0.2445370000     -2.3060600000
C                  2.7151690000     -0.8605360000     -1.9697320000
C                  3.9460010000     -0.6218510000     -2.8439650000
C                  5.0951240000      0.0285270000     -2.3455760000
C                  4.0216580000     -1.2660210000     -4.0817280000
C                  6.2656520000      0.0190190000     -3.1024470000
C                  6.3345430000     -0.6298640000     -4.3405150000
C                  5.2002350000     -1.2726430000     -4.8296120000
O                  2.9277940000     -1.6671300000     -1.0340450000
C                  5.0175610000      0.7903670000     -1.0476630000
H                  3.1305910000     -1.7543430000     -4.4634900000
H                  7.1435010000      0.5405160000     -2.7231230000
H                  7.2613120000     -0.6258180000     -4.9097310000
H                  5.2281520000     -1.7757270000     -5.7932760000
C                  0.1056190000     -2.0845570000     -1.0822650000
H                 -1.8942770000      1.4750060000     -3.2768030000
H                  0.3828020000     -1.9694950000     -0.0247240000
H                  0.7793640000     -2.8503620000     -1.4810960000
H                 -0.9327820000     -2.4259850000     -1.1264400000
H                  4.2743520000      1.5882240000     -1.1520410000
H                  5.9852980000      1.2351560000     -0.7896190000
H                  4.6919610000      0.1399140000     -0.2314890000
$end
$rem
MAX_SCF_CYCLES=200
BASIS  =  6-311++G(d,p)
GUI  =  2
JOB_TYPE  =  SP
METHOD  =  B3LYP
SOLVENT_METHOD = COSMO
$end
$solvent
dielectric 37.219
opticaldielectric 1.43
$end

--------------------------------------------------------------

             Standard Nuclear Orientation (Angstroms)
    I     Atom           X                Y                Z
 ----------------------------------------------------------------
    1      C      -0.8127018966    -1.3352817591    -0.3207151311
    2      C      -2.0153470274    -2.1225286295    -0.2356049667
    3      C      -3.2498149410    -1.5570130408    -0.0258509287
    4      C      -3.4806738564    -0.1404042472     0.1486419722
    5      C      -2.3070327989     0.6655440821     0.1218206634
    6      O       0.3057312788    -1.8719217313    -0.6364803657
    7      O      -4.6848221402     0.3079126493     0.3415315141
    8      H      -1.9035837107    -3.1962516978    -0.3818586887
    9      C      -0.9933987971     0.0951034422    -0.0837243409
   10      C       0.1952051035     0.9116920603    -0.1202441787
   11      C       1.5604485650     0.2978084597     0.1887194042
   12      C       2.5873887432     0.2479632484    -0.7781188102
   13      C       1.8723673234    -0.0039025686     1.5170316258
   14      C       3.8763931209    -0.1087047000    -0.3852631113
   15      C       4.1818011722    -0.4077586648     0.9473659213
   16      C       3.1675916130    -0.3561136989     1.9001235635
   17      O       0.2479266801     2.1479988468    -0.3204425764
   18      C       2.2604985054     0.4991135214    -2.2276224056
   19      H       1.0748979912     0.0256614533     2.2528098748
   20      H       4.6607168253    -0.1663634499    -1.1389052545
   21      H       5.1966823256    -0.6795609605     1.2285487101
   22      H       3.3800048060    -0.5931057625     2.9399488238
   23      C      -2.5100472070     2.1344894578     0.4107480515
   24      H      -4.1394480644    -2.1870565051     0.0165867494
   25      H      -2.4326923589     2.7581233203    -0.4912273800
   26      H      -1.7611473749     2.5287614304     1.1058411695
   27      H      -3.5166204406     2.2547469226     0.8220260767
   28      H       1.5345975155    -0.2510370125    -2.5595442436
   29      H       3.1567049990     0.4309103809    -2.8546001675
   30      H       1.8031352041     1.4832119855    -2.3603382185
 ----------------------------------------------------------------

   12    -804.6888954806      9.61e-06  Convergence criterion met
 Total energy in the final basis set =     -804.6888954806
    6    -804.9664982685      4.49e-06  Convergence criterion met
 Total energy in the final basis set =     -804.9664982685

                    Orbital Energies (a.u.)
 --------------------------------------------------------------

 Alpha MOs
 -- Occupied --
-19.0768 -19.0336 -19.0212 -10.2276 -10.1926 -10.1734 -10.1689 -10.1667
-10.1618 -10.1613 -10.1599 -10.1591 -10.1486 -10.1414 -10.1369 -10.1365
-10.1327 -10.1307  -1.0005  -0.9537  -0.9345  -0.8469  -0.7902  -0.7608
 -0.7452  -0.7322  -0.6910  -0.6711  -0.6346  -0.6130  -0.5863  -0.5700
 -0.5274  -0.5190  -0.4785  -0.4582  -0.4513  -0.4418  -0.4296  -0.4220
 -0.4086  -0.4040  -0.3956  -0.3924  -0.3793  -0.3743  -0.3667  -0.3652
 -0.3570  -0.3541  -0.3430  -0.3387  -0.3269  -0.3242  -0.3201  -0.3170
 -0.2515  -0.2395  -0.2360  -0.2224  -0.2196  -0.2040  -0.1970  -0.1305

          Ground-State Mulliken Net Atomic Charges

     Atom                 Charge (a.u.)
  ----------------------------------------
      1 C                    -0.876580
      2 C                    -0.559143
      3 C                    -0.038781
      4 C                    -0.517713
      5 C                     0.504347
      6 O                    -0.516894
      7 O                    -0.768503
      8 H                     0.165942
      9 C                     1.137691
     10 C                    -1.286968
     11 C                     0.835739
     12 C                     0.783990
     13 C                    -0.606692
     14 C                     0.042073
     15 C                    -0.330367
     16 C                    -0.478228
     17 O                    -0.415145
     18 C                    -0.426234
     19 H                     0.184478
     20 H                     0.173249
     21 H                     0.191404
     22 H                     0.200169
     23 C                    -0.560914
     24 H                     0.169108
     25 H                     0.156829
     26 H                     0.157902
     27 H                     0.147398
     28 H                     0.200321
     29 H                     0.163844
     30 H                     0.167680
  ----------------------------------------
  Sum of atomic charges =    -2.000000

                    Cartesian Multipole Moments
 -----------------------------------------------------------------
    Charge (ESU x 10^10)
                -9.6064
    Dipole Moment (Debye)
         X      17.0260      Y      -0.1587      Z       0.7430
       Tot      17.0429
    Quadrupole Moments (Debye-Ang)
        XX    -206.0054     XY       5.2946     YY    -141.6078
        XZ       5.0377     YZ      -3.6883     ZZ    -112.1915

 Total job time:  86.96s(wall), 667.59s(cpu)
        *  Thank you very much for using Q-Chem.  Have a nice day.  *
