 Gaussian 16, Revision A.03,
 Gaussian 16:  ES64L-G16RevA.03 25-Dec-2016

 --------------------------------------
 #P UB3LYP/6-311++G(d,p) nosym opt freq
 --------------------------------------

 -------
 Reduced
 -------
 Symbolic Z-matrix:
 Charge = -2 Multiplicity = 1

 SCF Done:  E(UB3LYP) =  -846.209594738     A.U. after   72 cycles
 SCF Done:  E(UB3LYP) =  -846.224702156     A.U. after   34 cycles
 SCF Done:  E(UB3LYP) =  -846.226838770     A.U. after   33 cycles
 SCF Done:  E(UB3LYP) =  -846.226996044     A.U. after   30 cycles
 SCF Done:  E(UB3LYP) =  -846.227061735     A.U. after   29 cycles
 SCF Done:  E(UB3LYP) =  -846.227163557     A.U. after   32 cycles
 SCF Done:  E(UB3LYP) =  -846.227591658     A.U. after   32 cycles
 SCF Done:  E(UB3LYP) =  -846.227759172     A.U. after   35 cycles
 SCF Done:  E(UB3LYP) =  -846.228790000     A.U. after   29 cycles
 SCF Done:  E(UB3LYP) =  -846.230486382     A.U. after   32 cycles
 SCF Done:  E(UB3LYP) =  -846.231848051     A.U. after   35 cycles
 SCF Done:  E(UB3LYP) =  -846.232071374     A.U. after   30 cycles
 SCF Done:  E(UB3LYP) =  -846.232037630     A.U. after   60 cycles
 SCF Done:  E(UB3LYP) =  -846.232112909     A.U. after   35 cycles
 SCF Done:  E(UB3LYP) =  -846.232146452     A.U. after   31 cycles
 SCF Done:  E(UB3LYP) =  -846.232148426     A.U. after   32 cycles
 SCF Done:  E(UB3LYP) =  -846.232148916     A.U. after   37 cycles
 SCF Done:  E(UB3LYP) =  -846.232149178     A.U. after   28 cycles
 Optimization completed.
    -- Stationary point found.
 Normal termination of Gaussian 16 at Thu Dec 21 10:34:40 2023.

 ----------------------------------------------------------------------
 #P Geom=AllCheck Guess=TCheck SCRF=Check GenChk UB3LYP/6-311++G(d,p) F
 req
 ----------------------------------------------------------------------

 Structure from the checkpoint file:  "132-an.chk"
 -------
 Reduced
 -------
 Charge = -2 Multiplicity = 1

                          Input orientation:
 ---------------------------------------------------------------------
 Center     Atomic      Atomic             Coordinates (Angstroms)
 Number     Number       Type             X           Y           Z
 ---------------------------------------------------------------------
      1          6           0        6.876369   -1.627304   -0.241408
      2          6           0        7.460633   -0.671142   -1.049684
      3          6           0        6.628404    0.343088   -1.630167
      4          6           0        5.276771    0.337192   -1.343879
      5          6           0        4.659627   -0.630106   -0.514317
      6          6           0        5.493333   -1.653782    0.060422
      7          6           0        4.969827   -2.696206    0.926398
      8          6           0        3.538879   -2.624437    1.166831
      9          6           0        2.705102   -1.601035    0.591712
     10          6           0        3.228600   -0.558633   -0.274295
     11          6           0        2.921935   -3.591124    1.997226
     12          6           0        1.568707   -3.602720    2.275725
     13          6           0        0.739684   -2.577043    1.710977
     14          6           0        1.322079   -1.627425    0.893698
     15          8           0        5.709524   -3.604356    1.436328
     16          8           0        2.488870    0.349410   -0.784370
     17          6           0        0.978960   -4.647659    3.196186
     18          6           0       -0.750541   -2.565036    1.967899
     19          6           0        8.940768   -0.719285   -1.355980
     20          6           0        7.228654    1.425240   -2.499426
     21          1           0        7.478529   -2.417054    0.198948
     22          1           0        4.624442    1.101997   -1.755898
     23          1           0        3.577242   -4.345357    2.423765
     24          1           0        0.716947   -0.848233    0.438846
     25          1           0        1.742319   -5.370957    3.496963
     26          1           0        0.159844   -5.204453    2.727632
     27          1           0        0.558704   -4.208543    4.118109
     28          1           0       -0.991251   -2.536200    3.036414
     29          1           0       -1.254602   -3.462325    1.567649
     30          1           0       -1.215105   -1.692649    1.499454
     31          1           0        9.423600   -1.526275   -0.797428
     32          1           0        9.452414    0.214968   -1.099276
     33          1           0        9.144184   -0.891852   -2.427536
     34          1           0        7.778700    1.018375   -3.355224
     35          1           0        7.948004    2.057105   -1.949248
     36          1           0        6.447142    2.083402   -2.889817
 ---------------------------------------------------------------------

 SCF Done:  E(UB3LYP) =  -846.232149178     A.U. after    6 cycles

 Alpha  occ. eigenvalues --  -18.80685 -18.80684  -9.97175  -9.97175  -9.97174
 Alpha  occ. eigenvalues --   -9.97174  -9.96405  -9.96404  -9.95328  -9.95328
 Alpha  occ. eigenvalues --   -9.95287  -9.95287  -9.93506  -9.93506  -9.93505
 Alpha  occ. eigenvalues --   -9.93504  -9.92382  -9.92381  -9.92342  -9.92342
 Alpha  occ. eigenvalues --   -0.72647  -0.72294  -0.62932  -0.62728  -0.56952
 Alpha  occ. eigenvalues --   -0.54566  -0.54524  -0.54459  -0.48578  -0.48492
 Alpha  occ. eigenvalues --   -0.48123  -0.44865  -0.40777  -0.38466  -0.35663
 Alpha  occ. eigenvalues --   -0.35619  -0.31549  -0.28095  -0.27338  -0.25518
 Alpha  occ. eigenvalues --   -0.23869  -0.23242  -0.23216  -0.21863  -0.21796
 Alpha  occ. eigenvalues --   -0.20429  -0.20381  -0.20377  -0.19752  -0.18595
 Alpha  occ. eigenvalues --   -0.18547  -0.17896  -0.17674  -0.16059  -0.15352
 Alpha  occ. eigenvalues --   -0.15200  -0.14497  -0.13771  -0.11578  -0.10846
 Alpha  occ. eigenvalues --   -0.10691  -0.10578  -0.08647  -0.07878  -0.01951
 Alpha  occ. eigenvalues --   -0.00925  -0.00325   0.00214   0.01627   0.02343
 Alpha  occ. eigenvalues --    0.11913
 Alpha virt. eigenvalues --    0.13285   0.13450   0.15044   0.15126   0.16664
 Alpha virt. eigenvalues --    0.16823   0.17831   0.17917   0.19071   0.19207
 Alpha virt. eigenvalues --    0.19428   0.19489   0.19655   0.19798   0.20414

  Beta  occ. eigenvalues --  -18.80685 -18.80684  -9.97175  -9.97175  -9.97174
  Beta  occ. eigenvalues --   -9.97174  -9.96405  -9.96404  -9.95328  -9.95328
  Beta  occ. eigenvalues --   -9.95287  -9.95287  -9.93506  -9.93506  -9.93505
  Beta  occ. eigenvalues --   -9.93504  -9.92382  -9.92381  -9.92342  -9.92342
  Beta  occ. eigenvalues --   -0.72647  -0.72294  -0.62932  -0.62728  -0.56952
  Beta  occ. eigenvalues --   -0.54566  -0.54524  -0.54459  -0.48578  -0.48492
  Beta  occ. eigenvalues --   -0.48123  -0.44865  -0.40777  -0.38466  -0.35663
  Beta  occ. eigenvalues --   -0.35619  -0.31549  -0.28095  -0.27338  -0.25518
  Beta  occ. eigenvalues --   -0.23869  -0.23242  -0.23216  -0.21863  -0.21796
  Beta  occ. eigenvalues --   -0.20429  -0.20381  -0.20377  -0.19752  -0.18595
  Beta  occ. eigenvalues --   -0.18547  -0.17896  -0.17674  -0.16059  -0.15352
  Beta  occ. eigenvalues --   -0.15200  -0.14497  -0.13771  -0.11578  -0.10846
  Beta  occ. eigenvalues --   -0.10691  -0.10578  -0.08647  -0.07878  -0.01951
  Beta  occ. eigenvalues --   -0.00925  -0.00325   0.00214   0.01627   0.02343
  Beta  occ. eigenvalues --    0.11913
  Beta virt. eigenvalues --    0.13285   0.13450   0.15044   0.15126   0.16664
  Beta virt. eigenvalues --    0.16823   0.17831   0.17917   0.19071   0.19207
  Beta virt. eigenvalues --    0.19428   0.19489   0.19655   0.19798   0.20414

 Mulliken charges and spin densities:
               1          2
     1  C   -0.113822   0.000000
     2  C   -0.555741  -0.000000
     3  C   -0.556163  -0.000001
     4  C   -0.113163   0.000000
     5  C    0.428178  -0.000000
     6  C    0.427989   0.000000
     7  C   -1.200105  -0.000000
     8  C    0.428014   0.000000
     9  C    0.428758   0.000000
    10  C   -1.199308   0.000000
    11  C   -0.113955  -0.000000
    12  C   -0.555709   0.000000
    13  C   -0.556798   0.000000
    14  C   -0.113164  -0.000000
    15  O   -0.450239   0.000000
    16  O   -0.450255   0.000000
    17  C    0.608180  -0.000000
    18  C    0.610456   0.000000
    19  C    0.608190   0.000000
    20  C    0.609568   0.000000
    21  H    0.160548   0.000000
    22  H    0.160524   0.000000
    23  H    0.160553  -0.000000
    24  H    0.160565   0.000000
    25  H   -0.109120   0.000000
    26  H   -0.011974  -0.000000
    27  H   -0.081846   0.000000
    28  H   -0.012630   0.000000
    29  H   -0.081654   0.000000
    30  H   -0.109512  -0.000000
    31  H   -0.109064  -0.000000
    32  H   -0.012209  -0.000000
    33  H   -0.081688  -0.000000
    34  H   -0.012580  -0.000000
    35  H   -0.081465  -0.000000
    36  H   -0.109359  -0.000000
 Sum of Mulliken charges =  -2.00000  -0.00000

 Dipole moment (field-independent basis, Debye):
    X=            -39.3767    Y=             15.6293    Z=             -3.1362  Tot=             42.4810
 Quadrupole moment (field-independent basis, Debye-Ang):
   XX=           -397.8095   YY=           -209.2778   ZZ=           -174.2160
   XY=             43.7859   XZ=             21.6602   YZ=             41.3587

  Exact polarizability:6121.1032159.7262508.768****************2510.668
 Approx polarizability:7757.7663192.1462589.362****************2858.094

                      1                      2                      3
                      A                      A                      A
 Frequencies --     38.9394                65.2678                86.9502
 Red. masses --      4.8563                 3.1665                 4.0869
 Frc consts  --      0.0043                 0.0079                 0.0182
 IR Inten    --      0.8331                 0.0055                 6.9894

                      4                      5                      6
                      A                      A                      A
 Frequencies --    136.0976               139.0297               143.7097
 Red. masses --      3.3138                 6.4704                 3.8853
 Frc consts  --      0.0362                 0.0737                 0.0473
 IR Inten    --      0.3561                 1.4913                 3.9187

                      7                      8                      9
                      A                      A                      A
 Frequencies --    149.8761               154.0097               206.0337
 Red. masses --      1.0954                 1.0882                 1.1254
 Frc consts  --      0.0145                 0.0152                 0.0281
 IR Inten    --      1.0472                69.5073                13.6001

                     10                     11                     12
                      A                      A                      A
 Frequencies --    213.1966               227.5074               233.1676
 Red. masses --      1.0911                 4.9864                 2.8820
 Frc consts  --      0.0292                 0.1521                 0.0923
 IR Inten    --      3.9868                 1.2394                 0.0450

                     13                     14                     15
                      A                      A                      A
 Frequencies --    241.5951               269.2822               282.9347
 Red. masses --      3.4340                 3.1172                 3.4057
 Frc consts  --      0.1181                 0.1332                 0.1606
 IR Inten    --      0.0932                 3.9483                 3.4834

                     16                     17                     18
                      A                      A                      A
 Frequencies --    290.6172               322.4632               348.3142
 Red. masses --      2.5662                 3.8545                 4.3837
 Frc consts  --      0.1277                 0.2361                 0.3134
 IR Inten    --    285.8685                 0.0163                 3.7241

                     19                     20                     21
                      A                      A                      A
 Frequencies --    348.6543               352.5262               381.0107
 Red. masses --      5.9468                 9.7943                 3.7274
 Frc consts  --      0.4259                 0.7171                 0.3188
 IR Inten    --      2.2719                43.0010                 8.6355

                     22                     23                     24
                      A                      A                      A
 Frequencies --    440.2261               445.4207               470.7727
 Red. masses --      3.1940                 7.5167                12.6734
 Frc consts  --      0.3647                 0.8787                 1.6549
 IR Inten    --     18.9807               536.9394                15.0837

                     25                     26                     27
                      A                      A                      A
 Frequencies --    485.9344               490.3463               555.8522
 Red. masses --      3.2379                 3.3880                 3.4565
 Frc consts  --      0.4505                 0.4799                 0.6292
 IR Inten    --     16.6734                 1.3352                34.3676

                     28                     29                     30
                      A                      A                      A
 Frequencies --    567.4465               596.0703               599.0786
 Red. masses --      5.1158                 6.2373                 5.4147
 Frc consts  --      0.9705                 1.3057                 1.1450
 IR Inten    --      0.9655                91.0881                 1.2086

                     31                     32                     33
                      A                      A                      A
 Frequencies --    648.5887               714.1691               721.9160
 Red. masses --      4.3957                 6.8084                 5.9774
 Frc consts  --      1.0895                 2.0460                 1.8354
 IR Inten    --    425.3520                 0.2082                39.1052

                     34                     35                     36
                      A                      A                      A
 Frequencies --    722.7675               737.7447               741.2196
 Red. masses --      4.2711                 4.8639                 5.3774
 Frc consts  --      1.3146                 1.5597                 1.7407
 IR Inten    --      2.0280                 1.8768                27.3878

                     37                     38                     39
                      A                      A                      A
 Frequencies --    757.4656               789.5407               821.6504
 Red. masses --      3.5140                 5.9479                 4.4417
 Frc consts  --      1.1879                 2.1845                 1.7667
 IR Inten    --      1.5459                 1.7206                47.0662

                     40                     41                     42
                      A                      A                      A
 Frequencies --    923.8534               925.0414               928.0032
 Red. masses --      1.3204                 1.3410                 1.4477
 Frc consts  --      0.6640                 0.6761                 0.7346
 IR Inten    --      7.1691                 6.9555               394.2706

                     43                     44                     45
                      A                      A                      A
 Frequencies --    934.9737               954.8910              1001.3411
 Red. masses --      1.4587                 2.1843                 1.3952
 Frc consts  --      0.7513                 1.1735                 0.8242
 IR Inten    --      5.1673               582.5026                 5.3839

                     46                     47                     48
                      A                      A                      A
 Frequencies --   1010.6832              1016.5674              1020.2190
 Red. masses --      1.9591                 1.5193                 1.6739
 Frc consts  --      1.1791                 0.9251                 1.0265
 IR Inten    --      7.3949                37.6840               228.1719

                     49                     50                     51
                      A                      A                      A
 Frequencies --   1035.5612              1045.3818              1046.4352
 Red. masses --      3.1417                 1.4184                 1.4121
 Frc consts  --      1.9851                 0.9133                 0.9110
 IR Inten    --     48.6798                23.1842                20.0051

                     52                     53                     54
                      A                      A                      A
 Frequencies --   1050.1892              1050.5108              1141.5845
 Red. masses --      1.4989                 1.5001                 5.9184
 Frc consts  --      0.9740                 0.9754                 4.5444
 IR Inten    --    222.2491               216.7487                46.0803

                     55                     56                     57
                      A                      A                      A
 Frequencies --   1150.1524              1164.2320              1185.3965
 Red. masses --      1.6308                 2.8584                 6.0076
 Frc consts  --      1.2710                 2.2827                 4.9737
 IR Inten    --      7.6647                71.3628                73.0285

                     58                     59                     60
                      A                      A                      A
 Frequencies --   1217.9604              1228.3200              1243.9946
 Red. masses --      2.3971                 4.2692                 6.0517
 Frc consts  --      2.0951                 3.7950                 5.5178
 IR Inten    --      0.6417               415.1119                 6.3386

                     61                     62                     63
                      A                      A                      A
 Frequencies --   1246.8681              1268.2005              1337.0890
 Red. masses --      1.4841                 2.0205                 6.7382
 Frc consts  --      1.3594                 1.9146                 7.0976
 IR Inten    --     55.6484                16.3442                 5.5751

                     64                     65                     66
                      A                      A                      A
 Frequencies --   1348.0991              1357.8620              1378.6873
 Red. masses --      2.1420                 5.8910                 1.2755
 Frc consts  --      2.2936                 6.3995                 1.4284
 IR Inten    --    104.3078               186.1241               114.6285

                     67                     68                     69
                      A                      A                      A
 Frequencies --   1394.2739              1398.2082              1401.2128
 Red. masses --      1.7415                 1.3407                 1.2579
 Frc consts  --      1.9947                 1.5443                 1.4552
 IR Inten    --   1271.4716              2740.7827                 0.9902

                     70                     71                     72
                      A                      A                      A
 Frequencies --   1444.0963              1464.1978              1465.1067
 Red. masses --      4.4204                 2.3363                 2.2684
 Frc consts  --      5.4313                 2.9511                 2.8688
 IR Inten    --     46.0414                 1.2189               493.2452

                     73                     74                     75
                      A                      A                      A
 Frequencies --   1467.7799              1469.5526              1477.1489
 Red. masses --      1.1234                 1.0791                 3.0888
 Frc consts  --      1.4260                 1.3730                 3.9709
 IR Inten    --     60.4667                 0.3946                 3.0310

                     76                     77                     78
                      A                      A                      A
 Frequencies --   1480.4626              1489.3091              1489.4996
 Red. masses --      1.5505                 1.2599                 1.0710
 Frc consts  --      2.0022                 1.6465                 1.4000
 IR Inten    --   1920.8928               135.0543                 9.8203

                     79                     80                     81
                      A                      A                      A
 Frequencies --   1489.8805              1492.4491              1493.7220
 Red. masses --      3.4643                 1.2556                 1.6521
 Frc consts  --      4.5307                 1.6477                 2.1718
 IR Inten    --      2.2713                14.7081                76.8793

                     82                     83                     84
                      A                      A                      A
 Frequencies --   1496.0790              1517.5345              1543.9504
 Red. masses --      1.2772                 2.2142                 5.7656
 Frc consts  --      1.6843                 3.0043                 8.0977
 IR Inten    --      0.0236                 3.0005                 8.0016

                     85                     86                     87
                      A                      A                      A
 Frequencies --   1615.7670              1617.0434              2916.7944
 Red. masses --      5.8858                 6.2845                 1.0636
 Frc consts  --      9.0535                 9.6819                 5.3312
 IR Inten    --     56.8946                18.6138              1256.0263

                     88                     89                     90
                      A                      A                      A
 Frequencies --   2917.1869              2918.0678              2920.2791
 Red. masses --      1.0653                 1.0628                 1.0634
 Frc consts  --      5.3415                 5.3321                 5.3433
 IR Inten    --   4154.7687               717.0213                91.6388

                     91                     92                     93
                      A                      A                      A
 Frequencies --   3009.9813              3014.9394              3015.3745
 Red. masses --      1.0696                 1.0724                 1.0726
 Frc consts  --      5.7093                 5.7434                 5.7462
 IR Inten    --  13936.4313               249.8448               144.1965

                     94                     95                     96
                      A                      A                      A
 Frequencies --   3015.6175              3067.3738              3068.0178
 Red. masses --      1.0712                 1.0969                 1.0965
 Frc consts  --      5.7397                 6.0805                 6.0812
 IR Inten    --      0.6324               143.9368               890.1542

                     97                     98                     99
                      A                      A                      A
 Frequencies --   3068.0608              3069.1999              3147.5712
 Red. masses --      1.0965                 1.0968                 1.0881
 Frc consts  --      6.0809                 6.0874                 6.3516
 IR Inten    --    897.2770                 4.6217                 7.5606

                    100                    101                    102
                      A                      A                      A
 Frequencies --   3147.8137              3149.4641              3150.0257
 Red. masses --      1.0883                 1.0884                 1.0886
 Frc consts  --      6.3538                 6.3606                 6.3641
 IR Inten    --     11.2185               443.3214                 1.5932

 - Thermochemistry -
 -------------------
 Temperature   298.150 Kelvin.  Pressure   1.00000 Atm.
 Atom     1 has atomic number  6 and mass  12.00000

 Molecular mass:   264.11503 amu.
 Principal axes and moments of inertia in atomic units:
                           1         2         3
     Eigenvalues --  2210.313109248.44916**********
           X            0.79887  -0.57901   0.16296
           Y            0.39683   0.71091   0.58063
           Z           -0.45204  -0.39918   0.79769
 This molecule is an asymmetric top.
 Rotational symmetry number  1.
 Warning -- assumption of classical behavior for rotation
           may cause significant error
 Rotational temperatures (Kelvin)      0.03919     0.00937     0.00759
 Rotational constants (GHZ):           0.81651     0.19514     0.15812
 Zero-point vibrational energy     744391.5 (Joules/Mol)
                                  177.91383 (Kcal/Mol)
 Warning -- explicit consideration of  30 degrees of freedom as
           vibrations may cause significant error
 Vibrational temperatures:     56.03    93.91   125.10   195.81   200.03
          (Kelvin)            206.77   215.64   221.59   296.44   306.74
                              327.33   335.48   347.60   387.44   407.08
                              418.13   463.95   501.15   501.64   507.21
                              548.19   633.39   640.86   677.34   699.15
                              705.50   799.75   816.43   857.61   861.94
                              933.17  1027.53  1038.68  1039.90  1061.45
                             1066.45  1089.82  1135.97  1182.17  1329.22
                             1330.93  1335.19  1345.22  1373.88  1440.71
                             1454.15  1462.61  1467.87  1489.94  1504.07
                             1505.59  1510.99  1511.45  1642.49  1654.81
                             1675.07  1705.52  1752.37  1767.28  1789.83
                             1793.97  1824.66  1923.77  1939.61  1953.66
                             1983.62  2006.05  2011.71  2016.03  2077.73
                             2106.65  2107.96  2111.81  2114.36  2125.29
                             2130.06  2142.78  2143.06  2143.61  2147.30
                             2149.13  2152.52  2183.39  2221.40  2324.73
                             2326.56  4196.62  4197.18  4198.45  4201.63
                             4330.69  4337.83  4338.45  4338.80  4413.27
                             4414.19  4414.26  4415.89  4528.65  4529.00
                             4531.38  4532.18

 Zero-point correction=                           0.283524 (Hartree/Particle)
 Thermal correction to Energy=                    0.301459
 Thermal correction to Enthalpy=                  0.302403
 Thermal correction to Gibbs Free Energy=         0.238873
 Sum of electronic and zero-point Energies=           -845.948625
 Sum of electronic and thermal Energies=              -845.930691
 Sum of electronic and thermal Enthalpies=            -845.929746
 Sum of electronic and thermal Free Energies=         -845.993276

                     E (Thermal)             CV                S
                      KCal/Mol        Cal/Mol-Kelvin    Cal/Mol-Kelvin
 Total                  189.168             70.492            133.709
 Electronic               0.000              0.000              0.000
 Translational            0.889              2.981             42.613
 Rotational               0.889              2.981             33.811
 Vibrational            187.391             64.531             57.285
 Vibration     1          0.594              1.981              5.312
 Vibration     2          0.597              1.971              4.291
 Vibration     3          0.601              1.958              3.728
 Vibration     4          0.614              1.917              2.858
 Vibration     5          0.615              1.914              2.817
 Vibration     6          0.616              1.909              2.754
 Vibration     7          0.618              1.903              2.674
 Vibration     8          0.620              1.898              2.622
 Vibration     9          0.641              1.831              2.079
 Vibration    10          0.644              1.821              2.016
 Vibration    11          0.651              1.799              1.899
 Vibration    12          0.654              1.790              1.854
 Vibration    13          0.658              1.777              1.791
 Vibration    14          0.674              1.730              1.601
 Vibration    15          0.682              1.705              1.516
 Vibration    16          0.687              1.691              1.470
 Vibration    17          0.707              1.630              1.298
 Vibration    18          0.726              1.579              1.174
 Vibration    19          0.726              1.578              1.172
 Vibration    20          0.729              1.570              1.155
 Vibration    21          0.751              1.511              1.035
 Vibration    22          0.800              1.382              0.826
 Vibration    23          0.805              1.371              0.810
 Vibration    24          0.828              1.315              0.735
 Vibration    25          0.842              1.281              0.694
 Vibration    26          0.846              1.271              0.683
 Vibration    27          0.911              1.127              0.532
 Vibration    28          0.923              1.102              0.509
 Vibration    29          0.954              1.040              0.456
 Vibration    30          0.957              1.034              0.451

 Optimization completed.
    -- Stationary point found.
 Normal termination of Gaussian 16 at Thu Dec 21 11:43:52 2023.
