 Q-Chem 5.4, Q-Chem, Inc., Pleasanton, CA (2021)
 Q-Chem 5.4.0 for Intel X86 EM64T Linux

User input:
--------------------------------------------------------------
$molecule
-1 2
C                 -2.4783930000      1.3957840000      0.3568510000
C                 -1.9795530000     -0.0608110000      0.4304450000
C                 -2.7608620000     -0.9571700000     -0.5504020000
C                 -0.4741890000     -0.1662380000      0.2352180000
C                  0.3203310000     -0.6505770000      1.2469110000
C                  1.7567560000     -0.7905900000      1.1627480000
O                  2.4496860000     -1.2426540000      2.1219670000
C                  2.3620240000     -0.3786590000     -0.0974080000
C                  1.5740120000      0.1052890000     -1.1100020000
C                  0.1359910000      0.2458140000     -1.0264490000
O                 -0.5396470000      0.7013340000     -1.9995030000
C                  3.8558920000     -0.5063680000     -0.2314690000
H                 -2.2843590000      1.8079600000     -0.6349590000
H                 -3.5559450000      1.4470150000      0.5589880000
H                 -1.9646270000      2.0186230000      1.0958230000
H                 -2.1858010000     -0.4271330000      1.4449080000
H                 -2.5777660000     -0.6361200000     -1.5773410000
H                 -2.4471480000     -2.0013430000     -0.4542620000
H                 -3.8383690000     -0.9057130000     -0.3480780000
H                 -0.1257110000     -0.9599360000      2.1901950000
H                  2.0183670000      0.4149580000     -2.0537490000
H                  4.3703940000      0.0770810000      0.5400180000
H                  4.1931490000     -0.1674970000     -1.2154940000
H                  4.1757690000     -1.5439400000     -0.0849570000
$end
$rem
MAX_SCF_CYCLES=200
BASIS  =  6-311++G(d,p)
GUI  =  2
JOB_TYPE  =  SP
METHOD  =  B3LYP
SOLVENT_METHOD = COSMO
$end
$solvent
dielectric 37.219
opticaldielectric 1.43
$end

--------------------------------------------------------------

             Standard Nuclear Orientation (Angstroms)
    I     Atom           X                Y                Z
 ----------------------------------------------------------------
    1      C      -2.9188793484    -0.2878821996     1.2688789034
    2      C      -2.1754274538    -0.7481456353    -0.0005159392
    3      C      -2.9192164563    -0.2850431109    -1.2686949564
    4      C      -0.7144078405    -0.3229741301    -0.0002211382
    5      C       0.2801128602    -1.2718142529    -0.0003660444
    6      C       1.6947147102    -0.9736441303    -0.0002423402
    7      O       2.5774958402    -1.8821111686    -0.0004697418
    8      C       2.0453537260     0.4409518599     0.0000893899
    9      C       1.0571306391     1.3917043427     0.0002753490
   10      C      -0.3591984895     1.0939719571     0.0002313637
   11      O      -1.2275556128     2.0195933634     0.0006590582
   12      C       3.5071988753     0.8000232724     0.0002381105
   13      H      -2.9334301706     0.8022886617     1.3192881384
   14      H      -3.9521445386    -0.6579702141     1.2684281419
   15      H      -2.4227207487    -0.6681729610     2.1673048159
   16      H      -2.1774948544    -1.8462620259    -0.0016744609
   17      H      -2.9337778142     0.8052311501    -1.3165589302
   18      H      -2.4232365619    -0.6632494173    -2.1680950684
   19      H      -3.9524506558    -0.6552203916    -1.2688643976
   20      H       0.0246761411    -2.3297334757    -0.0007682838
   21      H       1.3108053203     2.4498412423     0.0006121890
   22      H       4.0151423184     0.3766965952     0.8737970482
   23      H       3.6459273797     1.8852118030     0.0013758386
   24      H       4.0148950308     0.3785936364    -0.8743957512
 ----------------------------------------------------------------

   10    -538.9462464324      6.75e-06  Convergence criterion met
 Total energy in the final basis set =     -538.9462464324
    4    -539.0310952968      6.35e-06  Convergence criterion met
 Total energy in the final basis set =     -539.0310952968

                    Orbital Energies (a.u.)
 --------------------------------------------------------------

 Alpha MOs
 -- Occupied --
-19.0774 -19.0744 -10.2161 -10.2157 -10.1692 -10.1678 -10.1662 -10.1550
-10.1550 -10.1545 -10.1452 -10.1452  -0.9978  -0.9943  -0.8274  -0.7926
 -0.7439  -0.6934  -0.6720  -0.6602  -0.5891  -0.5838  -0.5257  -0.4843
 -0.4578  -0.4409  -0.4253  -0.4240  -0.4184  -0.4031  -0.4018  -0.3871
 -0.3825  -0.3716  -0.3706  -0.3614  -0.3507  -0.3319  -0.3310  -0.3229
 -0.2755  -0.2432  -0.2419  -0.2337  -0.1600

 Beta MOs
 -- Occupied --
-19.0708 -19.0676 -10.2145 -10.2140 -10.1679 -10.1679 -10.1648 -10.1546
-10.1542 -10.1542 -10.1452 -10.1451  -0.9861  -0.9820  -0.8221  -0.7907
 -0.7420  -0.6885  -0.6718  -0.6530  -0.5857  -0.5812  -0.5221  -0.4824
 -0.4549  -0.4374  -0.4243  -0.4167  -0.4145  -0.4000  -0.3965  -0.3810
 -0.3806  -0.3687  -0.3606  -0.3484  -0.3392  -0.3295  -0.3293  -0.3224
 -0.2445  -0.2358  -0.2357  -0.2278

          Ground-State Mulliken Net Atomic Charges

     Atom                 Charge (a.u.)    Spin (a.u.)
  --------------------------------------------------------
      1 C                    -0.704997       0.010180
      2 C                     0.160666      -0.022219
      3 C                    -0.704416       0.010182
      4 C                     1.131437       0.121660
      5 C                    -0.191741       0.043169
      6 C                    -0.828889       0.120616
      7 O                    -0.543284       0.233150
      8 C                     1.050239       0.102743
      9 C                    -0.737360       0.054674
     10 C                    -0.709661       0.084340
     11 O                    -0.498659       0.244693
     12 C                    -0.390871       0.004188
     13 H                     0.179321      -0.001485
     14 H                     0.150846       0.000599
     15 H                     0.133611       0.000305
     16 H                     0.182959      -0.001105
     17 H                     0.179140      -0.001489
     18 H                     0.133599       0.000312
     19 H                     0.150830       0.000593
     20 H                     0.184968      -0.007157
     21 H                     0.170603      -0.006828
     22 H                     0.173679       0.004603
     23 H                     0.154316      -0.000341
     24 H                     0.173664       0.004618
  --------------------------------------------------------
  Sum of atomic charges =    -1.000000

                    Cartesian Multipole Moments
 -----------------------------------------------------------------
    Charge (ESU x 10^10)
                -4.8032
    Dipole Moment (Debye)
         X      -3.2402      Y      -0.1353      Z      -0.0026
       Tot       3.2430
    Quadrupole Moments (Debye-Ang)
        XX     -96.4914     XY      23.2145     YY     -97.4122
        XZ       0.0049     YZ      -0.0068     ZZ     -77.8840

 Total job time:  45.95s(wall), 336.93s(cpu)
        *  Thank you very much for using Q-Chem.  Have a nice day.  *
