 Q-Chem 5.4, Q-Chem, Inc., Pleasanton, CA (2021)
 Q-Chem 5.4.0 for Intel X86 EM64T Linux

User input:
--------------------------------------------------------------
$molecule
-2 1
N                 -2.0478470000      2.9224050000     -0.2256380000
C                 -2.0760680000      1.5149820000     -0.0235010000
C                 -3.2904090000      0.8666780000      0.0700240000
C                 -3.3620600000     -0.5443900000      0.1845350000
C                 -2.2198750000     -1.3181260000      0.2062760000
N                 -2.3349100000     -2.7352380000      0.2333800000
C                 -0.9131020000     -0.6958840000      0.1623130000
C                  0.2793490000     -1.5044140000      0.2943170000
O                  0.2656950000     -2.8039430000      0.4404740000
C                  1.5302090000     -0.7985140000      0.2769970000
C                  2.7459710000     -1.5249880000      0.3927830000
C                  3.9769680000     -0.9044130000      0.3933610000
C                  4.0490450000      0.5153780000      0.2787770000
C                  2.8868000000      1.2485530000      0.1688560000
C                  1.6031780000      0.6389630000      0.1608870000
C                  0.4298790000      1.4606940000      0.0546450000
O                  0.5481720000      2.7615420000     -0.0094120000
C                 -0.8389050000      0.7655550000      0.0440100000
H                 -1.0655060000      3.2372790000     -0.1092330000
H                 -2.6900030000      3.3970190000      0.3976350000
H                 -4.2060130000      1.4517700000     -0.0086840000
H                 -4.3324950000     -1.0393940000      0.1937370000
H                 -3.0168440000     -3.0366640000      0.9190610000
H                 -1.3883190000     -3.1246240000      0.4065920000
H                  2.6552200000     -2.6029180000      0.4810090000
H                  4.8894040000     -1.4928130000      0.4798980000
H                  5.0167340000      1.0152040000      0.2774660000
H                  2.9057310000      2.3303020000      0.0827600000
$end
$rem
MAX_SCF_CYCLES=200
BASIS  =  6-311++G(d,p)
GUI  =  2
JOB_TYPE  =  SP
METHOD  =  B3LYP
SOLVENT_METHOD = PCM
$end
$pcm
theory = CPCM
$end
$solvent
dielectric 37.219
opticaldielectric 1.43
$end

--------------------------------------------------------------

             Standard Nuclear Orientation (Angstroms)
    I     Atom           X                Y                Z
 ----------------------------------------------------------------
    1      N      -2.0478470000     2.9224050000    -0.2256380000
    2      C      -2.0760680000     1.5149820000    -0.0235010000
    3      C      -3.2904090000     0.8666780000     0.0700240000
    4      C      -3.3620600000    -0.5443900000     0.1845350000
    5      C      -2.2198750000    -1.3181260000     0.2062760000
    6      N      -2.3349100000    -2.7352380000     0.2333800000
    7      C      -0.9131020000    -0.6958840000     0.1623130000
    8      C       0.2793490000    -1.5044140000     0.2943170000
    9      O       0.2656950000    -2.8039430000     0.4404740000
   10      C       1.5302090000    -0.7985140000     0.2769970000
   11      C       2.7459710000    -1.5249880000     0.3927830000
   12      C       3.9769680000    -0.9044130000     0.3933610000
   13      C       4.0490450000     0.5153780000     0.2787770000
   14      C       2.8868000000     1.2485530000     0.1688560000
   15      C       1.6031780000     0.6389630000     0.1608870000
   16      C       0.4298790000     1.4606940000     0.0546450000
   17      O       0.5481720000     2.7615420000    -0.0094120000
   18      C      -0.8389050000     0.7655550000     0.0440100000
   19      H      -1.0655060000     3.2372790000    -0.1092330000
   20      H      -2.6900030000     3.3970190000     0.3976350000
   21      H      -4.2060130000     1.4517700000    -0.0086840000
   22      H      -4.3324950000    -1.0393940000     0.1937370000
   23      H      -3.0168440000    -3.0366640000     0.9190610000
   24      H      -1.3883190000    -3.1246240000     0.4065920000
   25      H       2.6552200000    -2.6029180000     0.4810090000
   26      H       4.8894040000    -1.4928130000     0.4798980000
   27      H       5.0167340000     1.0152040000     0.2774660000
   28      H       2.9057310000     2.3303020000     0.0827600000
 ----------------------------------------------------------------

    8    -799.9506285204      8.09e-06  Convergence criterion met
 Total energy in the final basis set =     -799.9506285204

                    Orbital Energies (a.u.)
 --------------------------------------------------------------

 Alpha MOs
 -- Occupied --
-19.0287 -19.0286 -14.2706 -14.2706 -10.1813 -10.1813 -10.1768 -10.1768
-10.1509 -10.1504 -10.1476 -10.1476 -10.1459 -10.1455 -10.1387 -10.1383
-10.1346 -10.1341  -0.9479  -0.9443  -0.8769  -0.8672  -0.8273  -0.7893
 -0.7498  -0.7253  -0.7062  -0.6847  -0.6370  -0.6054  -0.5968  -0.5499
 -0.5277  -0.5166  -0.4975  -0.4765  -0.4512  -0.4436  -0.4423  -0.4316
 -0.4154  -0.4079  -0.3987  -0.3864  -0.3790  -0.3685  -0.3568  -0.3544
 -0.3499  -0.3376  -0.3369  -0.3192  -0.3095  -0.3048  -0.3023  -0.2491
 -0.2319  -0.2277  -0.2169  -0.2083  -0.2047  -0.1735  -0.1085

          Ground-State Mulliken Net Atomic Charges

     Atom                 Charge (a.u.)
  ----------------------------------------
      1 N                    -0.515088
      2 C                    -0.206033
      3 C                    -0.384399
      4 C                    -0.385866
      5 C                    -0.212719
      6 N                    -0.514682
      7 C                     0.531746
      8 C                    -0.275351
      9 O                    -0.651706
     10 C                    -0.027559
     11 C                     0.016715
     12 C                    -0.534205
     13 C                    -0.534803
     14 C                     0.014233
     15 C                    -0.023412
     16 C                    -0.276430
     17 O                    -0.651458
     18 C                     0.528615
     19 H                     0.310314
     20 H                     0.255804
     21 H                     0.162392
     22 H                     0.162087
     23 H                     0.255886
     24 H                     0.310202
     25 H                     0.149217
     26 H                     0.173575
     27 H                     0.173397
     28 H                     0.149528
  ----------------------------------------
  Sum of atomic charges =    -2.000000

                    Cartesian Multipole Moments
 -----------------------------------------------------------------
    Charge (ESU x 10^10)
                -9.6064
    Dipole Moment (Debye)
         X      -1.2442      Y       0.3248      Z       1.1169
       Tot       1.7032
    Quadrupole Moments (Debye-Ang)
        XX    -134.2209     XY      -2.2921     YY    -165.3407
        XZ      -8.8074     YZ       4.1468     ZZ    -119.4870

 Total job time:  183.90s(wall), 346.30s(cpu)
        *  Thank you very much for using Q-Chem.  Have a nice day.  *
