 Q-Chem 5.4, Q-Chem, Inc., Pleasanton, CA (2021)
 Q-Chem 5.4.0 for Intel X86 EM64T Linux

User input:
--------------------------------------------------------------
$molecule
-1 2
Cl                 2.9961170000      2.8649360000      0.3373660000
C                  2.6218980000      1.1322400000      0.2631820000
C                  3.7261710000      0.3057710000      0.3436600000
C                  3.5667800000     -1.0906300000      0.2966680000
C                  2.3050860000     -1.6253420000      0.1702430000
C                  1.1648050000     -0.8002310000      0.0865570000
C                 -0.1307540000     -1.4744790000     -0.0460420000
O                 -0.2201620000     -2.7276280000     -0.0833920000
C                 -1.3063980000     -0.6162860000     -0.1322480000
C                 -2.5868400000     -1.1994860000     -0.2614550000
C                 -3.7201760000     -0.4169960000     -0.3456780000
C                 -3.6071110000      0.9897670000     -0.3027770000
C                 -2.3642560000      1.5778100000     -0.1768050000
C                 -1.1904230000      0.7976160000     -0.0888910000
C                  0.1018290000      1.4892440000      0.0439180000
O                  0.1432090000      2.7383800000      0.0765760000
C                  1.2957200000      0.6339230000      0.1318120000
H                  4.7094740000      0.7484980000      0.4428210000
H                  4.4395690000     -1.7327720000      0.3605090000
H                  2.1381980000     -2.6947850000      0.1301980000
H                 -2.6398680000     -2.2816010000     -0.2913870000
H                 -4.6973320000     -0.8805590000     -0.4447310000
H                 -4.4974860000      1.6080530000     -0.3688640000
H                 -2.2480480000      2.6545580000     -0.1412400000
$end
$rem
MAX_SCF_CYCLES=200
BASIS  =  6-311++G(d,p)
GUI  =  2
JOB_TYPE  =  SP
METHOD  =  B3LYP
SOLVENT_METHOD = COSMO
$end
$solvent
dielectric 37.219
opticaldielectric 1.43
$end

--------------------------------------------------------------

             Standard Nuclear Orientation (Angstroms)
    I     Atom           X                Y                Z
 ----------------------------------------------------------------
    1      Cl      3.1183849207    -1.8719746598    -0.0000581377
    2      C       2.3699663848    -0.2633577858    -0.0000163782
    3      C       3.2699370220     0.7849739495    -0.0000090469
    4      C       2.8061077740     2.1125325787     0.0000727223
    5      C       1.4520018545     2.3578265067     0.0001003687
    6      C       0.5164557285     1.3029304421     0.0000177753
    7      C      -0.9015621639     1.6769508005    -0.0000874957
    8      O      -1.2652585632     2.8800701417     0.0000081361
    9      C      -1.8644803306     0.5820288313    -0.0000739156
   10      C      -3.2476355062     0.8705252164    -0.0000863045
   11      C      -4.1857820994    -0.1412630839     0.0000021584
   12      C      -3.7650774724    -1.4890812989     0.0000682137
   13      C      -2.4176815491    -1.7905382451     0.0000340018
   14      C      -1.4393489865    -0.7721174807    -0.0000347048
   15      C      -0.0207329346    -1.1638204927    -0.0000329580
   16      O       0.2949937201    -2.3735461841     0.0001313178
   17      C       0.9606952418    -0.0677028791    -0.0000198501
   18      H       4.3309914754     0.5684368050    -0.0000566097
   19      H       3.5198596870     2.9302983555     0.0001030985
   20      H       1.0528589900     3.3647269514     0.0001712597
   21      H      -3.5379899758     1.9147354662    -0.0001399708
   22      H      -5.2454000743     0.0969505747     0.0000118740
   23      H      -4.5013266243    -2.2874232627     0.0001396802
   24      H      -2.0665961629    -2.8156696882     0.0000358593
 ----------------------------------------------------------------

   10   -1148.6345233642      9.26e-06  Convergence criterion met
 Total energy in the final basis set =    -1148.6345233642
    5   -1148.7142259333      4.72e-06  Convergence criterion met
 Total energy in the final basis set =    -1148.7142259333

                    Orbital Energies (a.u.)
 --------------------------------------------------------------

 Alpha MOs
 -- Occupied --
******** -19.0813 -19.0802 -10.2390 -10.2344 -10.2292 -10.1921 -10.1823
-10.1809 -10.1780 -10.1762 -10.1751 -10.1737 -10.1732 -10.1726 -10.1712
-10.1706  -9.4623  -7.2268  -7.2176  -7.2164  -1.0127  -1.0084  -0.8876
 -0.8598  -0.8351  -0.7892  -0.7527  -0.7449  -0.7390  -0.6713  -0.6418
 -0.6236  -0.5854  -0.5566  -0.5403  -0.5285  -0.4792  -0.4710  -0.4645
 -0.4596  -0.4326  -0.4311  -0.4252  -0.4206  -0.4168  -0.4099  -0.3916
 -0.3829  -0.3812  -0.3582  -0.3512  -0.3512  -0.3388  -0.3305  -0.3162
 -0.2744  -0.2589  -0.2541  -0.2534  -0.2513  -0.2374  -0.1466

 Beta MOs
 -- Occupied --
******** -19.0759 -19.0746 -10.2390 -10.2329 -10.2273 -10.1912 -10.1814
-10.1803 -10.1774 -10.1754 -10.1745 -10.1734 -10.1728 -10.1726 -10.1711
-10.1707  -9.4623  -7.2268  -7.2176  -7.2164  -1.0030  -0.9988  -0.8863
 -0.8578  -0.8339  -0.7854  -0.7505  -0.7430  -0.7370  -0.6641  -0.6399
 -0.6210  -0.5847  -0.5542  -0.5377  -0.5271  -0.4761  -0.4701  -0.4628
 -0.4588  -0.4320  -0.4247  -0.4192  -0.4157  -0.4148  -0.4072  -0.3826
 -0.3800  -0.3654  -0.3575  -0.3499  -0.3422  -0.3376  -0.3240  -0.3156
 -0.2557  -0.2528  -0.2484  -0.2463  -0.2455  -0.2326

          Ground-State Mulliken Net Atomic Charges

     Atom                 Charge (a.u.)    Spin (a.u.)
  --------------------------------------------------------
      1 Cl                    0.338141       0.000424
      2 C                     0.985508       0.023878
      3 C                    -0.096977       0.047149
      4 C                    -0.631043       0.048655
      5 C                     0.279008       0.027118
      6 C                     0.202283       0.042136
      7 C                    -0.715608       0.110372
      8 O                    -0.481521       0.199391
      9 C                    -0.010635       0.003227
     10 C                     0.108247       0.036920
     11 C                    -0.450285       0.024099
     12 C                    -0.476478       0.038722
     13 C                     0.181866       0.023902
     14 C                     0.043636       0.041443
     15 C                    -1.249669       0.087253
     16 O                    -0.374189       0.203403
     17 C                    -0.034802       0.059312
     18 H                     0.223003      -0.003550
     19 H                     0.209203      -0.003738
     20 H                     0.183872      -0.001490
     21 H                     0.178798      -0.001904
     22 H                     0.203302      -0.002112
     23 H                     0.204442      -0.003196
     24 H                     0.179899      -0.001414
  --------------------------------------------------------
  Sum of atomic charges =    -1.000000

                    Cartesian Multipole Moments
 -----------------------------------------------------------------
    Charge (ESU x 10^10)
                -4.8032
    Dipole Moment (Debye)
         X       0.7367      Y       0.4684      Z      -0.0004
       Tot       0.8730
    Quadrupole Moments (Debye-Ang)
        XX    -106.6593     XY      18.5831     YY    -138.2922
        XZ       0.0018     YZ      -0.0002     ZZ    -111.5035

 Total job time:  89.19s(wall), 568.13s(cpu)
        *  Thank you very much for using Q-Chem.  Have a nice day.  *
