 Q-Chem 5.4, Q-Chem, Inc., Pleasanton, CA (2021)
 Q-Chem 5.4.0 for Intel X86 EM64T Linux

User input:
--------------------------------------------------------------
$molecule
0 1
Br                -2.7033530000     -1.8760850000     -0.0961430000
C                 -1.2025410000     -0.7211350000     -0.0413520000
C                 -1.3383370000      0.6111050000     -0.0309990000
C                 -0.1537460000      1.4998050000      0.0117250000
O                 -0.2780110000      2.7123240000      0.0207280000
C                  1.1865660000      0.8693490000      0.0424170000
C                  1.3239410000     -0.4627350000      0.0322580000
Br                 3.0278680000     -1.2899570000      0.0714050000
C                  0.1429060000     -1.3939990000     -0.0106900000
O                  0.2658620000     -2.5937970000     -0.0195500000
H                 -2.3037350000      1.1007960000     -0.0529700000
H                  2.0325780000      1.5443290000      0.0731710000
$end
$rem
MAX_SCF_CYCLES=200
BASIS  =  6-311++G(d,p)
GUI  =  2
JOB_TYPE  =  SP
METHOD  =  B3LYP
SOLVENT_METHOD = PCM
$end
$pcm
theory = CPCM
$end
$solvent
dielectric 37.219
opticaldielectric 1.43
$end

--------------------------------------------------------------

             Standard Nuclear Orientation (Angstroms)
    I     Atom           X                Y                Z
 ----------------------------------------------------------------
    1      Br     -2.7033530000    -1.8760850000    -0.0961430000
    2      C      -1.2025410000    -0.7211350000    -0.0413520000
    3      C      -1.3383370000     0.6111050000    -0.0309990000
    4      C      -0.1537460000     1.4998050000     0.0117250000
    5      O      -0.2780110000     2.7123240000     0.0207280000
    6      C       1.1865660000     0.8693490000     0.0424170000
    7      C       1.3239410000    -0.4627350000     0.0322580000
    8      Br      3.0278680000    -1.2899570000     0.0714050000
    9      C       0.1429060000    -1.3939990000    -0.0106900000
   10      O       0.2658620000    -2.5937970000    -0.0195500000
   11      H      -2.3037350000     1.1007960000    -0.0529700000
   12      H       2.0325780000     1.5443290000     0.0731710000
 ----------------------------------------------------------------

    9   -5528.6479482943      4.81e-06  Convergence criterion met
 Total energy in the final basis set =    -5528.6479482943

                    Orbital Energies (a.u.)
 --------------------------------------------------------------

 Alpha MOs
 -- Occupied --
********-482.8555 -62.5083 -62.5082 -56.3289 -56.3289 -56.3250 -56.3249
-56.3246 -56.3245 -19.1654 -19.1552 -10.3185 -10.3030 -10.2760 -10.2760
-10.2266 -10.2266  -8.7171  -8.7170  -6.5490  -6.5488  -6.5358  -6.5357
 -6.5346  -6.5346  -2.6598  -2.6596  -2.6562  -2.6561  -2.6554  -2.6553
 -2.6448  -2.6448  -2.6448  -2.6447  -1.1030  -1.0858  -0.8990  -0.8628
 -0.8077  -0.7674  -0.7214  -0.6378  -0.6193  -0.5517  -0.5263  -0.4907
 -0.4751  -0.4651  -0.4646  -0.4423  -0.4395  -0.4177  -0.3715  -0.3580
 -0.3178  -0.3152  -0.3147  -0.2994  -0.2950  -0.2830

          Ground-State Mulliken Net Atomic Charges

     Atom                 Charge (a.u.)
  ----------------------------------------
      1 Br                   -0.073298
      2 C                     1.491421
      3 C                    -0.400643
      4 C                    -0.097689
      5 O                    -0.290472
      6 C                    -0.388297
      7 C                     1.475871
      8 Br                   -0.073510
      9 C                    -2.093671
     10 O                    -0.145953
     11 H                     0.298078
     12 H                     0.298164
  ----------------------------------------
  Sum of atomic charges =     0.000000

                    Cartesian Multipole Moments
 -----------------------------------------------------------------
    Charge (ESU x 10^10)
                 0.0000
    Dipole Moment (Debye)
         X      -0.1112      Y       1.0471      Z       0.0083
       Tot       1.0530
    Quadrupole Moments (Debye-Ang)
        XX     -74.7569     XY       2.6683     YY    -100.4860
        XZ       0.1971     YZ      -0.1309     ZZ     -80.7990

 Total job time:  46.23s(wall), 91.54s(cpu)
        *  Thank you very much for using Q-Chem.  Have a nice day.  *
