 Q-Chem 5.4, Q-Chem, Inc., Pleasanton, CA (2021)
 Q-Chem 5.4.0 for Intel X86 EM64T Linux

User input:
--------------------------------------------------------------
$molecule
0 1
C                 -0.8479520000      3.8025440000     -0.1505790000
C                 -1.8832410000      3.1321130000      0.4925960000
C                 -1.6939820000      1.8225340000      0.9381190000
C                  0.3786580000      3.1622880000     -0.3486900000
C                  0.5710440000      1.8451710000      0.0986040000
C                 -0.4721790000      1.1816980000      0.7420280000
C                  1.4788740000      3.8764530000     -1.0323730000
C                  2.7773990000      3.1416540000     -1.2207640000
C                  2.9600240000      1.8538340000     -0.7791560000
C                  1.8837380000      1.1349830000     -0.1042040000
O                  1.3785350000      5.0218910000     -1.4435900000
O                  2.0226210000     -0.0189740000      0.2956140000
N                  3.7337190000      3.8464400000     -1.8522280000
H                 -0.9697710000      4.8186780000     -0.5053640000
H                 -2.8352440000      3.6268150000      0.6470920000
H                 -2.5012930000      1.3003370000      1.4393900000
H                 -0.3061340000      0.1663250000      1.0802160000
H                  3.5344710000      4.7912420000     -2.1413190000
H                  4.6306530000      3.4100760000     -1.9995270000
N                  4.2391950000      1.2542150000     -1.0121200000
C                  4.9938960000      0.9511980000      0.2116730000
C                  4.2100740000      0.1237620000     -1.9504390000
H                  5.0251600000      1.8382790000      0.8481380000
H                  6.0212400000      0.6951740000     -0.0632070000
H                  4.5628310000      0.1200730000      0.7838510000
H                  3.6839900000      0.4203120000     -2.8605480000
H                  3.7204560000     -0.7647880000     -1.5320880000
H                  5.2376510000     -0.1347660000     -2.2220450000
$end
$rem
MAX_SCF_CYCLES=200
BASIS  =  6-311++G(d,p)
GUI  =  2
JOB_TYPE  =  SP
METHOD  =  B3LYP
SOLVENT_METHOD = COSMO
$end
$solvent
dielectric 37.219
opticaldielectric 1.43
$end

--------------------------------------------------------------

             Standard Nuclear Orientation (Angstroms)
    I     Atom           X                Y                Z
 ----------------------------------------------------------------
    1      C       2.9455715939    -0.8272620183    -0.0002536961
    2      C       3.8605707878     0.2204738979    -0.0012758725
    3      C       3.4071024325     1.5409560547    -0.0017164682
    4      C       1.5747617840    -0.5540806518     0.0002067672
    5      C       1.1166081192     0.7733139669    -0.0002757823
    6      C       2.0410540065     1.8163403220    -0.0012336201
    7      C       0.6028289143    -1.6691024113     0.0017269438
    8      C      -0.8599878135    -1.3201684660     0.0012396007
    9      C      -1.3018833339    -0.0195624756     0.0027480467
   10      C      -0.3555431888     1.0918012347    -0.0003421563
   11      O       0.9339387926    -2.8444982863     0.0042435567
   12      O      -0.7275496862     2.2632796271    -0.0033787414
   13      N      -1.6889584046    -2.3798007019    -0.0010659208
   14      H       3.2720852583    -1.8600394434     0.0001801339
   15      H       4.9240172398     0.0107354627    -0.0017527219
   16      H       4.1207240126     2.3573241865    -0.0025452074
   17      H       1.6698626967     2.8337592032    -0.0017092079
   18      H      -1.2961386520    -3.3079949576     0.0074344617
   19      H      -2.6826850107    -2.2094376557     0.0081536769
   20      N      -2.7177381774     0.1936227358     0.0036115182
   21      C      -3.2284467488     0.8402293088     1.2202211118
   22      C      -3.2314308765     0.8171671165    -1.2237950077
   23      H      -2.8559013225     0.3079226338     2.0981945417
   24      H      -4.3202861329     0.7736918553     1.2218097656
   25      H      -2.9378856200     1.8955659786     1.2964589458
   26      H      -2.8637240996     0.2665836540    -2.0925033860
   27      H      -2.9380732144     1.8700643559    -1.3218415934
   28      H      -4.3234659919     0.7541844921    -1.2201163156
 ----------------------------------------------------------------

    9    -724.6517354428      5.09e-06  Convergence criterion met
 Total energy in the final basis set =     -724.6517354428
    5    -724.6666882816      3.87e-06  Convergence criterion met
 Total energy in the final basis set =     -724.6666882816

                    Orbital Energies (a.u.)
 --------------------------------------------------------------

 Alpha MOs
 -- Occupied --
-19.1431 -19.1139 -14.3427 -14.3158 -10.2911 -10.2668 -10.2459 -10.2072
-10.2051 -10.2040 -10.1962 -10.1949 -10.1924 -10.1916 -10.1837 -10.1835
 -1.0781  -1.0486  -0.9553  -0.9168  -0.8859  -0.8119  -0.7751  -0.7571
 -0.7047  -0.6962  -0.6596  -0.6387  -0.6062  -0.5908  -0.5712  -0.5382
 -0.5118  -0.5048  -0.4871  -0.4718  -0.4668  -0.4599  -0.4503  -0.4481
 -0.4436  -0.4428  -0.4223  -0.4161  -0.3901  -0.3832  -0.3777  -0.3765
 -0.3666  -0.3646  -0.3569  -0.2960  -0.2834  -0.2775  -0.2756  -0.2327
 -0.2247

          Ground-State Mulliken Net Atomic Charges

     Atom                 Charge (a.u.)
  ----------------------------------------
      1 C                    -0.003486
      2 C                    -0.335260
      3 C                    -0.325247
      4 C                     0.958776
      5 C                     0.033362
      6 C                     0.089963
      7 C                    -0.671894
      8 C                     0.270608
      9 C                    -0.304100
     10 C                    -0.812973
     11 O                    -0.302830
     12 O                    -0.306854
     13 N                    -0.498649
     14 H                     0.193172
     15 H                     0.224172
     16 H                     0.227219
     17 H                     0.194294
     18 H                     0.355404
     19 H                     0.345678
     20 N                     0.169988
     21 C                    -0.236799
     22 C                    -0.239800
     23 H                     0.155329
     24 H                     0.159178
     25 H                     0.173250
     26 H                     0.154485
     27 H                     0.173444
     28 H                     0.159572
  ----------------------------------------
  Sum of atomic charges =     0.000000

                    Cartesian Multipole Moments
 -----------------------------------------------------------------
    Charge (ESU x 10^10)
                 0.0000
    Dipole Moment (Debye)
         X       0.2497      Y      -1.9725      Z       0.0206
       Tot       1.9884
    Quadrupole Moments (Debye-Ang)
        XX     -71.9375     XY      12.8164     YY    -101.2365
        XZ      -0.0517     YZ      -0.0265     ZZ     -94.9567

 Total job time:  47.90s(wall), 365.13s(cpu)
        *  Thank you very much for using Q-Chem.  Have a nice day.  *
