 Q-Chem 5.4, Q-Chem, Inc., Pleasanton, CA (2021)
 Q-Chem 5.4.0 for Intel X86 EM64T Linux

User input:
--------------------------------------------------------------
$molecule
0 1
C                 -4.9829600000     -1.4364650000     -0.5850250000
C                 -3.5433410000     -1.7298350000     -0.2879670000
O                 -3.0962410000     -2.2596890000      0.6874190000
O                 -2.7484600000     -1.3077540000     -1.3406740000
C                 -1.3767260000     -1.3093160000     -1.1740020000
C                 -0.6773360000     -2.3148660000     -1.8312710000
C                  0.7043780000     -2.3458290000     -1.7810210000
C                  1.3985700000     -1.3714190000     -1.0732590000
O                  2.7774210000     -1.4318630000     -1.1399330000
C                  3.4740860000     -1.8854480000     -0.0321340000
C                  4.9432200000     -1.6581810000     -0.2238800000
O                  2.9339910000     -2.3909490000      0.9084980000
C                  0.7194300000     -0.3329490000     -0.4140920000
C                  1.4794020000      0.7440770000      0.2972170000
O                  2.6887770000      0.6940550000      0.4531350000
C                  0.7142610000      1.9153070000      0.8070080000
C                  1.4143070000      2.9899700000      1.3663860000
C                  0.7235610000      4.0890960000      1.8596920000
C                 -0.6736510000      4.1198550000      1.8097650000
C                 -1.3750620000      3.0513680000      1.2666900000
C                 -0.6847680000      1.9461220000      0.7569750000
C                 -1.4622420000      0.8089380000      0.1918090000
O                 -2.6806820000      0.8122380000      0.2608960000
C                 -0.7014300000     -0.3013570000     -0.4654330000
H                 -5.1356960000     -0.3597410000     -0.4788850000
H                 -5.6161060000     -1.9689750000      0.1216180000
H                 -5.2322970000     -1.7129690000     -1.6106360000
H                 -1.2361320000     -3.0657360000     -2.3756230000
H                  1.2670800000     -3.1219020000     -2.2844670000
H                  5.1366350000     -0.5895400000     -0.1031760000
H                  5.2531060000     -1.9455250000     -1.2297860000
H                  5.4988930000     -2.2189620000      0.5248240000
H                  2.4949940000      2.9398380000      1.4048920000
H                  1.2689770000      4.9224990000      2.2875810000
H                 -1.2110600000      4.9770850000      2.1989670000
H                 -2.4569000000      3.0488230000      1.2278930000
$end
$rem
MAX_SCF_CYCLES=200
BASIS  =  6-311++G(d,p)
GUI  =  2
JOB_TYPE  =  SP
METHOD  =  B3LYP
SOLVENT_METHOD = COSMO
$end
$solvent
dielectric 37.219
opticaldielectric 1.43
$end

--------------------------------------------------------------

             Standard Nuclear Orientation (Angstroms)
    I     Atom           X                Y                Z
 ----------------------------------------------------------------
    1      C       4.9684960344     1.4925347170     0.1930708492
    2      C       3.5129624107     1.6368890152     0.5207841148
    3      O       3.0191780725     1.7366448158     1.6062551314
    4      O       2.7663596103     1.6596792013    -0.6455113317
    5      C       1.3897521184     1.5876763831    -0.5495760957
    6      C       0.6930767494     2.7669802284    -0.7865688882
    7      C      -0.6898970595     2.7678495380    -0.7863792751
    8      C      -1.3880655087     1.5894151064    -0.5494034611
    9      O      -2.7645576535     1.6635002256    -0.6448484712
   10      C      -3.5108499273     1.6395495919     0.5216738424
   11      C      -4.9667241999     1.4980577252     0.1942877068
   12      O      -3.0165324910     1.7361815095     1.6071852307
   13      C      -0.7109748330     0.3789972546    -0.3244833523
   14      C      -1.4727606589    -0.8955042742    -0.1274271487
   15      O      -2.6878178329    -0.9178213993    -0.0154515991
   16      C      -0.7014122940    -2.1685323216    -0.0883296177
   17      C      -1.3978386567    -3.3806123936    -0.0273301681
   18      C      -0.7017859984    -4.5812982798     0.0218928919
   19      C       0.6966556229    -4.5820203654     0.0227323815
   20      C       1.3939857727    -3.3820370176    -0.0256715753
   21      C       0.6988497719    -2.1692538522    -0.0875330513
   22      C       1.4714850591    -0.8970025995    -0.1259692471
   23      O       2.6863795794    -0.9204288939    -0.0125565037
   24      C       0.7111631398     0.3782002425    -0.3242751310
   25      H       5.1406511854     0.4620868517    -0.1270359426
   26      H       5.5637234079     1.7067817394     1.0782757261
   27      H       5.2489827191     2.1524722130    -0.6293104771
   28      H       1.2548774631     3.6747925684    -0.9672192129
   29      H      -1.2506228028     3.6763857873    -0.9667379218
   30      H      -5.1411147641     0.4673483549    -0.1238294570
   31      H      -5.2459105249     2.1570420017    -0.6292640569
   32      H      -5.5613924426     1.7150140254     1.0792199852
   33      H      -2.4800457969    -3.3558042151    -0.0177082479
   34      H      -1.2441772386    -5.5189522595     0.0636652136
   35      H       1.2380418737    -5.5202262602     0.0651650256
   36      H       2.4762073858    -3.3583166677    -0.0147689363
 ----------------------------------------------------------------

    9   -1144.8292934349      4.93e-06  Convergence criterion met
 Total energy in the final basis set =    -1144.8292934349
    5   -1144.8536051389      3.98e-06  Convergence criterion met
 Total energy in the final basis set =    -1144.8536051389

                    Orbital Energies (a.u.)
 --------------------------------------------------------------

 Alpha MOs
 -- Occupied --
-19.1902 -19.1902 -19.1374 -19.1374 -19.1357 -19.1357 -10.3275 -10.3275
-10.2918 -10.2918 -10.2717 -10.2717 -10.2280 -10.2275 -10.2098 -10.2092
-10.2088 -10.2082 -10.1976 -10.1973 -10.1970 -10.1967 -10.1806 -10.1805
 -1.1353  -1.1349  -1.0736  -1.0718  -1.0557  -1.0552  -0.9027  -0.8868
 -0.8222  -0.8074  -0.7791  -0.7790  -0.7702  -0.7460  -0.7026  -0.6822
 -0.6584  -0.6577  -0.6185  -0.6061  -0.5721  -0.5717  -0.5448  -0.5242
 -0.5138  -0.5135  -0.5080  -0.5033  -0.4974  -0.4922  -0.4843  -0.4731
 -0.4650  -0.4605  -0.4590  -0.4508  -0.4503  -0.4403  -0.4317  -0.4251
 -0.4215  -0.4171  -0.4096  -0.4033  -0.3929  -0.3916  -0.3856  -0.3828
 -0.3721  -0.3688  -0.3478  -0.3412  -0.3098  -0.3077  -0.2981  -0.2914
 -0.2809  -0.2806  -0.2781  -0.2713

          Ground-State Mulliken Net Atomic Charges

     Atom                 Charge (a.u.)
  ----------------------------------------
      1 C                    -0.512197
      2 C                     0.088079
      3 O                    -0.269493
      4 O                     0.002542
      5 C                    -0.347689
      6 C                     0.044926
      7 C                     0.044135
      8 C                    -0.347039
      9 O                     0.002273
     10 C                     0.087484
     11 C                    -0.512274
     12 O                    -0.269330
     13 C                     0.776918
     14 C                    -0.452641
     15 O                    -0.261666
     16 C                     0.050779
     17 C                    -0.022449
     18 C                    -0.376708
     19 C                    -0.376462
     20 C                    -0.023602
     21 C                     0.050596
     22 C                    -0.453552
     23 O                    -0.261585
     24 C                     0.778608
     25 H                     0.207550
     26 H                     0.185093
     27 H                     0.197089
     28 H                     0.257989
     29 H                     0.257768
     30 H                     0.207772
     31 H                     0.196899
     32 H                     0.185010
     33 H                     0.202974
     34 H                     0.229546
     35 H                     0.229573
     36 H                     0.203086
  ----------------------------------------
  Sum of atomic charges =     0.000000

                    Cartesian Multipole Moments
 -----------------------------------------------------------------
    Charge (ESU x 10^10)
                -0.0000
    Dipole Moment (Debye)
         X      -0.0011      Y      -1.3444      Z      -5.0834
       Tot       5.2582
    Quadrupole Moments (Debye-Ang)
        XX    -119.6440     XY      -0.0005     YY    -101.6225
        XZ      -0.0277     YZ     -11.2340     ZZ    -150.1722

 Total job time:  120.24s(wall), 850.96s(cpu)
        *  Thank you very much for using Q-Chem.  Have a nice day.  *
