 Gaussian 16, Revision A.03,
 Gaussian 16:  ES64L-G16RevA.03 25-Dec-2016

 ----------------------------------------------------------------
 #P UB3LYP/6-311++G(d,p) SCRF=(PCM,Solvent=n,n-DiMethylFormamide)
 ----------------------------------------------------------------

 -------
 Reduced
 -------
 Symbolic Z-matrix:
 Charge = -2 Multiplicity = 1

                         Standard orientation:
 ---------------------------------------------------------------------
 Center     Atomic      Atomic             Coordinates (Angstroms)
 Number     Number       Type             X           Y           Z
 ---------------------------------------------------------------------
      1          6           0        1.305911    2.395236   -0.010593
      2          6           0        2.674267    2.325859   -0.003661
      3          6           0        3.321799    1.062185   -0.004255
      4          6           0        2.569835   -0.104771    0.002524
      5          6           0        1.130493   -0.087197    0.008572
      6          6           0        0.499835    1.223460   -0.011503
      7          6           0       -0.929282    1.417380   -0.018463
      8          6           0        0.319873   -1.297118    0.018732
      9          6           0       -1.741254    0.224908    0.027107
     10          6           0       -1.131028   -1.081230    0.015944
     11          6           0       -3.183398    0.296038    0.038989
     12          6           0       -3.948032   -0.863191   -0.016179
     13          6           0       -3.328711   -2.135132   -0.055167
     14          6           0       -1.954955   -2.234167   -0.024875
     15          8           0       -1.434261    2.618747   -0.066396
     16          8           0        0.785560   -2.479166    0.017980
     17          7           0       -3.808301    1.549368    0.150434
     18          8           0        3.186072   -1.334106    0.007105
     19          6           0        4.589718   -1.392760    0.002467
     20          1           0        0.779172    3.342238   -0.013231
     21          1           0        3.277966    3.231537   -0.002198
     22          1           0        4.403197    1.023149    0.005176
     23          1           0       -5.033712   -0.777526    0.008667
     24          1           0       -3.945191   -3.031762   -0.096273
     25          1           0       -1.446874   -3.191425   -0.041071
     26          1           0       -3.103438    2.293417   -0.010752
     27          1           0       -4.658761    1.622921   -0.391652
     28          1           0        4.847663   -2.454284   -0.030661
     29          1           0        5.035103   -0.948220    0.906065
     30          1           0        5.033593   -0.896426   -0.874444
 ---------------------------------------------------------------------

 SCF Done:  E(UB3LYP) =  -859.112995529     A.U. after   17 cycles

 The electronic state is 1-A.
 Alpha  occ. eigenvalues --  -19.13276 -19.02051 -19.01250 -14.27619 -10.21275
 Alpha  occ. eigenvalues --  -10.20778 -10.18537 -10.17586 -10.17198 -10.14591
 Alpha  occ. eigenvalues --  -10.14380 -10.14037 -10.13940 -10.13785 -10.13490
 Alpha  occ. eigenvalues --  -10.13449 -10.13314 -10.13084 -10.13010  -1.05001
 Alpha  occ. eigenvalues --   -0.94143  -0.93795  -0.87910  -0.82109  -0.80291
 Alpha  occ. eigenvalues --   -0.74797  -0.73408  -0.70578  -0.69679  -0.67562
 Alpha  occ. eigenvalues --   -0.63121  -0.59902  -0.59274  -0.55108  -0.52971
 Alpha  occ. eigenvalues --   -0.51745  -0.49781  -0.47720  -0.45738  -0.45405
 Alpha  occ. eigenvalues --   -0.45212  -0.43743  -0.43335  -0.41781  -0.41038
 Alpha  occ. eigenvalues --   -0.39579  -0.38176  -0.37529  -0.36787  -0.35859
 Alpha  occ. eigenvalues --   -0.35388  -0.34994  -0.33136  -0.32678  -0.32126
 Alpha  occ. eigenvalues --   -0.31954  -0.31115  -0.30600  -0.29113  -0.27654
 Alpha  occ. eigenvalues --   -0.22351  -0.21468  -0.20477  -0.20240  -0.18816
 Alpha  occ. eigenvalues --   -0.18305  -0.10003
 Alpha virt. eigenvalues --   -0.01295  -0.00026   0.00450   0.00578   0.01209
 Alpha virt. eigenvalues --    0.02041   0.02281   0.03205   0.03764   0.03917
 Alpha virt. eigenvalues --    0.04215   0.04334   0.05284   0.05798   0.06447

  Beta  occ. eigenvalues --  -19.13276 -19.02051 -19.01250 -14.27619 -10.21275
  Beta  occ. eigenvalues --  -10.20778 -10.18537 -10.17586 -10.17198 -10.14591
  Beta  occ. eigenvalues --  -10.14380 -10.14037 -10.13940 -10.13785 -10.13490
  Beta  occ. eigenvalues --  -10.13449 -10.13314 -10.13084 -10.13010  -1.05001
  Beta  occ. eigenvalues --   -0.94143  -0.93795  -0.87910  -0.82109  -0.80291
  Beta  occ. eigenvalues --   -0.74797  -0.73408  -0.70578  -0.69679  -0.67562
  Beta  occ. eigenvalues --   -0.63121  -0.59902  -0.59274  -0.55108  -0.52971
  Beta  occ. eigenvalues --   -0.51745  -0.49781  -0.47720  -0.45738  -0.45405
  Beta  occ. eigenvalues --   -0.45212  -0.43743  -0.43335  -0.41781  -0.41038
  Beta  occ. eigenvalues --   -0.39579  -0.38176  -0.37529  -0.36787  -0.35859
  Beta  occ. eigenvalues --   -0.35388  -0.34994  -0.33136  -0.32678  -0.32126
  Beta  occ. eigenvalues --   -0.31954  -0.31115  -0.30600  -0.29113  -0.27654
  Beta  occ. eigenvalues --   -0.22351  -0.21468  -0.20477  -0.20240  -0.18816
  Beta  occ. eigenvalues --   -0.18305  -0.10003
  Beta virt. eigenvalues --   -0.01295  -0.00026   0.00450   0.00578   0.01209
  Beta virt. eigenvalues --    0.02041   0.02281   0.03205   0.03764   0.03917
  Beta virt. eigenvalues --    0.04215   0.04334   0.05284   0.05798   0.06447

 Mulliken charges and spin densities:
               1          2
     1  C   -0.266942  -0.000000
     2  C   -0.528879   0.000000
     3  C   -0.249728  -0.000000
     4  C   -0.014113  -0.000000
     5  C    0.109299  -0.000000
     6  C    0.276835   0.000000
     7  C   -0.450319   0.000000
     8  C   -0.455420   0.000000
     9  C    0.157195   0.000000
    10  C    0.521452   0.000000
    11  C    0.156420  -0.000000
    12  C   -0.264335   0.000000
    13  C   -0.501232  -0.000000
    14  C   -0.224253  -0.000000
    15  O   -0.639325   0.000000
    16  O   -0.640517  -0.000000
    17  N   -0.477650   0.000000
    18  O   -0.152179   0.000000
    19  C   -0.275946  -0.000000
    20  H    0.138502  -0.000000
    21  H    0.164057   0.000000
    22  H    0.157065  -0.000000
    23  H    0.137022   0.000000
    24  H    0.154459  -0.000000
    25  H    0.138875   0.000000
    26  H    0.309855  -0.000000
    27  H    0.243914   0.000000
    28  H    0.184350   0.000000
    29  H    0.148773   0.000000
    30  H    0.142764  -0.000000
 Sum of Mulliken charges =  -2.00000  -0.00000

 Dipole moment (field-independent basis, Debye):
    X=              4.8583    Y=              0.4594    Z=             -1.1249  Tot=              5.0079
 Quadrupole moment (field-independent basis, Debye-Ang):
   XX=           -134.2270   YY=           -168.1565   ZZ=           -125.0405
   XY=              8.5307   XZ=              5.4260   YZ=             -1.5048

 Normal termination of Gaussian 16 at Sun Jan 14 01:29:17 2024.
