 Gaussian 16, Revision A.03,
 Gaussian 16:  ES64L-G16RevA.03 25-Dec-2016

 ----------------------------------------------------------------------
 #P UB3LYP/6-311++G(d,p) nosym opt freq SCRF=(PCM,Solvent=n,n-DiMethylF
 ormamide)
 ----------------------------------------------------------------------

 -------
 Reduced
 -------
 Symbolic Z-matrix:
 Charge = -2 Multiplicity = 1

 SCF Done:  E(UB3LYP) =  -839.256294262     A.U. after   17 cycles
 SCF Done:  E(UB3LYP) =  -839.256916400     A.U. after   13 cycles
 SCF Done:  E(UB3LYP) =  -839.257335536     A.U. after   12 cycles
 SCF Done:  E(UB3LYP) =  -839.257436491     A.U. after   13 cycles
 SCF Done:  E(UB3LYP) =  -839.257542054     A.U. after   12 cycles
 SCF Done:  E(UB3LYP) =  -839.257548062     A.U. after   12 cycles
 SCF Done:  E(UB3LYP) =  -839.257554627     A.U. after   11 cycles
 SCF Done:  E(UB3LYP) =  -839.257558353     A.U. after   11 cycles
 SCF Done:  E(UB3LYP) =  -839.257559901     A.U. after   11 cycles
 SCF Done:  E(UB3LYP) =  -839.257560236     A.U. after    9 cycles
 SCF Done:  E(UB3LYP) =  -839.257560520     A.U. after    9 cycles
 SCF Done:  E(UB3LYP) =  -839.257560722     A.U. after    9 cycles
 SCF Done:  E(UB3LYP) =  -839.257584680     A.U. after   10 cycles
 Optimization completed.
    -- Stationary point found.
 Normal termination of Gaussian 16 at Sat Feb 10 19:14:12 2024.

 ----------------------------------------------------------------------
 #P Geom=AllCheck Guess=TCheck SCRF=Check GenChk UB3LYP/6-311++G(d,p) F
 req
 ----------------------------------------------------------------------

 Structure from the checkpoint file:  "156-an.chk"
 -------
 Reduced
 -------
 Charge = -2 Multiplicity = 1

                          Input orientation:
 ---------------------------------------------------------------------
 Center     Atomic      Atomic             Coordinates (Angstroms)
 Number     Number       Type             X           Y           Z
 ---------------------------------------------------------------------
      1          6           0       -1.871788    1.914296   -5.124357
      2          6           0       -1.754360    0.608934   -5.543496
      3          6           0       -1.287777   -0.382176   -4.635249
      4          6           0       -1.536580    2.319649   -3.800402
      5          6           0       -1.065567    1.316046   -2.879919
      6          6           0       -0.956142   -0.025199   -3.348074
      7          6           0       -1.664941    3.697028   -3.420412
      8          6           0       -0.721195    1.634026   -1.523726
      9          6           0       -1.276581    4.038866   -2.075864
     10          6           0       -0.880097    3.004477   -1.115040
     11          6           0       -1.277063    5.423415   -1.638160
     12          6           0       -0.984249    5.735405   -0.330107
     13          6           0       -0.682370    4.732555    0.625985
     14          6           0       -0.641830    3.396479    0.270301
     15          8           0       -2.127902    4.570784   -4.288415
     16          8           0       -0.273365    0.684049   -0.727772
     17          7           0       -1.497535    6.463347   -2.574515
     18          7           0       -0.428003    2.401141    1.226847
     19          6           0        0.203642    2.708432    2.490551
     20          1           0       -2.224906    2.683220   -5.801720
     21          1           0       -2.014534    0.333604   -6.561165
     22          1           0       -1.196568   -1.414870   -4.958335
     23          1           0       -0.602217   -0.770134   -2.644957
     24          1           0       -0.972054    6.779537   -0.026774
     25          1           0       -0.501331    5.026719    1.652994
     26          1           0       -1.942470    6.075389   -3.414915
     27          1           0       -1.983293    7.257678   -2.177320
     28          1           0       -0.190292    1.515308    0.763379
     29          1           0       -0.449988    3.300275    3.143396
     30          1           0        1.145975    3.271978    2.380539
     31          1           0        0.423530    1.773316    3.010185
 ---------------------------------------------------------------------

 SCF Done:  E(UB3LYP) =  -839.257584680     A.U. after    1 cycles

 Alpha  occ. eigenvalues --  -19.02166 -19.02077 -14.27695 -14.27087 -10.17741
 Alpha  occ. eigenvalues --  -10.17583 -10.17580 -10.17529 -10.17315 -10.14869
 Alpha  occ. eigenvalues --  -10.14826 -10.14592 -10.14576 -10.14174 -10.14124
 Alpha  occ. eigenvalues --  -10.13613 -10.13556 -10.13025 -10.12962  -0.93756
 Alpha  occ. eigenvalues --   -0.93299  -0.89156  -0.87075  -0.82497  -0.79198
 Alpha  occ. eigenvalues --   -0.74865  -0.72251  -0.70740  -0.69902  -0.65192
 Alpha  occ. eigenvalues --   -0.63390  -0.60133  -0.59032  -0.54817  -0.52941
 Alpha  occ. eigenvalues --   -0.51178  -0.49154  -0.47872  -0.45736  -0.44181
 Alpha  occ. eigenvalues --   -0.43769  -0.43065  -0.42033  -0.41771  -0.39992
 Alpha  occ. eigenvalues --   -0.39789  -0.38070  -0.37790  -0.37390  -0.35760
 Alpha  occ. eigenvalues --   -0.35321  -0.34610  -0.34405  -0.33935  -0.32693
 Alpha  occ. eigenvalues --   -0.31543  -0.30492  -0.30193  -0.28773  -0.23670
 Alpha  occ. eigenvalues --   -0.22846  -0.22143  -0.21311  -0.20324  -0.19548
 Alpha  occ. eigenvalues --   -0.16195  -0.10435
 Alpha virt. eigenvalues --   -0.01838  -0.00040   0.00317   0.00583   0.01023
 Alpha virt. eigenvalues --    0.02190   0.02304   0.03125   0.03564   0.04081
 Alpha virt. eigenvalues --    0.04169   0.04745   0.05566   0.05919   0.06089

  Beta  occ. eigenvalues --  -19.02166 -19.02077 -14.27695 -14.27087 -10.17741
  Beta  occ. eigenvalues --  -10.17583 -10.17580 -10.17529 -10.17315 -10.14869
  Beta  occ. eigenvalues --  -10.14826 -10.14592 -10.14576 -10.14174 -10.14124
  Beta  occ. eigenvalues --  -10.13613 -10.13556 -10.13025 -10.12962  -0.93756
  Beta  occ. eigenvalues --   -0.93299  -0.89156  -0.87075  -0.82497  -0.79198
  Beta  occ. eigenvalues --   -0.74865  -0.72251  -0.70740  -0.69902  -0.65192
  Beta  occ. eigenvalues --   -0.63390  -0.60133  -0.59032  -0.54817  -0.52941
  Beta  occ. eigenvalues --   -0.51178  -0.49154  -0.47872  -0.45736  -0.44181
  Beta  occ. eigenvalues --   -0.43769  -0.43065  -0.42033  -0.41771  -0.39992
  Beta  occ. eigenvalues --   -0.39789  -0.38070  -0.37790  -0.37390  -0.35760
  Beta  occ. eigenvalues --   -0.35321  -0.34610  -0.34405  -0.33935  -0.32693
  Beta  occ. eigenvalues --   -0.31543  -0.30492  -0.30193  -0.28773  -0.23670
  Beta  occ. eigenvalues --   -0.22846  -0.22143  -0.21311  -0.20324  -0.19548
  Beta  occ. eigenvalues --   -0.16195  -0.10435
  Beta virt. eigenvalues --   -0.01838  -0.00040   0.00317   0.00583   0.01023
  Beta virt. eigenvalues --    0.02190   0.02304   0.03125   0.03564   0.04081
  Beta virt. eigenvalues --    0.04169   0.04745   0.05566   0.05919   0.06089

 Mulliken charges and spin densities:
               1          2
     1  C   -0.046885  -0.000000
     2  C   -0.505654  -0.000000
     3  C   -0.548620  -0.000000
     4  C    0.158270  -0.000000
     5  C   -0.044350  -0.000000
     6  C   -0.043969   0.000000
     7  C   -0.439089   0.000000
     8  C   -0.277764   0.000000
     9  C    0.746387  -0.000000
    10  C    0.215330   0.000000
    11  C   -0.203669  -0.000000
    12  C   -0.499154   0.000000
    13  C   -0.122087  -0.000000
    14  C   -0.180334   0.000000
    15  O   -0.643227   0.000000
    16  O   -0.644375   0.000000
    17  N   -0.463665  -0.000000
    18  N   -0.266589   0.000000
    19  C   -0.389673  -0.000000
    20  H    0.145538  -0.000000
    21  H    0.156290  -0.000000
    22  H    0.155917   0.000000
    23  H    0.145760  -0.000000
    24  H    0.140290   0.000000
    25  H    0.146662   0.000000
    26  H    0.299102   0.000000
    27  H    0.241193  -0.000000
    28  H    0.360959   0.000000
    29  H    0.136593  -0.000000
    30  H    0.130665   0.000000
    31  H    0.140149  -0.000000
 Sum of Mulliken charges =  -2.00000   0.00000

 Dipole moment (field-independent basis, Debye):
    X=             10.8082    Y=            -27.2627    Z=             23.1544  Tot=             37.3657
 Quadrupole moment (field-independent basis, Debye-Ang):
   XX=           -141.9026   YY=           -233.5077   ZZ=           -207.2336
   XY=             33.6228   XZ=            -33.5265   YZ=             78.4630

  Exact polarizability: 211.186 -19.280 494.581  80.292  87.574 513.615
 Approx polarizability: 233.608 -30.083 562.490  89.545  80.246 565.249

                      1                      2                      3
                      A                      A                      A
 Frequencies --     44.7829                66.4083                92.7962
 Red. masses --      5.1324                 5.6185                 4.0533
 Frc consts  --      0.0061                 0.0146                 0.0206
 IR Inten    --     11.6076                 7.0733                13.9487

                      4                      5                      6
                      A                      A                      A
 Frequencies --    120.0936               141.1311               173.5384
 Red. masses --      3.4810                 4.4854                 5.7228
 Frc consts  --      0.0296                 0.0526                 0.1015
 IR Inten    --     11.1280                 2.1640                 2.6023

                      7                      8                      9
                      A                      A                      A
 Frequencies --    189.0669               223.4877               252.8722
 Red. masses --      3.8870                 1.2555                 3.2863
 Frc consts  --      0.0819                 0.0369                 0.1238
 IR Inten    --     20.5953                 1.0919                20.1322

                     10                     11                     12
                      A                      A                      A
 Frequencies --    265.7222               326.3896               343.2238
 Red. masses --      4.7895                 4.9386                 3.9917
 Frc consts  --      0.1992                 0.3100                 0.2771
 IR Inten    --      1.8452                10.3408                25.9256

                     13                     14                     15
                      A                      A                      A
 Frequencies --    346.8334               390.9951               391.9739
 Red. masses --      3.8351                10.4088                 7.9827
 Frc consts  --      0.2718                 0.9376                 0.7226
 IR Inten    --     47.6362                 1.6439                 0.3786

                     16                     17                     18
                      A                      A                      A
 Frequencies --    409.2925               429.6951               436.0222
 Red. masses --      4.2699                 6.3680                 1.6555
 Frc consts  --      0.4214                 0.6927                 0.1854
 IR Inten    --     34.0156                21.8535               180.8568

                     19                     20                     21
                      A                      A                      A
 Frequencies --    445.2303               469.4308               496.4160
 Red. masses --      3.0490                 5.1012                 4.3548
 Frc consts  --      0.3561                 0.6623                 0.6323
 IR Inten    --     25.5298                19.8886                 3.0994

                     22                     23                     24
                      A                      A                      A
 Frequencies --    509.8892               542.8346               601.4785
 Red. masses --      7.4273                 5.7392                 3.2039
 Frc consts  --      1.1377                 0.9964                 0.6829
 IR Inten    --      2.6306                41.9286                81.0617

                     25                     26                     27
                      A                      A                      A
 Frequencies --    609.8260               629.8389               655.8463
 Red. masses --      4.5562                 4.2871                 6.0603
 Frc consts  --      0.9983                 1.0020                 1.5358
 IR Inten    --     37.1926                 0.9037                 7.1597

                     28                     29                     30
                      A                      A                      A
 Frequencies --    704.3433               715.0601               734.5822
 Red. masses --      3.6117                 2.5704                 4.1416
 Frc consts  --      1.0557                 0.7744                 1.3167
 IR Inten    --    100.5832                19.5979               268.5101

                     31                     32                     33
                      A                      A                      A
 Frequencies --    739.1243               769.9705               780.8175
 Red. masses --      4.6344                 1.6693                 2.0269
 Frc consts  --      1.4917                 0.5831                 0.7281
 IR Inten    --      0.8919               140.0595                10.1359

                     34                     35                     36
                      A                      A                      A
 Frequencies --    799.4132               817.9327               830.9742
 Red. masses --      4.3323                 1.7264                 1.4192
 Frc consts  --      1.6312                 0.6805                 0.5774
 IR Inten    --      4.3606                75.3373               125.6649

                     37                     38                     39
                      A                      A                      A
 Frequencies --    848.4332               853.5690               862.1909
 Red. masses --      2.2837                 1.6908                 2.0996
 Frc consts  --      0.9685                 0.7258                 0.9196
 IR Inten    --    270.2111                 2.2232               196.1911

                     40                     41                     42
                      A                      A                      A
 Frequencies --    893.6691               943.6445               976.8699
 Red. masses --      3.1271                 5.6703                 1.3299
 Frc consts  --      1.4714                 2.9749                 0.7477
 IR Inten    --     87.2791                98.8846                 2.9403

                     43                     44                     45
                      A                      A                      A
 Frequencies --    985.0459              1015.3105              1038.9833
 Red. masses --      1.2596                 2.5048                 2.5725
 Frc consts  --      0.7201                 1.5213                 1.6362
 IR Inten    --      1.2738               112.3660                37.3948

                     46                     47                     48
                      A                      A                      A
 Frequencies --   1083.5238              1093.8723              1125.9915
 Red. masses --      2.4422                 2.7137                 1.5632
 Frc consts  --      1.6893                 1.9132                 1.1677
 IR Inten    --    370.9732               351.5921               382.0001

                     49                     50                     51
                      A                      A                      A
 Frequencies --   1138.5766              1150.4820              1161.4010
 Red. masses --      1.3456                 2.6404                 1.5221
 Frc consts  --      1.0278                 2.0591                 1.2096
 IR Inten    --     57.5874                35.2834               437.0625

                     52                     53                     54
                      A                      A                      A
 Frequencies --   1179.6864              1190.4313              1217.3554
 Red. masses --      1.4694                 1.5259                 2.0468
 Frc consts  --      1.2049                 1.2740                 1.7871
 IR Inten    --     65.9540               227.3291               211.4489

                     55                     56                     57
                      A                      A                      A
 Frequencies --   1245.4460              1249.6173              1264.8918
 Red. masses --      3.7164                 2.7796                 3.3404
 Frc consts  --      3.3964                 2.5573                 3.1489
 IR Inten    --     33.3317                97.1652               273.4320

                     58                     59                     60
                      A                      A                      A
 Frequencies --   1273.9535              1338.2488              1344.4908
 Red. masses --      6.1598                 2.5326                 7.9942
 Frc consts  --      5.8901                 2.6723                 8.5142
 IR Inten    --     24.0600              1246.5847               337.4141

                     61                     62                     63
                      A                      A                      A
 Frequencies --   1366.3453              1416.2274              1426.4511
 Red. masses --      2.8514                 2.5102                 6.4504
 Frc consts  --      3.1363                 2.9664                 7.7330
 IR Inten    --   1015.5708                75.1777                71.2451

                     64                     65                     66
                      A                      A                      A
 Frequencies --   1444.8618              1461.2667              1469.9361
 Red. masses --      1.6259                 1.7838                 1.0522
 Frc consts  --      1.9998                 2.2441                 1.3395
 IR Inten    --    245.2956               154.6052                 7.6123

                     67                     68                     69
                      A                      A                      A
 Frequencies --   1474.5724              1493.7861              1508.4781
 Red. masses --      2.3985                 5.2003                 1.0616
 Frc consts  --      3.0727                 6.8368                 1.4233
 IR Inten    --     33.3710                29.2229                27.9851

                     70                     71                     72
                      A                      A                      A
 Frequencies --   1540.7235              1556.1251              1587.6520
 Red. masses --      3.7869                 1.9137                 1.3085
 Frc consts  --      5.2965                 2.7304                 1.9433
 IR Inten    --     57.6933               463.8357               256.2396

                     73                     74                     75
                      A                      A                      A
 Frequencies --   1604.1203              1606.4740              1620.2343
 Red. masses --      5.0651                 5.2629                 3.3447
 Frc consts  --      7.6792                 8.0025                 5.1732
 IR Inten    --     14.6343                11.0853               194.8374

                     76                     77                     78
                      A                      A                      A
 Frequencies --   2922.2887              2997.9961              3084.6851
 Red. masses --      1.0606                 1.0795                 1.0935
 Frc consts  --      5.3364                 5.7166                 6.1305
 IR Inten    --    319.3389               156.0371                58.3924

                     79                     80                     81
                      A                      A                      A
 Frequencies --   3128.5262              3138.7344              3155.0095
 Red. masses --      1.0874                 1.0850                 1.0903
 Frc consts  --      6.2706                 6.2977                 6.3944
 IR Inten    --     97.5880                28.3883                49.3156

                     82                     83                     84
                      A                      A                      A
 Frequencies --   3174.8186              3178.6953              3184.4623
 Red. masses --      1.0898                 1.0913                 1.0914
 Frc consts  --      6.4718                 6.4968                 6.5210
 IR Inten    --     66.3301                42.5746                63.2628

                     85                     86                     87
                      A                      A                      A
 Frequencies --   3244.2202              3265.2206              3573.8371
 Red. masses --      1.0823                 1.0674                 1.0815
 Frc consts  --      6.7112                 6.7049                 8.1384
 IR Inten    --    500.4679               524.8260                23.5110

 - Thermochemistry -
 -------------------
 Temperature   298.150 Kelvin.  Pressure   1.00000 Atm.
 Atom     1 has atomic number  6 and mass  12.00000

 Molecular mass:   252.08988 amu.
 Principal axes and moments of inertia in atomic units:
                           1         2         3
     Eigenvalues --  3097.275105400.377598462.38950
           X            0.16533  -0.24275   0.95590
           Y            0.48135   0.86581   0.13662
           Z            0.86079  -0.43754  -0.25999
 This molecule is an asymmetric top.
 Rotational symmetry number  1.
 Warning -- assumption of classical behavior for rotation
           may cause significant error
 Rotational temperatures (Kelvin)      0.02796     0.01604     0.01024
 Rotational constants (GHZ):           0.58269     0.33419     0.21327
 Zero-point vibrational energy     619658.2 (Joules/Mol)
                                  148.10187 (Kcal/Mol)
 Warning -- explicit consideration of  25 degrees of freedom as
           vibrations may cause significant error
 Vibrational temperatures:     64.43    95.55   133.51   172.79   203.06
          (Kelvin)            249.68   272.03   321.55   363.83   382.31
                              469.60   493.82   499.02   562.55   563.96
                              588.88   618.24   627.34   640.59   675.41
                              714.23   733.62   781.02   865.39   877.40
                              906.20   943.62  1013.39  1028.81  1056.90
                             1063.44  1107.82  1123.42  1150.18  1176.82
                             1195.59  1220.71  1228.10  1240.50  1285.79
                             1357.69  1405.50  1417.26  1460.81  1494.87
                             1558.95  1573.84  1620.05  1638.16  1655.29
                             1671.00  1697.31  1712.77  1751.50  1791.92
                             1797.92  1819.90  1832.93  1925.44  1934.42
                             1965.87  2037.64  2052.34  2078.83  2102.44
                             2114.91  2121.58  2149.23  2170.36  2216.76
                             2238.92  2284.28  2307.97  2311.36  2331.16
                             4204.52  4313.45  4438.17  4501.25  4515.94
                             4539.35  4567.86  4573.43  4581.73  4667.71
                             4697.92  5141.95

 Zero-point correction=                           0.236015 (Hartree/Particle)
 Thermal correction to Energy=                    0.251193
 Thermal correction to Enthalpy=                  0.252138
 Thermal correction to Gibbs Free Energy=         0.194214
 Sum of electronic and zero-point Energies=           -839.021569
 Sum of electronic and thermal Energies=              -839.006391
 Sum of electronic and thermal Enthalpies=            -839.005447
 Sum of electronic and thermal Free Energies=         -839.063371

                     E (Thermal)             CV                S
                      KCal/Mol        Cal/Mol-Kelvin    Cal/Mol-Kelvin
 Total                  157.626             61.814            121.910
 Electronic               0.000              0.000              0.000
 Translational            0.889              2.981             42.474
 Rotational               0.889              2.981             33.315
 Vibrational            155.849             55.852             46.122
 Vibration     1          0.595              1.979              5.035
 Vibration     2          0.598              1.970              4.257
 Vibration     3          0.602              1.954              3.600
 Vibration     4          0.609              1.933              3.099
 Vibration     5          0.615              1.912              2.788
 Vibration     6          0.627              1.875              2.397
 Vibration     7          0.633              1.855              2.237
 Vibration     8          0.649              1.805              1.931
 Vibration     9          0.664              1.758              1.710
 Vibration    10          0.672              1.736              1.624
 Vibration    11          0.710              1.623              1.278
 Vibration    12          0.722              1.589              1.197
 Vibration    13          0.725              1.582              1.181
 Vibration    14          0.759              1.489              0.996
 Vibration    15          0.759              1.487              0.993
 Vibration    16          0.774              1.450              0.929
 Vibration    17          0.791              1.406              0.860
 Vibration    18          0.796              1.392              0.839
 Vibration    19          0.805              1.371              0.810
 Vibration    20          0.827              1.318              0.739
 Vibration    21          0.852              1.258              0.667
 Vibration    22          0.865              1.228              0.634
 Vibration    23          0.898              1.155              0.559
 Vibration    24          0.960              1.029              0.447
 Vibration    25          0.969              1.011              0.433

                           ! Non-Optimized Parameters !
 Normal termination of Gaussian 16 at Sat Feb 10 20:30:27 2024.
