 Gaussian 16, Revision A.03,
 Gaussian 16:  ES64L-G16RevA.03 25-Dec-2016

 --------------------------------------
 #P UB3LYP/6-311++G(d,p) nosym opt freq
 --------------------------------------

 -------
 Reduced
 -------
 Symbolic Z-matrix:
 Charge = -2 Multiplicity = 1

 SCF Done:  E(UB3LYP) =  -3108.76048729     A.U. after   29 cycles
 SCF Done:  E(UB3LYP) =  -3108.78231589     A.U. after   25 cycles
 SCF Done:  E(UB3LYP) =  -3108.78493239     A.U. after   18 cycles
 SCF Done:  E(UB3LYP) =  -3108.78522294     A.U. after   16 cycles
 SCF Done:  E(UB3LYP) =  -3108.78527773     A.U. after   15 cycles
 SCF Done:  E(UB3LYP) =  -3108.78528489     A.U. after   14 cycles
 Optimization completed.
    -- Stationary point found.
 Normal termination of Gaussian 16 at Sat Jan  6 02:03:27 2024.

 ----------------------------------------------------------------------
 #P Geom=AllCheck Guess=TCheck SCRF=Check GenChk UB3LYP/6-311++G(d,p) F
 req
 ----------------------------------------------------------------------

 Structure from the checkpoint file:  "321-an.chk"
 -------
 Reduced
 -------
 Charge = -2 Multiplicity = 1

                          Input orientation:
 ---------------------------------------------------------------------
 Center     Atomic      Atomic             Coordinates (Angstroms)
 Number     Number       Type             X           Y           Z
 ---------------------------------------------------------------------
      1         35           0        3.743031   -2.182072    0.616471
      2          6           0        2.223158   -0.938923    0.260464
      3          6           0        0.952170   -1.525234    0.318400
      4          6           0       -0.158542   -0.709689    0.078514
      5          6           0       -1.499680   -1.192952    0.109870
      6          6           0       -2.584499   -0.376452   -0.128836
      7          6           0       -2.374437    1.007753   -0.419915
      8          6           0       -1.086287    1.505046   -0.457271
      9          6           0        0.058843    0.701451   -0.218115
     10          6           0        1.380768    1.299686   -0.275830
     11          8           0        1.548877    2.528634   -0.535664
     12          6           0        2.577141    0.414940   -0.016222
     13          8           0        3.758309    0.867387   -0.050131
     14          1           0        0.833054   -2.579417    0.542390
     15          1           0       -1.655413   -2.249304    0.332296
     16          1           0       -3.594153   -0.783587   -0.095737
     17          1           0       -3.225078    1.660362   -0.609767
     18          1           0       -0.897263    2.552370   -0.675819
 ---------------------------------------------------------------------

 SCF Done:  E(UB3LYP) =  -3108.78528489     A.U. after    1 cycles

 Alpha  occ. eigenvalues -- -482.55656 -62.20926 -56.02904 -56.02612 -56.02592
 Alpha  occ. eigenvalues --  -18.76656 -18.75907  -9.92999  -9.92531  -9.92472
 Alpha  occ. eigenvalues --   -9.92101  -9.91972  -9.91237  -9.90725  -9.90488
 Alpha  occ. eigenvalues --   -9.89051  -9.88503  -8.41862  -6.24811  -6.23832
 Alpha  occ. eigenvalues --   -6.23769  -2.35937  -2.35667  -2.35620  -2.34840
 Alpha  occ. eigenvalues --   -2.34840  -0.69654  -0.66770  -0.59039  -0.54487
 Alpha  occ. eigenvalues --   -0.50403  -0.48748  -0.43620  -0.40630  -0.33867
 Alpha  occ. eigenvalues --   -0.32349  -0.29200  -0.23986  -0.22094  -0.20591
 Alpha  occ. eigenvalues --   -0.17064  -0.16571  -0.14458  -0.12961  -0.12612
 Alpha  occ. eigenvalues --   -0.10782  -0.09847  -0.08827  -0.07810  -0.06212
 Alpha  occ. eigenvalues --   -0.05773  -0.02335  -0.02301  -0.01953   0.01314
 Alpha  occ. eigenvalues --    0.05150   0.06000   0.07768   0.13701
 Alpha virt. eigenvalues --    0.16218   0.17809   0.19071   0.20048   0.21617
 Alpha virt. eigenvalues --    0.22678   0.22833   0.24221   0.24653   0.25627
 Alpha virt. eigenvalues --    0.26306   0.26507   0.27175   0.27832   0.28200

  Beta  occ. eigenvalues -- -482.55656 -62.20926 -56.02904 -56.02612 -56.02592
  Beta  occ. eigenvalues --  -18.76656 -18.75907  -9.92999  -9.92531  -9.92472
  Beta  occ. eigenvalues --   -9.92101  -9.91972  -9.91237  -9.90725  -9.90488
  Beta  occ. eigenvalues --   -9.89051  -9.88503  -8.41862  -6.24811  -6.23832
  Beta  occ. eigenvalues --   -6.23769  -2.35937  -2.35667  -2.35620  -2.34840
  Beta  occ. eigenvalues --   -2.34840  -0.69654  -0.66770  -0.59039  -0.54487
  Beta  occ. eigenvalues --   -0.50403  -0.48748  -0.43620  -0.40630  -0.33867
  Beta  occ. eigenvalues --   -0.32349  -0.29200  -0.23986  -0.22094  -0.20591
  Beta  occ. eigenvalues --   -0.17064  -0.16571  -0.14458  -0.12961  -0.12612
  Beta  occ. eigenvalues --   -0.10782  -0.09847  -0.08827  -0.07810  -0.06212
  Beta  occ. eigenvalues --   -0.05773  -0.02335  -0.02301  -0.01953   0.01314
  Beta  occ. eigenvalues --    0.05150   0.06000   0.07768   0.13701
  Beta virt. eigenvalues --    0.16218   0.17809   0.19071   0.20048   0.21617
  Beta virt. eigenvalues --    0.22678   0.22833   0.24221   0.24653   0.25627
  Beta virt. eigenvalues --    0.26306   0.26507   0.27175   0.27832   0.28200

 Mulliken charges and spin densities:
               1          2
     1  Br  -0.462263   0.000000
     2  C    1.059761  -0.000000
     3  C   -0.595134   0.000000
     4  C   -0.379653   0.000000
     5  C   -0.210631   0.000000
     6  C   -0.368231   0.000000
     7  C   -0.335708   0.000000
     8  C    0.104718  -0.000000
     9  C    0.979140  -0.000000
    10  C   -0.483266   0.000000
    11  O   -0.473261  -0.000000
    12  C   -0.770865   0.000000
    13  O   -0.454304  -0.000000
    14  H    0.110381  -0.000000
    15  H    0.041168   0.000000
    16  H    0.065254  -0.000000
    17  H    0.065330  -0.000000
    18  H    0.107564  -0.000000
 Sum of Mulliken charges =  -2.00000   0.00000

 Dipole moment (field-independent basis, Debye):
    X=            -15.5919    Y=             -3.9411    Z=              0.6538  Tot=             16.0956
 Quadrupole moment (field-independent basis, Debye-Ang):
   XX=           -178.0274   YY=           -130.5655   ZZ=           -102.1362
   XY=             -2.4756   XZ=             -2.6853   YZ=              6.7165

  Exact polarizability: 309.582 -34.244 219.690  18.244 -24.767 121.542
 Approx polarizability: 516.983 -25.818 386.432  25.174 -50.081 176.378

                      1                      2                      3
                      A                      A                      A
 Frequencies --     75.8789                81.1525               139.0274
 Red. masses --      5.8077                11.2492                 5.3025
 Frc consts  --      0.0197                 0.0436                 0.0604
 IR Inten    --      0.8206                 0.1787                 0.1094

                      4                      5                      6
                      A                      A                      A
 Frequencies --    151.8674               207.8753               249.5623
 Red. masses --     10.7712                19.5722                 6.2286
 Frc consts  --      0.1464                 0.4983                 0.2286
 IR Inten    --      5.2074                 2.5061                 0.9259

                      7                      8                      9
                      A                      A                      A
 Frequencies --    289.5074               299.5640               366.9581
 Red. masses --      6.3781                 7.7859                15.5801
 Frc consts  --      0.3150                 0.4117                 1.2361
 IR Inten    --      0.0303                 5.8345                 0.6874

                     10                     11                     12
                      A                      A                      A
 Frequencies --    413.3254               421.8345               495.2961
 Red. masses --      8.8755                 3.2669                 9.0567
 Frc consts  --      0.8934                 0.3425                 1.3090
 IR Inten    --     20.7803                 8.0786                 3.0301

                     13                     14                     15
                      A                      A                      A
 Frequencies --    520.3167               552.9372               579.5116
 Red. masses --      4.3882                 5.5626                 7.2903
 Frc consts  --      0.7000                 1.0020                 1.4425
 IR Inten    --      8.8691                23.5353                22.4294

                     16                     17                     18
                      A                      A                      A
 Frequencies --    614.6824               641.5601               647.6061
 Red. masses --      1.3428                 6.3983                 3.8488
 Frc consts  --      0.2989                 1.5516                 0.9510
 IR Inten    --      1.9047                 8.4393                 3.5674

                     19                     20                     21
                      A                      A                      A
 Frequencies --    686.9547               710.4171               727.4118
 Red. masses --      1.4169                 7.3881                 1.4046
 Frc consts  --      0.3939                 2.1969                 0.4379
 IR Inten    --     79.9712                15.3518                 0.5864

                     22                     23                     24
                      A                      A                      A
 Frequencies --    737.1105               753.8588               869.3416
 Red. masses --      7.8530                 6.0744                 1.2349
 Frc consts  --      2.5139                 2.0339                 0.5499
 IR Inten    --    168.7817                 3.9818                 1.9265

                     25                     26                     27
                      A                      A                      A
 Frequencies --    885.6313               943.7561               967.5835
 Red. masses --      4.9337                 1.2636                 7.2882
 Frc consts  --      2.2800                 0.6631                 4.0202
 IR Inten    --      5.3602                 2.0758                21.2471

                     28                     29                     30
                      A                      A                      A
 Frequencies --   1003.2915              1101.0244              1108.1983
 Red. masses --      2.1789                 3.2365                 1.7313
 Frc consts  --      1.2922                 2.3116                 1.2527
 IR Inten    --     55.4041                27.5096                49.8731

                     31                     32                     33
                      A                      A                      A
 Frequencies --   1145.7047              1199.3110              1246.4086
 Red. masses --      1.1535                 2.0065                 2.0203
 Frc consts  --      0.8921                 1.7004                 1.8492
 IR Inten    --      8.6678               106.4520                 6.8855

                     34                     35                     36
                      A                      A                      A
 Frequencies --   1268.4020              1324.2692              1377.5101
 Red. masses --      2.9164                 3.2423                 8.6510
 Frc consts  --      2.7644                 3.3501                 9.6717
 IR Inten    --     21.3113               249.8794               209.2536

                     37                     38                     39
                      A                      A                      A
 Frequencies --   1408.5334              1453.2466              1485.5111
 Red. masses --      2.4502                 3.4051                 4.3761
 Frc consts  --      2.8640                 4.2370                 5.6897
 IR Inten    --    108.2399               155.1522               132.5020

                     40                     41                     42
                      A                      A                      A
 Frequencies --   1509.0752              1521.7594              1546.9761
 Red. masses --      5.8591                 5.3060                10.5484
 Frc consts  --      7.8614                 7.2396                14.8731
 IR Inten    --    337.5894                71.7599               698.5030

                     43                     44                     45
                      A                      A                      A
 Frequencies --   1584.4787              3075.9231              3093.6628
 Red. masses --      5.7077                 1.0812                 1.0869
 Frc consts  --      8.4427                 6.0272                 6.1290
 IR Inten    --     19.2984                 2.8669                96.6449

                     46                     47                     48
                      A                      A                      A
 Frequencies --   3115.5590              3149.7701              3155.0421
 Red. masses --      1.0934                 1.0907                 1.0888
 Frc consts  --      6.2533                 6.3755                 6.3860
 IR Inten    --    143.5992                46.6541                22.7848

 - Thermochemistry -
 -------------------
 Temperature   298.150 Kelvin.  Pressure   1.00000 Atm.
 Atom     1 has atomic number 35 and mass  78.91834

 Molecular mass:   235.94729 amu.
 Principal axes and moments of inertia in atomic units:
                           1         2         3
     Eigenvalues --  1498.041164997.201006495.24214
           X            0.88947   0.45379  -0.05397
           Y           -0.43368   0.87543   0.21342
           Z            0.14410  -0.16643   0.97547
 This molecule is an asymmetric top.
 Rotational symmetry number  1.
 Warning -- assumption of classical behavior for rotation
           may cause significant error
 Rotational temperatures (Kelvin)      0.05782     0.01733     0.01333
 Rotational constants (GHZ):           1.20473     0.36115     0.27786
 Zero-point vibrational energy     304474.6 (Joules/Mol)
                                   72.77119 (Kcal/Mol)
 Warning -- explicit consideration of  16 degrees of freedom as
           vibrations may cause significant error
 Vibrational temperatures:    109.17   116.76   200.03   218.50   299.09
          (Kelvin)            359.06   416.54   431.01   527.97   594.68
                              606.93   712.62   748.62   795.55   833.79
                              884.39   923.06   931.76   988.37  1022.13
                             1046.58  1060.54  1084.63  1250.79  1274.23
                             1357.85  1392.14  1443.51  1584.13  1594.45
                             1648.41  1725.54  1793.30  1824.95  1905.33
                             1981.93  2026.57  2090.90  2137.32  2171.22
                             2189.47  2225.75  2279.71  4425.57  4451.09
                             4482.59  4531.82  4539.40

 Zero-point correction=                           0.115968 (Hartree/Particle)
 Thermal correction to Energy=                    0.126625
 Thermal correction to Enthalpy=                  0.127570
 Thermal correction to Gibbs Free Energy=         0.078460
 Sum of electronic and zero-point Energies=          -3108.669317
 Sum of electronic and thermal Energies=             -3108.658659
 Sum of electronic and thermal Enthalpies=           -3108.657715
 Sum of electronic and thermal Free Energies=        -3108.706825

                     E (Thermal)             CV                S
                      KCal/Mol        Cal/Mol-Kelvin    Cal/Mol-Kelvin
 Total                   79.459             40.969            103.361
 Electronic               0.000              0.000              0.000
 Translational            0.889              2.981             42.277
 Rotational               0.889              2.981             32.253
 Vibrational             77.681             35.008             28.831
 Vibration     1          0.599              1.965              3.995
 Vibration     2          0.600              1.962              3.863
 Vibration     3          0.615              1.914              2.817
 Vibration     4          0.619              1.901              2.649
 Vibration     5          0.641              1.829              2.062
 Vibration     6          0.662              1.763              1.734
 Vibration     7          0.686              1.693              1.477
 Vibration     8          0.692              1.675              1.419
 Vibration     9          0.740              1.540              1.092
 Vibration    10          0.777              1.441              0.915
 Vibration    11          0.784              1.423              0.886
 Vibration    12          0.851              1.260              0.670
 Vibration    13          0.875              1.205              0.609
 Vibration    14          0.908              1.133              0.538
 Vibration    15          0.936              1.076              0.486
 Vibration    16          0.974              1.001              0.425

                           ! Non-Optimized Parameters !
 Normal termination of Gaussian 16 at Sat Jan  6 02:25:47 2024.
