 Gaussian 16, Revision A.03,
 Gaussian 16:  ES64L-G16RevA.03 25-Dec-2016

 --------------------------------------
 #P UB3LYP/6-311++G(d,p) nosym opt freq
 --------------------------------------

 -------
 Radical
 -------
 Symbolic Z-matrix:
 Charge = -1 Multiplicity = 2

 SCF Done:  E(UB3LYP) =  -692.592390978     A.U. after   23 cycles
 SCF Done:  E(UB3LYP) =  -692.621337514     A.U. after   18 cycles
 SCF Done:  E(UB3LYP) =  -692.625856653     A.U. after   19 cycles
 SCF Done:  E(UB3LYP) =  -692.627665103     A.U. after   16 cycles
 SCF Done:  E(UB3LYP) =  -692.627899032     A.U. after   14 cycles
 SCF Done:  E(UB3LYP) =  -692.627931948     A.U. after   14 cycles
 SCF Done:  E(UB3LYP) =  -692.627949394     A.U. after   13 cycles
 SCF Done:  E(UB3LYP) =  -692.627952186     A.U. after   12 cycles
 SCF Done:  E(UB3LYP) =  -692.627953041     A.U. after   11 cycles
 SCF Done:  E(UB3LYP) =  -692.627953315     A.U. after   10 cycles
 SCF Done:  E(UB3LYP) =  -692.627953379     A.U. after   10 cycles
 Optimization completed.
    -- Stationary point found.
 Normal termination of Gaussian 16 at Tue Dec 26 21:27:30 2023.

 ----------------------------------------------------------------------
 #P Geom=AllCheck Guess=TCheck SCRF=Check GenChk UB3LYP/6-311++G(d,p) F
 req
 ----------------------------------------------------------------------

 Structure from the checkpoint file:  "239-rad.chk"
 -------
 Radical
 -------
 Charge = -1 Multiplicity = 2

                          Input orientation:
 ---------------------------------------------------------------------
 Center     Atomic      Atomic             Coordinates (Angstroms)
 Number     Number       Type             X           Y           Z
 ---------------------------------------------------------------------
      1          6           0       -2.893659    1.308591   -0.745260
      2          6           0       -2.173208    0.082027   -0.152718
      3          6           0       -2.723009   -0.137342    1.278129
      4          6           0       -2.529716   -1.140754   -1.033270
      5          6           0       -0.642808    0.261382   -0.102659
      6          6           0       -0.035964    1.421112   -0.555224
      7          6           0        1.377654    1.680153   -0.549520
      8          8           0        1.866220    2.761407   -0.977974
      9          6           0        2.221210    0.604021   -0.011826
     10          6           0        3.620510    0.755547    0.039687
     11          6           0        4.426538   -0.249395    0.543441
     12          6           0        3.844640   -1.443806    1.013108
     13          6           0        2.471844   -1.608750    0.969604
     14          6           0        1.632298   -0.596684    0.459955
     15          6           0        0.173539   -0.817379    0.433557
     16          8           0       -0.306504   -1.904457    0.864961
     17          1           0       -2.580714    1.508898   -1.774118
     18          1           0       -3.973360    1.123300   -0.754255
     19          1           0       -2.714783    2.212040   -0.155025
     20          1           0       -2.263115   -1.014394    1.732281
     21          1           0       -3.811190   -0.277510    1.249041
     22          1           0       -2.511090    0.734619    1.905795
     23          1           0       -3.617760   -1.281438   -1.064548
     24          1           0       -2.065195   -2.043180   -0.637227
     25          1           0       -2.179011   -0.987011   -2.059208
     26          1           0       -0.627876    2.234509   -0.957610
     27          1           0        4.035840    1.686614   -0.329596
     28          1           0        5.504562   -0.120149    0.577760
     29          1           0        4.475222   -2.234737    1.409340
     30          1           0        1.998887   -2.517235    1.324286
 ---------------------------------------------------------------------

 SCF Done:  E(UB3LYP) =  -692.627953379     A.U. after    1 cycles

 Alpha  occ. eigenvalues --  -18.93989 -18.93880 -10.08944 -10.08556 -10.07160
 Alpha  occ. eigenvalues --  -10.05518 -10.05469 -10.04957 -10.04747 -10.04680
 Alpha  occ. eigenvalues --  -10.04531 -10.04459 -10.04396 -10.03815 -10.03813
 Alpha  occ. eigenvalues --  -10.02971  -0.86529  -0.86048  -0.73292  -0.71028
 Alpha  occ. eigenvalues --   -0.66308  -0.62552  -0.61032  -0.57491  -0.56738
 Alpha  occ. eigenvalues --   -0.54286  -0.49751  -0.48774  -0.44057  -0.42023
 Alpha  occ. eigenvalues --   -0.38137  -0.37155  -0.34781  -0.33730  -0.32519
 Alpha  occ. eigenvalues --   -0.32118  -0.30417  -0.29947  -0.29187  -0.29077
 Alpha  occ. eigenvalues --   -0.27258  -0.27047  -0.26312  -0.25771  -0.25334
 Alpha  occ. eigenvalues --   -0.23519  -0.23512  -0.22599  -0.21495  -0.21466
 Alpha  occ. eigenvalues --   -0.21406  -0.20536  -0.14077  -0.13122  -0.12344
 Alpha  occ. eigenvalues --   -0.10641  -0.09969  -0.01959
 Alpha virt. eigenvalues --    0.08045   0.08457   0.09040   0.10244   0.10405
 Alpha virt. eigenvalues --    0.10502   0.10864   0.11038   0.12498   0.13081
 Alpha virt. eigenvalues --    0.13282   0.13305   0.14349   0.15178   0.16008

  Beta  occ. eigenvalues --  -18.93347 -18.93198 -10.08790 -10.08452 -10.07169
  Beta  occ. eigenvalues --  -10.05482 -10.05433 -10.04957 -10.04758 -10.04682
  Beta  occ. eigenvalues --  -10.04473 -10.04326 -10.04319 -10.03807 -10.03805
  Beta  occ. eigenvalues --  -10.02809  -0.85416  -0.84866  -0.73101  -0.70871
  Beta  occ. eigenvalues --   -0.65895  -0.62404  -0.60811  -0.57443  -0.56713
  Beta  occ. eigenvalues --   -0.53416  -0.49586  -0.48510  -0.43876  -0.41845
  Beta  occ. eigenvalues --   -0.37939  -0.36956  -0.34588  -0.33579  -0.32461
  Beta  occ. eigenvalues --   -0.32075  -0.30315  -0.29879  -0.28897  -0.28443
  Beta  occ. eigenvalues --   -0.26728  -0.26429  -0.26162  -0.25418  -0.25162
  Beta  occ. eigenvalues --   -0.23420  -0.22165  -0.21357  -0.21349  -0.21292
  Beta  occ. eigenvalues --   -0.20578  -0.20372  -0.12513  -0.11791  -0.10983
  Beta  occ. eigenvalues --   -0.10034  -0.09366
  Beta virt. eigenvalues --    0.04757   0.08044   0.08451   0.09640   0.10242
  Beta virt. eigenvalues --    0.10499   0.10551   0.11042   0.11787   0.12494
  Beta virt. eigenvalues --    0.13188   0.13282   0.13308   0.14371   0.15175

 Mulliken charges and spin densities:
               1          2
     1  C   -0.519643  -0.001625
     2  C    0.779573  -0.023401
     3  C   -0.693018   0.014415
     4  C   -0.692774   0.014402
     5  C    0.899151   0.059672
     6  C   -0.274103   0.114139
     7  C   -0.882285   0.058508
     8  O   -0.393073   0.248479
     9  C    0.739733   0.046488
    10  C   -0.177677   0.011444
    11  C   -0.375478   0.030952
    12  C   -0.358901   0.029000
    13  C    0.123848   0.038683
    14  C    0.438731   0.047385
    15  C   -1.227729   0.091717
    16  O   -0.349935   0.241488
    17  H    0.123296  -0.000796
    18  H    0.143679  -0.000013
    19  H    0.123245  -0.000800
    20  H    0.202541  -0.002460
    21  H    0.113639   0.001559
    22  H    0.113189   0.000369
    23  H    0.113695   0.001556
    24  H    0.202499  -0.002461
    25  H    0.113208   0.000374
    26  H    0.160751  -0.010358
    27  H    0.150488  -0.002093
    28  H    0.123020  -0.002518
    29  H    0.122368  -0.002204
    30  H    0.157963  -0.001900
 Sum of Mulliken charges =  -1.00000   1.00000

 Dipole moment (field-independent basis, Debye):
    X=             -4.1208    Y=             -1.8386    Z=              0.1444  Tot=              4.5147
 Quadrupole moment (field-independent basis, Debye-Ang):
   XX=           -120.3151   YY=           -126.4916   ZZ=           -107.3733
   XY=            -11.0069   XZ=              3.1326   YZ=              8.7959

  Exact polarizability: 266.897   1.690 197.522  11.777 -34.622 133.433
 Approx polarizability: 369.071  22.827 356.152   6.006 -74.969 212.048

                      1                      2                      3
                      A                      A                      A
 Frequencies --     49.0933                69.8999               136.1353
 Red. masses --      4.4298                 3.4915                 4.5760
 Frc consts  --      0.0063                 0.0101                 0.0500
 IR Inten    --      4.3523                 0.3487                 0.0178

                      4                      5                      6
                      A                      A                      A
 Frequencies --    160.0051               179.5436               201.6754
 Red. masses --      4.9945                 3.8217                 4.4789
 Frc consts  --      0.0753                 0.0726                 0.1073
 IR Inten    --      5.7214                 2.3970                 0.0740

                      7                      8                      9
                      A                      A                      A
 Frequencies --    233.1098               264.8804               269.7752
 Red. masses --      1.1064                 1.2386                 2.9612
 Frc consts  --      0.0354                 0.0512                 0.1270
 IR Inten    --      0.2013                 0.2939                 2.7069

                     10                     11                     12
                      A                      A                      A
 Frequencies --    283.3007               294.6401               322.6479
 Red. masses --      4.3473                 3.2008                 2.7857
 Frc consts  --      0.2056                 0.1637                 0.1709
 IR Inten    --      0.6063                 0.1350                 1.4957

                     13                     14                     15
                      A                      A                      A
 Frequencies --    330.2730               379.4009               381.5954
 Red. masses --      1.0449                10.6268                 2.4820
 Frc consts  --      0.0672                 0.9013                 0.2129
 IR Inten    --      0.0573                12.5528                 0.2193

                     16                     17                     18
                      A                      A                      A
 Frequencies --    418.0927               426.9603               456.5413
 Red. masses --      2.6726                 3.3219                 4.4082
 Frc consts  --      0.2752                 0.3568                 0.5413
 IR Inten    --      1.4008                 1.1835                 0.1997

                     19                     20                     21
                      A                      A                      A
 Frequencies --    472.9108               480.1043               538.7331
 Red. masses --      5.0074                 7.2984                 4.0064
 Frc consts  --      0.6598                 0.9912                 0.6851
 IR Inten    --      0.9523                 1.4089                 1.5838

                     22                     23                     24
                      A                      A                      A
 Frequencies --    542.7721               627.0163               658.1804
 Red. masses --      3.7605                 5.3807                 3.2966
 Frc consts  --      0.6527                 1.2464                 0.8414
 IR Inten    --      0.4202                 5.2251                 5.6153

                     25                     26                     27
                      A                      A                      A
 Frequencies --    678.3333               718.6244               727.9030
 Red. masses --      5.8366                 2.9548                 6.1052
 Frc consts  --      1.5823                 0.8990                 1.9059
 IR Inten    --      0.1044                36.5124                 6.3073

                     28                     29                     30
                      A                      A                      A
 Frequencies --    773.5318               794.4548               800.0789
 Red. masses --      1.7001                 3.8026                 4.1578
 Frc consts  --      0.5993                 1.4141                 1.5681
 IR Inten    --     37.2018                 6.5173                 0.1435

                     31                     32                     33
                      A                      A                      A
 Frequencies --    832.4259               873.9742               880.3062
 Red. masses --      5.0309                 1.4831                 1.5666
 Frc consts  --      2.0539                 0.6675                 0.7153
 IR Inten    --      6.0511                 0.0369                13.3031

                     34                     35                     36
                      A                      A                      A
 Frequencies --    908.0696               924.2923               935.2765
 Red. masses --      3.2199                 1.7826                 1.7901
 Frc consts  --      1.5644                 0.8973                 0.9226
 IR Inten    --     27.9571                 0.2511                11.7626

                     37                     38                     39
                      A                      A                      A
 Frequencies --    957.6883               977.9574               983.8744
 Red. masses --      1.2037                 1.3352                 1.2836
 Frc consts  --      0.6504                 0.7524                 0.7321
 IR Inten    --      0.2434                 1.7491                 0.5054

                     40                     41                     42
                      A                      A                      A
 Frequencies --   1035.9131              1042.1607              1048.2216
 Red. masses --      2.2453                 1.4256                 1.3794
 Frc consts  --      1.4196                 0.9123                 0.8930
 IR Inten    --     21.9830                 3.3394                 0.0827

                     43                     44                     45
                      A                      A                      A
 Frequencies --   1098.6167              1110.3164              1146.8521
 Red. masses --      2.6015                 3.1136                 1.4809
 Frc consts  --      1.8499                 2.2616                 1.1476
 IR Inten    --      2.0030                 5.4322                18.6299

                     46                     47                     48
                      A                      A                      A
 Frequencies --   1158.7271              1214.3176              1216.0507
 Red. masses --      1.6878                 2.6720                 2.4172
 Frc consts  --      1.3352                 2.3214                 2.1060
 IR Inten    --     13.2055                 4.7771                 0.8557

                     49                     50                     51
                      A                      A                      A
 Frequencies --   1225.5865              1243.6899              1267.6720
 Red. masses --      2.6904                 1.9048                 2.3629
 Frc consts  --      2.3809                 1.7359                 2.2372
 IR Inten    --     28.2545                23.6648                37.9981

                     52                     53                     54
                      A                      A                      A
 Frequencies --   1304.3557              1356.8280              1373.7303
 Red. masses --      1.8809                10.0878                 1.2106
 Frc consts  --      1.8854                10.9420                 1.3460
 IR Inten    --      6.4174                 6.4962                11.7865

                     55                     56                     57
                      A                      A                      A
 Frequencies --   1377.4124              1389.9753              1409.1695
 Red. masses --      1.4539                 2.4938                 1.2581
 Frc consts  --      1.6252                 2.8387                 1.4720
 IR Inten    --     16.7031                34.1462                41.4376

                     58                     59                     60
                      A                      A                      A
 Frequencies --   1459.5666              1471.0520              1472.6160
 Red. masses --      3.0572                 1.0469                 2.6515
 Frc consts  --      3.8373                 1.3348                 3.3878
 IR Inten    --    155.0338                 0.2114                47.9135

                     61                     62                     63
                      A                      A                      A
 Frequencies --   1487.3254              1495.2423              1495.3586
 Red. masses --      1.4879                 1.0550                 1.2667
 Frc consts  --      1.9393                 1.3898                 1.6688
 IR Inten    --     10.8389                 1.3062                 9.6014

                     64                     65                     66
                      A                      A                      A
 Frequencies --   1500.3979              1510.9775              1523.2276
 Red. masses --      2.0919                 1.0516                 2.0528
 Frc consts  --      2.7746                 1.4145                 2.8062
 IR Inten    --     41.0730                 3.6728               230.2141

                     67                     68                     69
                      A                      A                      A
 Frequencies --   1533.0700              1551.7970              1617.6161
 Red. masses --      1.4293                 5.0232                 7.3095
 Frc consts  --      1.9793                 7.1269                11.2691
 IR Inten    --     97.4790                70.9159                 8.4298

                     70                     71                     72
                      A                      A                      A
 Frequencies --   1628.7066              2991.7261              2996.7400
 Red. masses --      6.1040                 1.0432                 1.0422
 Frc consts  --      9.5400                 5.5012                 5.5142
 IR Inten    --     13.2995                47.8508               108.9228

                     73                     74                     75
                      A                      A                      A
 Frequencies --   3011.6116              3051.8141              3054.1496
 Red. masses --      1.0363                 1.0961                 1.0962
 Frc consts  --      5.5379                 6.0147                 6.0245
 IR Inten    --    109.0613                34.0537                26.2254

                     76                     77                     78
                      A                      A                      A
 Frequencies --   3067.0914              3081.1948              3121.3447
 Red. masses --      1.0992                 1.1016                 1.0971
 Frc consts  --      6.0920                 6.1617                 6.2977
 IR Inten    --     97.6582                43.3326                 0.0897

                     79                     80                     81
                      A                      A                      A
 Frequencies --   3123.8638              3130.6161              3150.1731
 Red. masses --      1.0964                 1.0846                 1.0913
 Frc consts  --      6.3039                 6.2629                 6.3805
 IR Inten    --     11.8583                16.4125                53.9488

                     82                     83                     84
                      A                      A                      A
 Frequencies --   3178.5822              3179.5693              3183.7578
 Red. masses --      1.0896                 1.0890                 1.0921
 Frc consts  --      6.4863                 6.4868                 6.5223
 IR Inten    --     15.7253                18.1065                20.9804

 - Thermochemistry -
 -------------------
 Temperature   298.150 Kelvin.  Pressure   1.00000 Atm.
 Atom     1 has atomic number  6 and mass  12.00000

 Molecular mass:   214.09938 amu.
 Principal axes and moments of inertia in atomic units:
                           1         2         3
     Eigenvalues --  1819.078714609.663136028.94361
           X            0.99554   0.05515  -0.07652
           Y           -0.02032   0.91762   0.39695
           Z            0.09211  -0.39362   0.91465
 This molecule is an asymmetric top.
 Rotational symmetry number  1.
 Warning -- assumption of classical behavior for rotation
           may cause significant error
 Rotational temperatures (Kelvin)      0.04761     0.01879     0.01437
 Rotational constants (GHZ):           0.99212     0.39151     0.29935
 Zero-point vibrational energy     634217.4 (Joules/Mol)
                                  151.58159 (Kcal/Mol)
 Warning -- explicit consideration of  22 degrees of freedom as
           vibrations may cause significant error
 Vibrational temperatures:     70.63   100.57   195.87   230.21   258.32
          (Kelvin)            290.17   335.39   381.10   388.15   407.61
                              423.92   464.22   475.19   545.87   549.03
                              601.54   614.30   656.86   680.41   690.76
                              775.12   780.93   902.14   946.97   975.97
                             1033.94  1047.29  1112.94  1143.04  1151.14
                             1197.68  1257.45  1266.56  1306.51  1329.85
                             1345.65  1377.90  1407.06  1415.58  1490.45
                             1499.44  1508.16  1580.66  1597.50  1650.06
                             1667.15  1747.13  1749.63  1763.35  1789.39
                             1823.90  1876.68  1952.17  1976.49  1981.79
                             1999.86  2027.48  2099.99  2116.52  2118.77
                             2139.93  2151.32  2151.49  2158.74  2173.96
                             2191.58  2205.75  2232.69  2327.39  2343.35
                             4304.43  4311.64  4333.04  4390.88  4394.24
                             4412.86  4433.15  4490.92  4494.54  4504.26
                             4532.40  4573.27  4574.69  4580.72

 Zero-point correction=                           0.241561 (Hartree/Particle)
 Thermal correction to Energy=                    0.255595
 Thermal correction to Enthalpy=                  0.256539
 Thermal correction to Gibbs Free Energy=         0.201088
 Sum of electronic and zero-point Energies=           -692.386393
 Sum of electronic and thermal Energies=              -692.372359
 Sum of electronic and thermal Enthalpies=            -692.371414
 Sum of electronic and thermal Free Energies=         -692.426865

                     E (Thermal)             CV                S
                      KCal/Mol        Cal/Mol-Kelvin    Cal/Mol-Kelvin
 Total                  160.388             56.665            116.706
 Electronic               0.000              0.000              1.377
 Translational            0.889              2.981             41.987
 Rotational               0.889              2.981             32.292
 Vibrational            158.611             50.704             41.050
 Vibration     1          0.595              1.978              4.854
 Vibration     2          0.598              1.968              4.156
 Vibration     3          0.614              1.917              2.857
 Vibration     4          0.622              1.891              2.550
 Vibration     5          0.629              1.867              2.333
 Vibration     6          0.639              1.838              2.118
 Vibration     7          0.654              1.790              1.855
 Vibration     8          0.671              1.737              1.629
 Vibration     9          0.674              1.729              1.598
 Vibration    10          0.682              1.705              1.514
 Vibration    11          0.689              1.684              1.447
 Vibration    12          0.708              1.630              1.297
 Vibration    13          0.713              1.615              1.259
 Vibration    14          0.749              1.514              1.042
 Vibration    15          0.751              1.509              1.033
 Vibration    16          0.781              1.431              0.898
 Vibration    17          0.789              1.412              0.869
 Vibration    18          0.815              1.346              0.776
 Vibration    19          0.830              1.310              0.729
 Vibration    20          0.836              1.294              0.710
 Vibration    21          0.894              1.164              0.568
 Vibration    22          0.898              1.156              0.559

 Optimization completed.
    -- Stationary point found.
 Normal termination of Gaussian 16 at Tue Dec 26 22:42:37 2023.
