 Q-Chem 5.4, Q-Chem, Inc., Pleasanton, CA (2021)
 Q-Chem 5.4.0 for Intel X86 EM64T Linux

User input:
--------------------------------------------------------------
$molecule
0 1
C                  5.9364520000     -5.2256650000      1.1044700000
C                  6.8357590000     -5.0816330000      0.0532440000
C                  6.6254680000     -4.1035550000     -0.9212780000
C                  4.8198240000     -4.3900000000      1.1858480000
C                  4.6088380000     -3.4085990000      0.2080310000
C                  5.5156770000     -3.2685770000     -0.8454620000
C                  3.8703930000     -4.5627760000      2.3203710000
C                  2.6820700000     -3.6398460000      2.3639000000
C                  2.4787200000     -2.6938060000      1.4214200000
C                  3.4276450000     -2.5033010000      0.2685530000
O                  4.0406810000     -5.4065030000      3.1746070000
O                  3.2327790000     -1.6485370000     -0.5693020000
H                  6.0804330000     -5.9771750000      1.8705740000
H                  5.3335930000     -2.5037960000     -1.5900170000
Br                 1.5205200000     -3.9161260000      3.8276390000
Br                 1.0041210000     -1.5133560000      1.4340630000
H                  7.7014530000     -5.7309030000     -0.0083090000
H                  7.3279150000     -3.9935380000     -1.7393430000
$end

$rem
BASIS  =  6-311++G(d,p)
GUI  =  2
JOB_TYPE  =  SP
METHOD  =  B3LYP
SCF_CONVERGENCE  = 8
SOLVENT_METHOD = sm12
$end

$smx
solvent dimethylformamide
charges CM5
$end

--------------------------------------------------------------

             Standard Nuclear Orientation (Angstroms)
    I     Atom           X                Y                Z
 ----------------------------------------------------------------
    1      C       5.9364520000    -5.2256650000     1.1044700000
    2      C       6.8357590000    -5.0816330000     0.0532440000
    3      C       6.6254680000    -4.1035550000    -0.9212780000
    4      C       4.8198240000    -4.3900000000     1.1858480000
    5      C       4.6088380000    -3.4085990000     0.2080310000
    6      C       5.5156770000    -3.2685770000    -0.8454620000
    7      C       3.8703930000    -4.5627760000     2.3203710000
    8      C       2.6820700000    -3.6398460000     2.3639000000
    9      C       2.4787200000    -2.6938060000     1.4214200000
   10      C       3.4276450000    -2.5033010000     0.2685530000
   11      O       4.0406810000    -5.4065030000     3.1746070000
   12      O       3.2327790000    -1.6485370000    -0.5693020000
   13      H       6.0804330000    -5.9771750000     1.8705740000
   14      H       5.3335930000    -2.5037960000    -1.5900170000
   15      Br      1.5205200000    -3.9161260000     3.8276390000
   16      Br      1.0041210000    -1.5133560000     1.4340630000
   17      H       7.7014530000    -5.7309030000    -0.0083090000
   18      H       7.3279150000    -3.9935380000    -1.7393430000
 ----------------------------------------------------------------

   14   -5682.3283217047      9.97e-09  Convergence criterion met
 Total energy in the final basis set =    -5682.3473605278

                    Orbital Energies (a.u.)
 --------------------------------------------------------------

 Alpha MOs
 -- Occupied --
********-482.8553 -62.5081 -62.5080 -56.3287 -56.3287 -56.3248 -56.3248
-56.3242 -56.3242 -19.1478 -19.1478 -10.3032 -10.3032 -10.2782 -10.2775
-10.2198 -10.2192 -10.2052 -10.2052 -10.2036 -10.2030  -8.7169  -8.7169
 -6.5489  -6.5489  -6.5358  -6.5358  -6.5340  -6.5340  -2.6598  -2.6597
 -2.6564  -2.6563  -2.6550  -2.6550  -2.6445  -2.6445  -2.6445  -2.6444
 -1.0860  -1.0842  -0.9073  -0.8876  -0.8242  -0.8120  -0.7872  -0.7584
 -0.7031  -0.6551  -0.6392  -0.6016  -0.5660  -0.5327  -0.5096  -0.4854
 -0.4741  -0.4720  -0.4649  -0.4583  -0.4405  -0.4366  -0.4313  -0.3979
 -0.3901  -0.3774  -0.3702  -0.3276  -0.3260  -0.3043  -0.3033  -0.2963
 -0.2860  -0.2854  -0.2755

          Ground-State Mulliken Net Atomic Charges

     Atom                 Charge (a.u.)
  ----------------------------------------
      1 C                     0.325912
      2 C                     0.531007
      3 C                     0.531212
      4 C                     0.194106
      5 C                     0.195916
      6 C                     0.325413
      7 C                    -1.546281
      8 C                     0.250423
      9 C                     0.242761
     10 C                    -1.538113
     11 O                    -0.185237
     12 O                    -0.185494
     13 H                     0.201351
     14 H                     0.201388
     15 Br                   -0.110980
     16 Br                   -0.110149
     17 H                     0.338352
     18 H                     0.338414
  ----------------------------------------
  Sum of atomic charges =     0.000000

                    Cartesian Multipole Moments
 -----------------------------------------------------------------
    Charge (ESU x 10^10)
                -0.0000
    Dipole Moment (Debye)
         X       3.5762      Y      -1.2328      Z      -2.0094
       Tot       4.2833
    Quadrupole Moments (Debye-Ang)
        XX     -64.2769     XY     -21.1531     YY    -100.2096
        XZ     -12.3474     YZ      13.8658     ZZ    -111.1119

 Total job time:  229.51s(wall), 1756.58s(cpu)
        *  Thank you very much for using Q-Chem.  Have a nice day.  *
