 Gaussian 16, Revision A.03,
 Gaussian 16:  ES64L-G16RevA.03 25-Dec-2016

 ----------------------------------------------------------------------
 #P UB3LYP/6-311++G(d,p) nosym opt freq SCRF=(PCM,Solvent=n,n-DiMethylF
 ormamide)
 ----------------------------------------------------------------------

 -------
 Radical
 -------
 Symbolic Z-matrix:
 Charge = -1 Multiplicity = 2

 SCF Done:  E(UB3LYP) =  -712.367263459     A.U. after   19 cycles
 SCF Done:  E(UB3LYP) =  -712.367862159     A.U. after   15 cycles
 SCF Done:  E(UB3LYP) =  -712.368018476     A.U. after   16 cycles
 SCF Done:  E(UB3LYP) =  -712.367840206     A.U. after   15 cycles
 SCF Done:  E(UB3LYP) =  -712.368052929     A.U. after   15 cycles
 SCF Done:  E(UB3LYP) =  -712.368123886     A.U. after   14 cycles
 SCF Done:  E(UB3LYP) =  -712.368152483     A.U. after   14 cycles
 SCF Done:  E(UB3LYP) =  -712.368165170     A.U. after   13 cycles
 SCF Done:  E(UB3LYP) =  -712.368172655     A.U. after   13 cycles
 SCF Done:  E(UB3LYP) =  -712.368174047     A.U. after   12 cycles
 SCF Done:  E(UB3LYP) =  -712.368174203     A.U. after   11 cycles
 SCF Done:  E(UB3LYP) =  -712.368174270     A.U. after   10 cycles
 SCF Done:  E(UB3LYP) =  -712.368174290     A.U. after   11 cycles
 Optimization completed.
    -- Stationary point found.
 Normal termination of Gaussian 16 at Sat Feb 10 12:23:10 2024.

 ----------------------------------------------------------------------
 #P Geom=AllCheck Guess=TCheck SCRF=Check GenChk UB3LYP/6-311++G(d,p) F
 req
 ----------------------------------------------------------------------

 Structure from the checkpoint file:  "104-rad.chk"
 -------
 Radical
 -------
 Charge = -1 Multiplicity = 2

                          Input orientation:
 ---------------------------------------------------------------------
 Center     Atomic      Atomic             Coordinates (Angstroms)
 Number     Number       Type             X           Y           Z
 ---------------------------------------------------------------------
      1          6           0       -2.210185   -2.149727    5.018286
      2          6           0       -1.305298   -3.168220    4.517290
      3          6           0       -1.254421   -3.399412    3.157739
      4          6           0       -2.053960   -2.689759    2.181794
      5          6           0       -2.941705   -1.684678    2.678198
      6          6           0       -3.019388   -1.405891    4.030322
      7          8           0       -2.355888   -1.857197    6.251178
      8          8           0       -1.958497   -2.964562    0.936329
      9          7           0       -3.806297   -0.426887    4.580581
     10          6           0       -4.902629    0.259255    3.905221
     11          6           0       -6.134289   -0.642978    3.718078
     12          6           0       -5.251319    1.528821    4.685814
     13          1           0       -3.549182   -1.149041    1.957066
     14          1           0       -3.828036   -0.473542    5.593497
     15          1           0       -4.540769    0.559195    2.915878
     16          1           0       -6.907739   -0.126291    3.142056
     17          1           0       -6.556523   -0.917014    4.690093
     18          1           0       -5.870804   -1.560688    3.187607
     19          1           0       -6.060416    2.071827    4.191655
     20          1           0       -4.386205    2.191802    4.762777
     21          1           0       -5.584780    1.280296    5.699156
     22          6           0       -0.430756   -3.963562    5.506425
     23          6           0       -1.329456   -4.737431    6.501158
     24          6           0        0.468177   -4.994832    4.797003
     25          6           0        0.495070   -2.997449    6.284309
     26          1           0       -0.592869   -4.152544    2.748048
     27          1           0       -1.972080   -4.056457    7.057911
     28          1           0       -0.710423   -5.296828    7.211073
     29          1           0       -1.961046   -5.456226    5.969166
     30          1           0        1.064540   -5.525721    5.544910
     31          1           0        1.161287   -4.521591    4.095814
     32          1           0       -0.115383   -5.740162    4.249330
     33          1           0       -0.085989   -2.256022    6.831419
     34          1           0        1.168773   -2.474767    5.597661
     35          1           0        1.110968   -3.557346    6.996535
 ---------------------------------------------------------------------

 SCF Done:  E(UB3LYP) =  -712.368174290     A.U. after    1 cycles

 Alpha  occ. eigenvalues --  -19.07015 -19.06031 -14.31194 -10.21188 -10.20763
 Alpha  occ. eigenvalues --  -10.20647 -10.19976 -10.17939 -10.16304 -10.15887
 Alpha  occ. eigenvalues --  -10.15484 -10.14865 -10.14665 -10.14407 -10.14406
 Alpha  occ. eigenvalues --  -10.13737  -0.99423  -0.97572  -0.92403  -0.82493
 Alpha  occ. eigenvalues --   -0.79528  -0.76588  -0.71308  -0.68669  -0.67921
 Alpha  occ. eigenvalues --   -0.67402  -0.66337  -0.61607  -0.57727  -0.57193
 Alpha  occ. eigenvalues --   -0.52000  -0.49112  -0.48556  -0.45764  -0.44940
 Alpha  occ. eigenvalues --   -0.44322  -0.43930  -0.43049  -0.42046  -0.41408
 Alpha  occ. eigenvalues --   -0.40211  -0.39604  -0.38648  -0.38346  -0.37610
 Alpha  occ. eigenvalues --   -0.36762  -0.36685  -0.36250  -0.35822  -0.35476
 Alpha  occ. eigenvalues --   -0.34783  -0.33962  -0.32588  -0.32467  -0.31554
 Alpha  occ. eigenvalues --   -0.29965  -0.25932  -0.23569  -0.22715  -0.20224
 Alpha  occ. eigenvalues --   -0.14710
 Alpha virt. eigenvalues --   -0.00528   0.00225   0.00819   0.01173   0.01899
 Alpha virt. eigenvalues --    0.02187   0.02345   0.02603   0.03643   0.03791
 Alpha virt. eigenvalues --    0.04038   0.04255   0.04373   0.05105   0.05525

  Beta  occ. eigenvalues --  -19.06338 -19.05487 -14.31081 -10.20915 -10.20651
  Beta  occ. eigenvalues --  -10.20644 -10.19866 -10.17943 -10.16253 -10.15886
  Beta  occ. eigenvalues --  -10.15475 -10.14866 -10.14433 -10.14404 -10.14402
  Beta  occ. eigenvalues --  -10.13770  -0.98283  -0.96604  -0.92089  -0.82200
  Beta  occ. eigenvalues --   -0.79312  -0.76365  -0.71135  -0.68650  -0.67762
  Beta  occ. eigenvalues --   -0.67386  -0.65463  -0.61398  -0.57539  -0.56855
  Beta  occ. eigenvalues --   -0.51830  -0.48855  -0.48442  -0.45560  -0.44671
  Beta  occ. eigenvalues --   -0.44191  -0.43845  -0.42942  -0.41679  -0.41301
  Beta  occ. eigenvalues --   -0.39339  -0.39083  -0.38613  -0.38209  -0.37081
  Beta  occ. eigenvalues --   -0.36621  -0.36385  -0.35665  -0.35599  -0.35018
  Beta  occ. eigenvalues --   -0.33925  -0.33268  -0.32466  -0.32327  -0.31491
  Beta  occ. eigenvalues --   -0.28615  -0.23434  -0.22984  -0.22195  -0.19424
  Beta virt. eigenvalues --   -0.07616  -0.00513   0.00233   0.01195   0.01294
  Beta virt. eigenvalues --    0.02125   0.02319   0.02524   0.02835   0.03759
  Beta virt. eigenvalues --    0.04043   0.04100   0.04316   0.05121   0.05542

 Mulliken charges and spin densities:
               1          2
     1  C   -1.566161   0.192025
     2  C    1.188270   0.013357
     3  C   -0.538576   0.175573
     4  C   -0.437913   0.078428
     5  C    0.751915  -0.016869
     6  C   -0.140103   0.079344
     7  O   -0.444462   0.252539
     8  O   -0.556393   0.187932
     9  N   -0.029821   0.053133
    10  C   -0.026441  -0.005798
    11  C   -0.511169   0.005148
    12  C   -0.523934   0.002028
    13  H    0.196226   0.000100
    14  H    0.307039  -0.003330
    15  H    0.135840   0.000902
    16  H    0.141062   0.000668
    17  H    0.156889   0.000324
    18  H    0.144370  -0.001244
    19  H    0.159489  -0.000059
    20  H    0.153423   0.000535
    21  H    0.143680  -0.000082
    22  C    0.598520  -0.016787
    23  C   -0.671814   0.007589
    24  C   -0.483558   0.001808
    25  C   -0.674582   0.006829
    26  H    0.179170  -0.013018
    27  H    0.185312  -0.000928
    28  H    0.142379   0.000226
    29  H    0.131126   0.000770
    30  H    0.169081   0.000172
    31  H    0.131464  -0.000662
    32  H    0.131589  -0.000671
    33  H    0.182018  -0.000954
    34  H    0.132639   0.000732
    35  H    0.143427   0.000239
 Sum of Mulliken charges =  -1.00000   1.00000

 Dipole moment (field-independent basis, Debye):
    X=              8.4065    Y=             13.2190    Z=            -14.8226  Tot=             21.5666
 Quadrupole moment (field-independent basis, Debye-Ang):
   XX=           -113.0095   YY=           -138.1512   ZZ=           -186.2629
   XY=            -29.4912   XZ=             26.2738   YZ=             34.4760

  Exact polarizability: 238.745 -55.264 243.341  -5.281  26.607 326.286
 Approx polarizability: 240.098 -46.091 250.779 -14.207  38.675 368.871

                      1                      2                      3
                      A                      A                      A
 Frequencies --     34.7923                49.8933                64.5109
 Red. masses --      3.5711                 2.6979                 3.6446
 Frc consts  --      0.0025                 0.0040                 0.0089
 IR Inten    --      8.7935                 0.1332                 1.2741

                      4                      5                      6
                      A                      A                      A
 Frequencies --     86.7638               105.5526               154.4095
 Red. masses --      4.9659                 3.5031                 4.7564
 Frc consts  --      0.0220                 0.0230                 0.0668
 IR Inten    --      5.4429                 4.7181                 8.5039

                      7                      8                      9
                      A                      A                      A
 Frequencies --    190.7965               199.5433               226.9672
 Red. masses --      3.8044                 4.4593                 1.0301
 Frc consts  --      0.0816                 0.1046                 0.0313
 IR Inten    --      0.6480                 1.0438                 0.3294

                     10                     11                     12
                      A                      A                      A
 Frequencies --    229.0185               251.5151               254.0103
 Red. masses --      1.0908                 1.4504                 1.1405
 Frc consts  --      0.0337                 0.0541                 0.0434
 IR Inten    --      0.4024                 1.1547                 0.0873

                     13                     14                     15
                      A                      A                      A
 Frequencies --    267.9756               281.3617               290.1305
 Red. masses --      2.2564                 2.4938                 3.0744
 Frc consts  --      0.0955                 0.1163                 0.1525
 IR Inten    --      1.5855                 4.3477                 0.3581

                     16                     17                     18
                      A                      A                      A
 Frequencies --    329.3538               329.8191               356.5288
 Red. masses --      1.3632                 1.7595                 3.5086
 Frc consts  --      0.0871                 0.1128                 0.2628
 IR Inten    --      3.7455                 6.4773                 3.0056

                     19                     20                     21
                      A                      A                      A
 Frequencies --    379.5873               401.2703               412.8169
 Red. masses --      2.7435                 3.0126                 2.5328
 Frc consts  --      0.2329                 0.2858                 0.2543
 IR Inten    --      0.3544                13.8142                 3.0412

                     22                     23                     24
                      A                      A                      A
 Frequencies --    420.8831               452.1720               464.4126
 Red. masses --      3.4794                 5.2864                 3.7108
 Frc consts  --      0.3631                 0.6368                 0.4715
 IR Inten    --      0.1390                21.3558                57.1892

                     25                     26                     27
                      A                      A                      A
 Frequencies --    482.4233               522.9257               546.6468
 Red. masses --      5.2042                 2.0886                 1.4261
 Frc consts  --      0.7136                 0.3365                 0.2511
 IR Inten    --      3.2607                69.5139               123.8062

                     28                     29                     30
                      A                      A                      A
 Frequencies --    597.4967               632.3330               669.5662
 Red. masses --      3.9508                 3.9362                 2.7798
 Frc consts  --      0.8310                 0.9273                 0.7343
 IR Inten    --      7.6499                18.4535                 1.6020

                     31                     32                     33
                      A                      A                      A
 Frequencies --    685.1780               778.9133               791.5322
 Red. masses --      4.4500                 6.8152                 3.6636
 Frc consts  --      1.2309                 2.4362                 1.3524
 IR Inten    --      7.6469                 9.1785                15.7098

                     34                     35                     36
                      A                      A                      A
 Frequencies --    808.3017               809.9733               847.1197
 Red. masses --      4.9295                 1.5404                 2.5399
 Frc consts  --      1.8976                 0.5954                 1.0739
 IR Inten    --     46.9764                34.2490                 4.6736

                     37                     38                     39
                      A                      A                      A
 Frequencies --    855.5910               910.7406               925.3858
 Red. masses --      1.7163                 2.6942                 1.7844
 Frc consts  --      0.7402                 1.3166                 0.9003
 IR Inten    --     58.3064                16.4456                 0.8883

                     40                     41                     42
                      A                      A                      A
 Frequencies --    929.5532               931.1105               947.5701
 Red. masses --      1.7029                 1.2793                 1.4633
 Frc consts  --      0.8669                 0.6534                 0.7741
 IR Inten    --      3.1738                 5.6147                 2.8019

                     43                     44                     45
                      A                      A                      A
 Frequencies --    953.8256               973.5007              1018.7499
 Red. masses --      1.2001                 2.2527                 2.0307
 Frc consts  --      0.6433                 1.2579                 1.2418
 IR Inten    --      0.2521                11.2433                51.4398

                     46                     47                     48
                      A                      A                      A
 Frequencies --   1043.1487              1051.6228              1134.6360
 Red. masses --      1.3794                 1.5576                 2.1256
 Frc consts  --      0.8844                 1.0149                 1.6123
 IR Inten    --      0.0580                 5.6281                33.1987

                     49                     50                     51
                      A                      A                      A
 Frequencies --   1154.7077              1178.1921              1194.8904
 Red. masses --      2.2007                 1.9706                 2.5725
 Frc consts  --      1.7288                 1.6117                 2.1640
 IR Inten    --     29.1920                 8.9919                96.4683

                     52                     53                     54
                      A                      A                      A
 Frequencies --   1213.8976              1221.6623              1233.6236
 Red. masses --      2.7382                 2.8963                 2.9402
 Frc consts  --      2.3773                 2.5468                 2.6363
 IR Inten    --      8.6987                17.6806               208.1888

                     55                     56                     57
                      A                      A                      A
 Frequencies --   1262.9908              1271.7967              1311.3117
 Red. masses --      2.2119                 1.8687                 2.1319
 Frc consts  --      2.0788                 1.7809                 2.1599
 IR Inten    --     56.8446               114.0835               151.1060

                     58                     59                     60
                      A                      A                      A
 Frequencies --   1353.0589              1368.1971              1373.2559
 Red. masses --      1.4186                 1.4638                 1.2138
 Frc consts  --      1.5302                 1.6145                 1.3486
 IR Inten    --      4.1128                17.8329                12.9683

                     61                     62                     63
                      A                      A                      A
 Frequencies --   1382.6902              1389.6945              1407.5363
 Red. masses --      1.2480                 1.2474                 1.7041
 Frc consts  --      1.4057                 1.4194                 1.9892
 IR Inten    --      9.6415                14.3405                12.8224

                     64                     65                     66
                      A                      A                      A
 Frequencies --   1408.9593              1410.9662              1464.9851
 Red. masses --      1.3230                 1.9000                 3.6250
 Frc consts  --      1.5474                 2.2286                 4.5838
 IR Inten    --     55.9222                98.5845               118.9665

                     67                     68                     69
                      A                      A                      A
 Frequencies --   1469.7201              1475.8868              1477.5923
 Red. masses --      1.0486                 1.6395                 1.0644
 Frc consts  --      1.3346                 2.1042                 1.3692
 IR Inten    --      0.5379               658.3483                31.6533

                     70                     71                     72
                      A                      A                      A
 Frequencies --   1480.8366              1486.6468              1487.5359
 Red. masses --      1.1803                 1.1794                 1.0605
 Frc consts  --      1.5250                 1.5357                 1.3826
 IR Inten    --    152.8915               150.0464                20.5589

                     73                     74                     75
                      A                      A                      A
 Frequencies --   1488.6763              1494.9527              1498.0114
 Red. masses --      1.0749                 1.5456                 1.0807
 Frc consts  --      1.4035                 2.0352                 1.4288
 IR Inten    --     52.4753               474.4207                52.1849

                     76                     77                     78
                      A                      A                      A
 Frequencies --   1500.9007              1516.1015              1521.8792
 Red. masses --      1.0508                 1.1128                 1.8142
 Frc consts  --      1.3947                 1.5070                 2.4756
 IR Inten    --      8.4406                49.9515               181.4332

                     79                     80                     81
                      A                      A                      A
 Frequencies --   1528.1798              1619.0991              3008.5126
 Red. masses --      5.2427                 6.4849                 1.0386
 Frc consts  --      7.2136                10.0161                 5.5388
 IR Inten    --    284.0862               291.8415                81.3476

                     82                     83                     84
                      A                      A                      A
 Frequencies --   3011.3749              3017.3527              3018.9402
 Red. masses --      1.0376                 1.0360                 1.0610
 Frc consts  --      5.5441                 5.5575                 5.6975
 IR Inten    --     54.1370                34.3152                39.4672

                     85                     86                     87
                      A                      A                      A
 Frequencies --   3020.5558              3024.9603              3063.3672
 Red. masses --      1.0367                 1.0586                 1.1015
 Frc consts  --      5.5726                 5.7074                 6.0903
 IR Inten    --     75.4807                43.4199                35.9995

                     88                     89                     90
                      A                      A                      A
 Frequencies --   3065.1312              3079.1945              3079.3833
 Red. masses --      1.1008                 1.1011                 1.1013
 Frc consts  --      6.0932                 6.1511                 6.1531
 IR Inten    --     69.3373               115.8255                 8.7638

                     91                     92                     93
                      A                      A                      A
 Frequencies --   3084.1245              3086.1015              3097.1464
 Red. masses --      1.1020                 1.0995                 1.1012
 Frc consts  --      6.1759                 6.1700                 6.2236
 IR Inten    --     66.4371               107.8224                40.7071

                     94                     95                     96
                      A                      A                      A
 Frequencies --   3100.5670              3121.2644              3123.5964
 Red. masses --      1.1025                 1.0976                 1.0970
 Frc consts  --      6.2447                 6.3003                 6.3059
 IR Inten    --     54.7084                 0.9329                33.1896

                     97                     98                     99
                      A                      A                      A
 Frequencies --   3165.4475              3183.3665              3534.9457
 Red. masses --      1.0890                 1.0879                 1.0751
 Frc consts  --      6.4289                 6.4953                 7.9150
 IR Inten    --     39.1587                24.6561                82.1072

 - Thermochemistry -
 -------------------
 Temperature   298.150 Kelvin.  Pressure   1.00000 Atm.
 Atom     1 has atomic number  6 and mass  12.00000

 Molecular mass:   221.14158 amu.
 Principal axes and moments of inertia in atomic units:
                           1         2         3
     Eigenvalues --  2174.881375577.330387034.28526
           X            0.72826  -0.05977   0.68269
           Y           -0.65796   0.21761   0.72093
           Z            0.19166   0.97420  -0.11915
 This molecule is an asymmetric top.
 Rotational symmetry number  1.
 Warning -- assumption of classical behavior for rotation
           may cause significant error
 Rotational temperatures (Kelvin)      0.03982     0.01553     0.01231
 Rotational constants (GHZ):           0.82981     0.32359     0.25656
 Zero-point vibrational energy     775274.0 (Joules/Mol)
                                  185.29494 (Kcal/Mol)
 Warning -- explicit consideration of  28 degrees of freedom as
           vibrations may cause significant error
 Vibrational temperatures:     50.06    71.79    92.82   124.83   151.87
          (Kelvin)            222.16   274.51   287.10   326.56   329.51
                              361.87   365.46   385.56   404.82   417.43
                              473.87   474.54   512.97   546.14   577.34
                              593.95   605.56   650.57   668.19   694.10
                              752.37   786.50   859.66   909.79   963.36
                              985.82  1120.68  1138.84  1162.97  1165.37
                             1218.82  1231.00  1310.35  1331.42  1337.42
                             1339.66  1363.34  1372.34  1400.65  1465.75
                             1500.86  1513.05  1632.49  1661.37  1695.16
                             1719.18  1746.53  1757.70  1774.91  1817.16
                             1829.83  1886.69  1946.75  1968.53  1975.81
                             1989.38  1999.46  2025.13  2027.18  2030.07
                             2107.79  2114.60  2123.47  2125.93  2130.59
                             2138.95  2140.23  2141.87  2150.90  2155.30
                             2159.46  2181.33  2189.64  2198.71  2329.52
                             4328.58  4332.70  4341.30  4343.58  4345.91
                             4352.24  4407.50  4410.04  4430.27  4430.55
                             4437.37  4440.21  4456.10  4461.02  4490.80
                             4494.16  4554.37  4580.15  5086.00

 Zero-point correction=                           0.295286 (Hartree/Particle)
 Thermal correction to Energy=                    0.312436
 Thermal correction to Enthalpy=                  0.313380
 Thermal correction to Gibbs Free Energy=         0.250573
 Sum of electronic and zero-point Energies=           -712.072888
 Sum of electronic and thermal Energies=              -712.055739
 Sum of electronic and thermal Enthalpies=            -712.054795
 Sum of electronic and thermal Free Energies=         -712.117601

                     E (Thermal)             CV                S
                      KCal/Mol        Cal/Mol-Kelvin    Cal/Mol-Kelvin
 Total                  196.056             66.244            132.188
 Electronic               0.000              0.000              1.377
 Translational            0.889              2.981             42.084
 Rotational               0.889              2.981             32.812
 Vibrational            194.279             60.283             55.915
 Vibration     1          0.594              1.983              5.536
 Vibration     2          0.595              1.978              4.822
 Vibration     3          0.597              1.971              4.314
 Vibration     4          0.601              1.958              3.732
 Vibration     5          0.605              1.945              3.349
 Vibration     6          0.620              1.898              2.617
 Vibration     7          0.634              1.853              2.220
 Vibration     8          0.638              1.841              2.137
 Vibration     9          0.651              1.800              1.903
 Vibration    10          0.652              1.797              1.887
 Vibration    11          0.663              1.760              1.720
 Vibration    12          0.665              1.756              1.703
 Vibration    13          0.673              1.732              1.609
 Vibration    14          0.681              1.708              1.525
 Vibration    15          0.686              1.692              1.473
 Vibration    16          0.712              1.617              1.263
 Vibration    17          0.713              1.616              1.261
 Vibration    18          0.732              1.562              1.137
 Vibration    19          0.750              1.514              1.041
 Vibration    20          0.767              1.467              0.958
 Vibration    21          0.777              1.442              0.917
 Vibration    22          0.783              1.425              0.889
 Vibration    23          0.811              1.356              0.789
 Vibration    24          0.822              1.329              0.753
 Vibration    25          0.839              1.289              0.704
 Vibration    26          0.878              1.199              0.603
 Vibration    27          0.902              1.147              0.551
 Vibration    28          0.955              1.037              0.454

 Optimization completed.
    -- Stationary point found.
 Normal termination of Gaussian 16 at Sat Feb 10 13:14:43 2024.
