 Gaussian 16, Revision A.03,
 Gaussian 16:  ES64L-G16RevA.03 25-Dec-2016

 ----------------------------------------------------------------------
 #P UB3LYP/6-311++G(d,p) nosym opt freq SCRF=(PCM,Solvent=n,n-DiMethylF
 ormamide)
 ----------------------------------------------------------------------

 -------
 Reduced
 -------
 Symbolic Z-matrix:
 Charge = -2 Multiplicity = 1

 SCF Done:  E(UB3LYP) =  -692.805804468     A.U. after   17 cycles
 SCF Done:  E(UB3LYP) =  -692.807926742     A.U. after   13 cycles
 SCF Done:  E(UB3LYP) =  -692.808256350     A.U. after   12 cycles
 SCF Done:  E(UB3LYP) =  -692.808277628     A.U. after   13 cycles
 SCF Done:  E(UB3LYP) =  -692.808302176     A.U. after   12 cycles
 SCF Done:  E(UB3LYP) =  -692.808306818     A.U. after   10 cycles
 SCF Done:  E(UB3LYP) =  -692.808308857     A.U. after   10 cycles
 SCF Done:  E(UB3LYP) =  -692.808309627     A.U. after   10 cycles
 SCF Done:  E(UB3LYP) =  -692.808310608     A.U. after   10 cycles
 SCF Done:  E(UB3LYP) =  -692.808311638     A.U. after   10 cycles
 SCF Done:  E(UB3LYP) =  -692.808312228     A.U. after   10 cycles
 SCF Done:  E(UB3LYP) =  -692.808312877     A.U. after    9 cycles
 SCF Done:  E(UB3LYP) =  -692.808313020     A.U. after    9 cycles
 SCF Done:  E(UB3LYP) =  -692.808313041     A.U. after    8 cycles
 Optimization completed.
    -- Stationary point found.
 Normal termination of Gaussian 16 at Sun Feb 11 03:41:36 2024.

 ----------------------------------------------------------------------
 #P Geom=AllCheck Guess=TCheck SCRF=Check GenChk UB3LYP/6-311++G(d,p) F
 req
 ----------------------------------------------------------------------

 Structure from the checkpoint file:  "256-an.chk"
 -------
 Reduced
 -------
 Charge = -2 Multiplicity = 1

                          Input orientation:
 ---------------------------------------------------------------------
 Center     Atomic      Atomic             Coordinates (Angstroms)
 Number     Number       Type             X           Y           Z
 ---------------------------------------------------------------------
      1          6           0       -1.533717    2.783895    0.003728
      2          6           0       -2.794027    2.214736   -0.015516
      3          6           0       -2.902296    0.788347   -0.025023
      4          6           0       -0.330658    2.031505    0.016018
      5          6           0       -0.439538    0.598869   -0.001649
      6          6           0       -1.742075    0.035562   -0.020387
      7          6           0        0.956852    2.699939    0.046546
      8          6           0        2.084470    1.845239    0.049332
      9          6           0        1.975887    0.418328    0.030937
     10          6           0        0.732558   -0.255923    0.002125
     11          8           0        1.035999    4.015069    0.070758
     12          8           0        0.612221   -1.567647   -0.019119
     13          6           0        3.459098    2.478057    0.073212
     14          6           0        3.237194   -0.417875    0.042815
     15          1           0       -1.436164    3.864538    0.011551
     16          6           0       -4.032258    3.082698   -0.024244
     17          6           0       -4.257434    0.117600   -0.038073
     18          1           0        3.359513    3.563798    0.048401
     19          1           0        4.076753    2.169808   -0.780869
     20          1           0        4.030135    2.210035    0.972909
     21          1           0        3.860947   -0.252190   -0.846715
     22          1           0        2.968948   -1.474274    0.073794
     23          1           0        3.877664   -0.199125    0.907443
     24          1           0       -1.807294   -1.048117   -0.029891
     25          1           0       -3.763564    4.141620   -0.018101
     26          1           0       -4.671125    2.896422    0.847342
     27          1           0       -4.655263    2.902287   -0.908373
     28          1           0       -4.858797    0.389539    0.837651
     29          1           0       -4.151895   -0.969787   -0.043229
     30          1           0       -4.848006    0.399279   -0.917982
 ---------------------------------------------------------------------

 SCF Done:  E(UB3LYP) =  -692.808313041     A.U. after    1 cycles

 Alpha  occ. eigenvalues --  -19.00454 -19.00449 -10.15723 -10.15709 -10.15144
 Alpha  occ. eigenvalues --  -10.15143 -10.15097 -10.15056 -10.13556 -10.13549
 Alpha  occ. eigenvalues --  -10.13068 -10.13051 -10.12804 -10.12763 -10.11859
 Alpha  occ. eigenvalues --  -10.11816  -0.91227  -0.90777  -0.82690  -0.77595
 Alpha  occ. eigenvalues --   -0.74386  -0.73794  -0.69146  -0.67659  -0.67345
 Alpha  occ. eigenvalues --   -0.62179  -0.60574  -0.56212  -0.53661  -0.50683
 Alpha  occ. eigenvalues --   -0.46391  -0.44119  -0.44041  -0.41753  -0.40513
 Alpha  occ. eigenvalues --   -0.40144  -0.39599  -0.38568  -0.38528  -0.36931
 Alpha  occ. eigenvalues --   -0.36731  -0.35577  -0.35510  -0.35244  -0.34850
 Alpha  occ. eigenvalues --   -0.34352  -0.33813  -0.31635  -0.29972  -0.29768
 Alpha  occ. eigenvalues --   -0.28899  -0.28723  -0.21670  -0.20770  -0.19084
 Alpha  occ. eigenvalues --   -0.18870  -0.18162  -0.10479
 Alpha virt. eigenvalues --   -0.00275   0.00236   0.00388   0.01393   0.02059
 Alpha virt. eigenvalues --    0.02485   0.02569   0.03479   0.04016   0.04262
 Alpha virt. eigenvalues --    0.04577   0.04979   0.05701   0.05969   0.06798

  Beta  occ. eigenvalues --  -19.00454 -19.00449 -10.15723 -10.15709 -10.15144
  Beta  occ. eigenvalues --  -10.15143 -10.15097 -10.15056 -10.13556 -10.13549
  Beta  occ. eigenvalues --  -10.13068 -10.13051 -10.12804 -10.12763 -10.11859
  Beta  occ. eigenvalues --  -10.11816  -0.91227  -0.90777  -0.82690  -0.77595
  Beta  occ. eigenvalues --   -0.74386  -0.73794  -0.69146  -0.67659  -0.67345
  Beta  occ. eigenvalues --   -0.62179  -0.60574  -0.56212  -0.53661  -0.50683
  Beta  occ. eigenvalues --   -0.46391  -0.44119  -0.44041  -0.41753  -0.40513
  Beta  occ. eigenvalues --   -0.40144  -0.39599  -0.38568  -0.38528  -0.36931
  Beta  occ. eigenvalues --   -0.36731  -0.35577  -0.35510  -0.35244  -0.34850
  Beta  occ. eigenvalues --   -0.34352  -0.33813  -0.31635  -0.29972  -0.29768
  Beta  occ. eigenvalues --   -0.28899  -0.28723  -0.21670  -0.20770  -0.19084
  Beta  occ. eigenvalues --   -0.18870  -0.18162  -0.10479
  Beta virt. eigenvalues --   -0.00275   0.00236   0.00388   0.01393   0.02059
  Beta virt. eigenvalues --    0.02485   0.02569   0.03479   0.04016   0.04262
  Beta virt. eigenvalues --    0.04577   0.04979   0.05701   0.05969   0.06798

 Mulliken charges and spin densities:
               1          2
     1  C   -0.223303   0.000000
     2  C    0.312580   0.000000
     3  C    0.312956   0.000000
     4  C    0.154229  -0.000000
     5  C    0.145978  -0.000000
     6  C   -0.223298  -0.000000
     7  C   -0.844610  -0.000000
     8  C    0.323751  -0.000000
     9  C    0.328862  -0.000000
    10  C   -0.842132   0.000000
    11  O   -0.722727   0.000000
    12  O   -0.721717  -0.000000
    13  C   -0.476277   0.000000
    14  C   -0.473915  -0.000000
    15  H    0.107771   0.000000
    16  C   -0.505654   0.000000
    17  C   -0.505734   0.000000
    18  H    0.172197   0.000000
    19  H    0.123267   0.000000
    20  H    0.124984  -0.000000
    21  H    0.125260   0.000000
    22  H    0.172384  -0.000000
    23  H    0.122470   0.000000
    24  H    0.109514   0.000000
    25  H    0.161743   0.000000
    26  H    0.145118  -0.000000
    27  H    0.144772  -0.000000
    28  H    0.145104   0.000000
    29  H    0.161664   0.000000
    30  H    0.144763   0.000000
 Sum of Mulliken charges =  -2.00000  -0.00000

 Dipole moment (field-independent basis, Debye):
    X=             -6.5211    Y=            -11.8663    Z=             -0.2178  Tot=             13.5418
 Quadrupole moment (field-independent basis, Debye-Ang):
   XX=           -118.0745   YY=           -182.2697   ZZ=           -106.9783
   XY=            -12.1736   XZ=             -0.3359   YZ=             -1.2796

  Exact polarizability: 427.550  -7.870 324.334   3.254   1.881 169.384
 Approx polarizability: 451.422  -6.740 363.051   3.364   2.231 188.047

                      1                      2                      3
                      A                      A                      A
 Frequencies --     71.1328                74.3034                93.7560
 Red. masses --      3.5423                 3.7460                 1.0265
 Frc consts  --      0.0106                 0.0122                 0.0053
 IR Inten    --      1.7348                23.6076                 0.0260

                      4                      5                      6
                      A                      A                      A
 Frequencies --    136.0176               141.9746               150.7485
 Red. masses --      2.7334                 4.0635                 1.1316
 Frc consts  --      0.0298                 0.0483                 0.0152
 IR Inten    --      0.1769                 8.8109                 0.0153

                      7                      8                      9
                      A                      A                      A
 Frequencies --    161.6745               180.3811               185.8734
 Red. masses --      1.1040                 3.7114                 1.1788
 Frc consts  --      0.0170                 0.0711                 0.0240
 IR Inten    --      0.5712                16.8346                 1.1821

                     10                     11                     12
                      A                      A                      A
 Frequencies --    245.0666               249.9438               286.5982
 Red. masses --      3.0855                 3.3420                 2.7374
 Frc consts  --      0.1092                 0.1230                 0.1325
 IR Inten    --      0.5202                 0.0175                 6.0034

                     13                     14                     15
                      A                      A                      A
 Frequencies --    316.6835               325.3106               346.2287
 Red. masses --      2.8629                 3.5236                 4.8173
 Frc consts  --      0.1692                 0.2197                 0.3402
 IR Inten    --      0.9951                 7.3170                15.6195

                     16                     17                     18
                      A                      A                      A
 Frequencies --    354.0407               358.6105               410.1899
 Red. masses --      3.9893                 4.7085                 6.2250
 Frc consts  --      0.2946                 0.3568                 0.6171
 IR Inten    --     19.1202                 2.5248                 2.5368

                     19                     20                     21
                      A                      A                      A
 Frequencies --    417.7396               457.0779               471.9850
 Red. masses --      6.4319                 3.0548                 3.7922
 Frc consts  --      0.6613                 0.3760                 0.4977
 IR Inten    --      0.0083                 2.7727                28.9280

                     22                     23                     24
                      A                      A                      A
 Frequencies --    507.5786               560.0643               576.4353
 Red. masses --     11.0109                 4.1824                 4.4637
 Frc consts  --      1.6714                 0.7729                 0.8739
 IR Inten    --      0.8078                36.4728                 0.0346

                     25                     26                     27
                      A                      A                      A
 Frequencies --    647.4311               672.2707               681.4560
 Red. masses --      4.2761                 5.4374                 3.8716
 Frc consts  --      1.0560                 1.4479                 1.0593
 IR Inten    --     23.8735                 1.6538                 0.1187

                     28                     29                     30
                      A                      A                      A
 Frequencies --    716.3649               741.3270               744.7449
 Red. masses --      5.9625                 4.0221                 4.4108
 Frc consts  --      1.8028                 1.3023                 1.4414
 IR Inten    --     17.2271                39.9474                15.2152

                     31                     32                     33
                      A                      A                      A
 Frequencies --    796.7270               899.5106               903.2238
 Red. masses --      4.5482                 1.5314                 2.2556
 Frc consts  --      1.7010                 0.7300                 1.0842
 IR Inten    --      0.0153                10.9077                 2.1246

                     34                     35                     36
                      A                      A                      A
 Frequencies --    908.7754               923.2714               989.0213
 Red. masses --      1.4220                 3.3790                 1.5272
 Frc consts  --      0.6919                 1.6971                 0.8801
 IR Inten    --     23.7845                55.9867                21.1875

                     37                     38                     39
                      A                      A                      A
 Frequencies --   1019.2920              1020.8853              1030.6744
 Red. masses --      1.5547                 1.5114                 1.4051
 Frc consts  --      0.9517                 0.9281                 0.8794
 IR Inten    --      8.3671                12.5705                 0.1325

                     40                     41                     42
                      A                      A                      A
 Frequencies --   1043.1460              1051.2544              1061.4206
 Red. masses --      1.4224                 1.5085                 1.5522
 Frc consts  --      0.9119                 0.9822                 1.0303
 IR Inten    --      8.2327                 1.0049                 0.0065

                     43                     44                     45
                      A                      A                      A
 Frequencies --   1082.6147              1115.3836              1116.8797
 Red. masses --      2.5833                 5.0468                 2.2583
 Frc consts  --      1.7839                 3.6993                 1.6598
 IR Inten    --    399.2393                 2.3013                76.4816

                     46                     47                     48
                      A                      A                      A
 Frequencies --   1173.2764              1208.8679              1229.0554
 Red. masses --      3.4628                 5.8344                 4.0741
 Frc consts  --      2.8086                 5.0235                 3.6260
 IR Inten    --    393.8503               160.1371               117.6031

                     49                     50                     51
                      A                      A                      A
 Frequencies --   1234.7455              1329.8914              1332.4042
 Red. masses --      1.5858                 7.3054                 2.8616
 Frc consts  --      1.4245                 7.6125                 2.9932
 IR Inten    --      6.2319               236.3438              1219.8098

                     52                     53                     54
                      A                      A                      A
 Frequencies --   1364.1232              1378.2043              1383.0762
 Red. masses --      3.5250                 2.6318                 1.5342
 Frc consts  --      3.8647                 2.9453                 1.7291
 IR Inten    --     82.2351               371.7193                16.0455

                     55                     56                     57
                      A                      A                      A
 Frequencies --   1387.1834              1405.0809              1408.1681
 Red. masses --      2.1056                 1.4668                 1.2448
 Frc consts  --      2.3872                 1.7061                 1.4543
 IR Inten    --    270.7007                59.8691                 8.0524

                     58                     59                     60
                      A                      A                      A
 Frequencies --   1439.3625              1460.6772              1467.9235
 Red. masses --      4.4616                 1.2247                 1.0456
 Frc consts  --      5.4461                 1.5395                 1.3274
 IR Inten    --     66.4962                 0.4772                 0.0123

                     61                     62                     63
                      A                      A                      A
 Frequencies --   1475.0143              1478.6982              1478.8596
 Red. masses --      1.1716                 1.0595                 1.8481
 Frc consts  --      1.5019                 1.3649                 2.3813
 IR Inten    --     32.0681                19.0683                 6.8162

                     64                     65                     66
                      A                      A                      A
 Frequencies --   1483.3696              1483.6443              1496.9353
 Red. masses --      1.0786                 1.0682                 1.0500
 Frc consts  --      1.3983                 1.3853                 1.3862
 IR Inten    --      1.4799                 1.0373                17.3070

                     67                     68                     69
                      A                      A                      A
 Frequencies --   1501.7215              1530.6342              1573.1439
 Red. masses --      1.6100                 4.2840                 6.9022
 Frc consts  --      2.1392                 5.9135                10.0641
 IR Inten    --      5.9177               204.9796                 0.9113

                     70                     71                     72
                      A                      A                      A
 Frequencies --   1626.9918              2973.1850              2976.4028
 Red. masses --      6.5108                 1.0440                 1.0440
 Frc consts  --     10.1544                 5.4377                 5.4490
 IR Inten    --     10.6490                17.8978               479.9103

                     73                     74                     75
                      A                      A                      A
 Frequencies --   2997.7824              2999.6433              2999.9706
 Red. masses --      1.0392                 1.0550                 1.0780
 Frc consts  --      5.5025                 5.5930                 5.7163
 IR Inten    --     13.3534               252.2391                25.3659

                     76                     77                     78
                      A                      A                      A
 Frequencies --   3002.7211              3033.6098              3034.6308
 Red. masses --      1.0970                 1.0996                 1.0995
 Frc consts  --      5.8273                 5.9621                 5.9659
 IR Inten    --    170.0524                 0.0036                96.8022

                     79                     80                     81
                      A                      A                      A
 Frequencies --   3084.4233              3085.8932              3097.6296
 Red. masses --      1.0979                 1.0978                 1.0931
 Frc consts  --      6.1542                 6.1595                 6.1797
 IR Inten    --     86.5973                 8.5469                15.9298

                     82                     83                     84
                      A                      A                      A
 Frequencies --   3097.9441              3150.4318              3159.9121
 Red. masses --      1.0927                 1.0881                 1.0877
 Frc consts  --      6.1790                 6.3631                 6.3991
 IR Inten    --     34.7297                37.4855                27.7863

 - Thermochemistry -
 -------------------
 Temperature   298.150 Kelvin.  Pressure   1.00000 Atm.
 Atom     1 has atomic number  6 and mass  12.00000

 Molecular mass:   214.09938 amu.
 Principal axes and moments of inertia in atomic units:
                           1         2         3
     Eigenvalues --  1951.724884628.313606535.60710
           X            0.99706   0.07547  -0.01298
           Y           -0.07562   0.99707  -0.01166
           Z            0.01206   0.01261   0.99985
 This molecule is an asymmetric top.
 Rotational symmetry number  1.
 Warning -- assumption of classical behavior for rotation
           may cause significant error
 Rotational temperatures (Kelvin)      0.04438     0.01871     0.01325
 Rotational constants (GHZ):           0.92469     0.38993     0.27614
 Zero-point vibrational energy     623675.0 (Joules/Mol)
                                  149.06191 (Kcal/Mol)
 Warning -- explicit consideration of  24 degrees of freedom as
           vibrations may cause significant error
 Vibrational temperatures:    102.34   106.91   134.89   195.70   204.27
          (Kelvin)            216.89   232.61   259.53   267.43   352.60
                              359.61   412.35   455.64   468.05   498.15
                              509.39   515.96   590.17   601.03   657.63
                              679.08   730.29   805.81   829.36   931.51
                              967.25   980.46  1030.69  1066.60  1071.52
                             1146.31  1294.20  1299.54  1307.53  1328.38
                             1422.98  1466.53  1468.83  1482.91  1500.85
                             1512.52  1527.15  1557.64  1604.79  1606.94
                             1688.08  1739.29  1768.34  1776.52  1913.42
                             1917.03  1962.67  1982.93  1989.94  1995.85
                             2021.60  2026.04  2070.92  2101.59  2112.01
                             2122.22  2127.52  2127.75  2134.24  2134.63
                             2153.76  2160.64  2202.24  2263.40  2340.88
                             4277.75  4282.38  4313.14  4315.82  4316.29
                             4320.25  4364.69  4366.16  4437.80  4439.91
                             4456.80  4457.25  4532.77  4546.41

 Zero-point correction=                           0.237545 (Hartree/Particle)
 Thermal correction to Energy=                    0.252886
 Thermal correction to Enthalpy=                  0.253830
 Thermal correction to Gibbs Free Energy=         0.196110
 Sum of electronic and zero-point Energies=           -692.570768
 Sum of electronic and thermal Energies=              -692.555427
 Sum of electronic and thermal Enthalpies=            -692.554483
 Sum of electronic and thermal Free Energies=         -692.612203

                     E (Thermal)             CV                S
                      KCal/Mol        Cal/Mol-Kelvin    Cal/Mol-Kelvin
 Total                  158.688             58.916            121.481
 Electronic               0.000              0.000              0.000
 Translational            0.889              2.981             41.987
 Rotational               0.889              2.981             32.446
 Vibrational            156.911             52.954             47.048
 Vibration     1          0.598              1.968              4.122
 Vibration     2          0.599              1.966              4.036
 Vibration     3          0.603              1.954              3.580
 Vibration     4          0.614              1.917              2.859
 Vibration     5          0.615              1.911              2.777
 Vibration     6          0.618              1.902              2.663
 Vibration     7          0.622              1.889              2.530
 Vibration     8          0.629              1.866              2.324
 Vibration     9          0.632              1.859              2.269
 Vibration    10          0.660              1.771              1.766
 Vibration    11          0.663              1.763              1.731
 Vibration    12          0.684              1.699              1.494
 Vibration    13          0.704              1.642              1.327
 Vibration    14          0.709              1.625              1.283
 Vibration    15          0.724              1.583              1.183
 Vibration    16          0.730              1.567              1.148
 Vibration    17          0.733              1.558              1.128
 Vibration    18          0.774              1.448              0.926
 Vibration    19          0.781              1.432              0.900
 Vibration    20          0.815              1.345              0.775
 Vibration    21          0.829              1.312              0.732
 Vibration    22          0.863              1.233              0.639
 Vibration    23          0.916              1.118              0.524
 Vibration    24          0.933              1.082              0.492

 Optimization completed.
    -- Stationary point found.
 Normal termination of Gaussian 16 at Sun Feb 11 04:52:03 2024.
