 Gaussian 16, Revision A.03,
 Gaussian 16:  ES64L-G16RevA.03 25-Dec-2016

 ----------------------------------------------------------------------
 #P UB3LYP/6-311++G(d,p) nosym opt freq SCRF=(PCM,Solvent=n,n-DiMethylF
 ormamide)
 ----------------------------------------------------------------------

 -------
 Reduced
 -------
 Symbolic Z-matrix:
 Charge = -2 Multiplicity = 1

 SCF Done:  E(UB3LYP) =  -1985.28260347     A.U. after   16 cycles
 SCF Done:  E(UB3LYP) =  -1985.28466740     A.U. after   14 cycles
 SCF Done:  E(UB3LYP) =  -1985.28510517     A.U. after   13 cycles
 SCF Done:  E(UB3LYP) =  -1985.28549109     A.U. after   14 cycles
 SCF Done:  E(UB3LYP) =  -1985.28555905     A.U. after   14 cycles
 SCF Done:  E(UB3LYP) =  -1985.28563399     A.U. after   12 cycles
 SCF Done:  E(UB3LYP) =  -1985.28566223     A.U. after   12 cycles
 SCF Done:  E(UB3LYP) =  -1985.28568462     A.U. after   11 cycles
 SCF Done:  E(UB3LYP) =  -1985.28572565     A.U. after   12 cycles
 SCF Done:  E(UB3LYP) =  -1985.28573491     A.U. after   11 cycles
 SCF Done:  E(UB3LYP) =  -1985.28645061     A.U. after   11 cycles
 SCF Done:  E(UB3LYP) =  -1985.28645146     A.U. after    9 cycles
 SCF Done:  E(UB3LYP) =  -1985.28645192     A.U. after   10 cycles
 SCF Done:  E(UB3LYP) =  -1985.28645221     A.U. after   11 cycles
 SCF Done:  E(UB3LYP) =  -1985.28645268     A.U. after   10 cycles
 SCF Done:  E(UB3LYP) =  -1985.28645277     A.U. after   10 cycles
 SCF Done:  E(UB3LYP) =  -1985.28645280     A.U. after    9 cycles
 SCF Done:  E(UB3LYP) =  -1985.28645282     A.U. after    7 cycles
 SCF Done:  E(UB3LYP) =  -1985.28645283     A.U. after    8 cycles
 Optimization completed.
    -- Stationary point found.
 Normal termination of Gaussian 16 at Sat Feb 10 22:16:41 2024.

 ----------------------------------------------------------------------
 #P Geom=AllCheck Guess=TCheck SCRF=Check GenChk UB3LYP/6-311++G(d,p) F
 req
 ----------------------------------------------------------------------

 Structure from the checkpoint file:  "101-an.chk"
 -------
 Reduced
 -------
 Charge = -2 Multiplicity = 1

                          Input orientation:
 ---------------------------------------------------------------------
 Center     Atomic      Atomic             Coordinates (Angstroms)
 Number     Number       Type             X           Y           Z
 ---------------------------------------------------------------------
      1          6           0       -2.151799   -5.456370    0.809219
      2          6           0       -0.980053   -5.638020    0.030918
      3          6           0       -0.234440   -4.601498   -0.543898
      4          6           0       -0.684059   -3.242343   -0.457057
      5          6           0       -2.573318   -4.089949    0.942623
      6          6           0       -1.874839   -3.065384    0.294905
      7          8           0       -2.849664   -6.416375    1.356262
      8          8           0       -0.029992   -2.290519   -1.066994
      9          7           0       -3.794520   -3.922216    1.665058
     10          7           0        0.932365   -4.802596   -1.341459
     11          6           0       -3.816193   -3.241931    2.988758
     12          6           0       -2.452256   -2.985270    3.635325
     13          6           0       -4.696827   -1.973606    2.979883
     14          6           0        2.142631   -5.324317   -0.673697
     15          6           0        3.007352   -4.223112   -0.041970
     16          6           0        2.985412   -6.194984   -1.623115
     17          7           0       -5.541713   -1.882114    1.939865
     18          7           0        2.449407   -6.412730   -2.834511
     19          6           0        3.069312   -7.254200   -3.843719
     20          6           0       -6.436203   -0.757201    1.736435
     21          8           0       -4.676496   -1.162597    3.914794
     22          8           0        4.074951   -6.663066   -1.266963
     23         17           0       -0.468122   -7.331430   -0.251556
     24         17           0       -2.503669   -1.395450    0.394197
     25          1           0       -4.100036   -4.885004    1.807499
     26          1           0        1.131990   -3.869805   -1.710597
     27          1           0       -4.364738   -3.915953    3.660052
     28          1           0       -2.593261   -2.556822    4.628167
     29          1           0       -1.848259   -2.294953    3.045336
     30          1           0       -1.905021   -3.924899    3.734114
     31          1           0        1.823776   -6.006816    0.116637
     32          1           0        2.421390   -3.673685    0.697566
     33          1           0        3.352283   -3.515182   -0.802093
     34          1           0        3.882272   -4.650403    0.450532
     35          1           0       -5.352169   -2.541024    1.192247
     36          1           0        1.525218   -6.016921   -2.968454
     37          1           0        4.088456   -6.920684   -4.051379
     38          1           0        2.483824   -7.189596   -4.759969
     39          1           0        3.110569   -8.299756   -3.523877
     40          1           0       -7.112162   -0.989662    0.913991
     41          1           0       -5.887994    0.159394    1.493353
     42          1           0       -7.026318   -0.573154    2.636035
 ---------------------------------------------------------------------

 SCF Done:  E(UB3LYP) =  -1985.28645283     A.U. after    1 cycles

 Alpha  occ. eigenvalues -- -101.52870-101.52705 -19.08558 -19.08420 -19.02737
 Alpha  occ. eigenvalues --  -19.02589 -14.33104 -14.32579 -14.29561 -14.29407
 Alpha  occ. eigenvalues --  -10.26314 -10.26047 -10.20458 -10.20255 -10.19729
 Alpha  occ. eigenvalues --  -10.19524 -10.18730 -10.18648 -10.18384 -10.18366
 Alpha  occ. eigenvalues --  -10.17255 -10.17098 -10.15552 -10.15124  -9.44335
 Alpha  occ. eigenvalues --   -9.44188  -7.20727  -7.20579  -7.19870  -7.19809
 Alpha  occ. eigenvalues --   -7.19724  -7.19657  -1.03244  -1.03030  -0.95096
 Alpha  occ. eigenvalues --   -0.94321  -0.92191  -0.91862  -0.89628  -0.89077
 Alpha  occ. eigenvalues --   -0.83782  -0.82940  -0.77601  -0.75628  -0.73707
 Alpha  occ. eigenvalues --   -0.71005  -0.70826  -0.67156  -0.65346  -0.63113
 Alpha  occ. eigenvalues --   -0.61611  -0.57262  -0.56812  -0.55393  -0.54282
 Alpha  occ. eigenvalues --   -0.51864  -0.50245  -0.49679  -0.47423  -0.47077
 Alpha  occ. eigenvalues --   -0.46647  -0.45488  -0.44657  -0.44165  -0.43517
 Alpha  occ. eigenvalues --   -0.42439  -0.42163  -0.41367  -0.40995  -0.40258
 Alpha  occ. eigenvalues --   -0.39151  -0.39106  -0.38925  -0.38644  -0.38392
 Alpha  occ. eigenvalues --   -0.37622  -0.36988  -0.36649  -0.36199  -0.35955
 Alpha  occ. eigenvalues --   -0.34920  -0.34161  -0.33856  -0.33204  -0.32267
 Alpha  occ. eigenvalues --   -0.30564  -0.29574  -0.29305  -0.27938  -0.27739
 Alpha  occ. eigenvalues --   -0.25844  -0.25421  -0.24704  -0.24406  -0.21661
 Alpha  occ. eigenvalues --   -0.21501  -0.20909  -0.18753  -0.12582
 Alpha virt. eigenvalues --   -0.00843  -0.00150   0.00744   0.00873   0.01384
 Alpha virt. eigenvalues --    0.01758   0.01821   0.02219   0.02509   0.02877
 Alpha virt. eigenvalues --    0.02979   0.03372   0.03958   0.04177   0.04316

  Beta  occ. eigenvalues -- -101.52870-101.52705 -19.08558 -19.08420 -19.02737
  Beta  occ. eigenvalues --  -19.02589 -14.33104 -14.32579 -14.29561 -14.29407
  Beta  occ. eigenvalues --  -10.26314 -10.26047 -10.20458 -10.20255 -10.19729
  Beta  occ. eigenvalues --  -10.19524 -10.18730 -10.18648 -10.18384 -10.18366
  Beta  occ. eigenvalues --  -10.17255 -10.17098 -10.15552 -10.15124  -9.44335
  Beta  occ. eigenvalues --   -9.44188  -7.20727  -7.20579  -7.19870  -7.19809
  Beta  occ. eigenvalues --   -7.19724  -7.19657  -1.03244  -1.03030  -0.95096
  Beta  occ. eigenvalues --   -0.94321  -0.92191  -0.91862  -0.89628  -0.89077
  Beta  occ. eigenvalues --   -0.83782  -0.82940  -0.77601  -0.75628  -0.73707
  Beta  occ. eigenvalues --   -0.71005  -0.70826  -0.67156  -0.65346  -0.63113
  Beta  occ. eigenvalues --   -0.61611  -0.57262  -0.56812  -0.55393  -0.54282
  Beta  occ. eigenvalues --   -0.51864  -0.50245  -0.49679  -0.47423  -0.47077
  Beta  occ. eigenvalues --   -0.46647  -0.45488  -0.44657  -0.44165  -0.43517
  Beta  occ. eigenvalues --   -0.42439  -0.42163  -0.41367  -0.40995  -0.40258
  Beta  occ. eigenvalues --   -0.39151  -0.39106  -0.38925  -0.38644  -0.38392
  Beta  occ. eigenvalues --   -0.37622  -0.36988  -0.36649  -0.36199  -0.35955
  Beta  occ. eigenvalues --   -0.34920  -0.34161  -0.33856  -0.33204  -0.32267
  Beta  occ. eigenvalues --   -0.30564  -0.29574  -0.29305  -0.27938  -0.27739
  Beta  occ. eigenvalues --   -0.25844  -0.25421  -0.24704  -0.24406  -0.21661
  Beta  occ. eigenvalues --   -0.21501  -0.20909  -0.18753  -0.12582
  Beta virt. eigenvalues --   -0.00843  -0.00150   0.00744   0.00873   0.01384
  Beta virt. eigenvalues --    0.01758   0.01821   0.02219   0.02509   0.02877
  Beta virt. eigenvalues --    0.02979   0.03372   0.03958   0.04177   0.04316

 Mulliken charges and spin densities:
               1          2
     1  C   -0.738494   0.000000
     2  C    0.213014  -0.000000
     3  C   -0.219279  -0.000000
     4  C   -0.650013  -0.000000
     5  C   -0.298267   0.000000
     6  C    0.048552   0.000000
     7  O   -0.633216   0.000000
     8  O   -0.633024   0.000000
     9  N   -0.122600  -0.000000
    10  N    0.078413  -0.000000
    11  C    0.386180   0.000000
    12  C   -0.593606  -0.000000
    13  C   -0.439575  -0.000000
    14  C    0.121576   0.000000
    15  C   -0.612184  -0.000000
    16  C   -0.197169  -0.000000
    17  N   -0.165072  -0.000000
    18  N   -0.246229   0.000000
    19  C   -0.304838  -0.000000
    20  C   -0.335934  -0.000000
    21  O   -0.459094   0.000000
    22  O   -0.472450   0.000000
    23  Cl   0.296627  -0.000000
    24  Cl   0.399994  -0.000000
    25  H    0.268760   0.000000
    26  H    0.252553   0.000000
    27  H    0.215890   0.000000
    28  H    0.170246  -0.000000
    29  H    0.129727  -0.000000
    30  H    0.166207   0.000000
    31  H    0.137914   0.000000
    32  H    0.178042   0.000000
    33  H    0.163567   0.000000
    34  H    0.159251  -0.000000
    35  H    0.358344   0.000000
    36  H    0.357249   0.000000
    37  H    0.178292   0.000000
    38  H    0.156021   0.000000
    39  H    0.182674   0.000000
    40  H    0.155458   0.000000
    41  H    0.180756  -0.000000
    42  H    0.165740   0.000000
 Sum of Mulliken charges =  -2.00000  -0.00000

 Dipole moment (field-independent basis, Debye):
    X=              9.6957    Y=             40.5058    Z=             -6.7622  Tot=             42.1954
 Quadrupole moment (field-independent basis, Debye-Ang):
   XX=           -227.8124   YY=           -403.3403   ZZ=           -188.2473
   XY=            -27.8933   XZ=             35.6881   YZ=             24.3917

  Exact polarizability: 381.483 -37.897 398.012 -56.820  12.967 326.695
 Approx polarizability: 398.665 -19.474 428.556 -51.814  -0.728 353.738

                      1                      2                      3
                      A                      A                      A
 Frequencies --     21.0406                24.3506                30.8131
 Red. masses --      5.3534                 5.6036                 6.0165
 Frc consts  --      0.0014                 0.0020                 0.0034
 IR Inten    --      0.8137                 1.7421                 2.4569

                      4                      5                      6
                      A                      A                      A
 Frequencies --     43.7771                50.9325                58.9266
 Red. masses --      4.7536                 5.1743                 4.3075
 Frc consts  --      0.0054                 0.0079                 0.0088
 IR Inten    --      1.2905                 4.8528                20.2791

                      7                      8                      9
                      A                      A                      A
 Frequencies --     71.4946                72.6108                80.9603
 Red. masses --      2.9081                 1.3751                 1.0836
 Frc consts  --      0.0088                 0.0043                 0.0042
 IR Inten    --      3.0774                 0.8014                 0.6459

                     10                     11                     12
                      A                      A                      A
 Frequencies --     97.8812               103.8374               134.4110
 Red. masses --      4.8140                 6.1448                 5.1094
 Frc consts  --      0.0272                 0.0390                 0.0544
 IR Inten    --      9.5487                 7.9396                 4.3360

                     13                     14                     15
                      A                      A                      A
 Frequencies --    137.0897               140.6709               151.0322
 Red. masses --      5.7783                 6.6689                 3.8319
 Frc consts  --      0.0640                 0.0778                 0.0515
 IR Inten    --     22.3102                20.0248                 6.6569

                     16                     17                     18
                      A                      A                      A
 Frequencies --    162.3295               175.1401               212.0874
 Red. masses --      3.5947                 5.5528                 2.2467
 Frc consts  --      0.0558                 0.1004                 0.0595
 IR Inten    --      4.3449                14.8255                 3.8321

                     19                     20                     21
                      A                      A                      A
 Frequencies --    213.5074               222.8054               233.8550
 Red. masses --      2.8479                 2.5443                 5.1590
 Frc consts  --      0.0765                 0.0744                 0.1662
 IR Inten    --      6.1432                 0.4758                 4.0797

                     22                     23                     24
                      A                      A                      A
 Frequencies --    252.8190               258.8059               274.1355
 Red. masses --      1.1840                 3.3587                 5.1125
 Frc consts  --      0.0446                 0.1325                 0.2264
 IR Inten    --      1.2719                 3.3010                 6.0237

                     25                     26                     27
                      A                      A                      A
 Frequencies --    306.2995               309.4001               311.2020
 Red. masses --      3.9150                 4.2874                 8.9145
 Frc consts  --      0.2164                 0.2418                 0.5087
 IR Inten    --     13.6745                15.7865                 5.1034

                     28                     29                     30
                      A                      A                      A
 Frequencies --    326.6979               340.3282               352.8692
 Red. masses --      5.0109                11.2475                 6.5738
 Frc consts  --      0.3151                 0.7675                 0.4823
 IR Inten    --     20.3112                 4.8109                 8.2370

                     31                     32                     33
                      A                      A                      A
 Frequencies --    357.7961               378.6879               408.3151
 Red. masses --      6.9403                 4.8449                 6.9089
 Frc consts  --      0.5235                 0.4094                 0.6787
 IR Inten    --      0.0079                 3.6734                19.1819

                     34                     35                     36
                      A                      A                      A
 Frequencies --    425.6524               455.3485               501.8907
 Red. masses --      3.1563                 5.0141                11.2285
 Frc consts  --      0.3369                 0.6125                 1.6664
 IR Inten    --      8.9307                26.1131                 7.1332

                     37                     38                     39
                      A                      A                      A
 Frequencies --    523.4479               544.4474               558.5115
 Red. masses --      4.8371                 7.4197                 4.4013
 Frc consts  --      0.7809                 1.2958                 0.8089
 IR Inten    --     41.7282                12.5469                23.8863

                     40                     41                     42
                      A                      A                      A
 Frequencies --    572.6282               615.6429               630.9724
 Red. masses --      5.6510                 4.1685                 2.5574
 Frc consts  --      1.0917                 0.9309                 0.5999
 IR Inten    --     14.2893                 4.0912                60.9022

                     43                     44                     45
                      A                      A                      A
 Frequencies --    653.3852               655.0944               726.7292
 Red. masses --      1.5363                 1.2972                 5.9787
 Frc consts  --      0.3864                 0.3280                 1.8604
 IR Inten    --     73.6066                83.8899                20.1441

                     46                     47                     48
                      A                      A                      A
 Frequencies --    737.3267               746.2559               755.0113
 Red. masses --      5.6140                 4.9580                 4.6358
 Frc consts  --      1.7982                 1.6268                 1.5570
 IR Inten    --     70.5565                38.0230                87.9805

                     49                     50                     51
                      A                      A                      A
 Frequencies --    761.4269               775.6563               823.6810
 Red. masses --      5.5583                 4.2453                 2.9652
 Frc consts  --      1.8987                 1.5049                 1.1853
 IR Inten    --     17.6355               143.4439               121.4534

                     52                     53                     54
                      A                      A                      A
 Frequencies --    838.4810               859.3324               871.7496
 Red. masses --      2.6359                 2.6083                 2.9547
 Frc consts  --      1.0918                 1.1348                 1.3230
 IR Inten    --     86.3145                60.3101                73.3401

                     55                     56                     57
                      A                      A                      A
 Frequencies --    904.1039               944.6253               959.4575
 Red. masses --      3.6696                 1.6204                 1.7025
 Frc consts  --      1.7673                 0.8519                 0.9234
 IR Inten    --     27.4213                76.4082               134.6520

                     58                     59                     60
                      A                      A                      A
 Frequencies --   1001.7111              1013.2475              1028.0853
 Red. masses --      2.3359                 2.3065                 3.2394
 Frc consts  --      1.3810                 1.3952                 2.0173
 IR Inten    --    152.6152                 9.1327               101.3083

                     61                     62                     63
                      A                      A                      A
 Frequencies --   1083.3013              1097.0099              1109.8185
 Red. masses --      2.6085                 2.3125                 3.7447
 Frc consts  --      1.8036                 1.6397                 2.7175
 IR Inten    --     57.7559                69.4370                 8.9018

                     64                     65                     66
                      A                      A                      A
 Frequencies --   1120.4355              1137.3336              1142.5343
 Red. masses --      2.6664                 3.3845                 1.3156
 Frc consts  --      1.9722                 2.5794                 1.0118
 IR Inten    --    143.9878               199.7883                17.7868

                     67                     68                     69
                      A                      A                      A
 Frequencies --   1145.5276              1156.3779              1158.5517
 Red. masses --      1.3010                 2.7547                 5.3637
 Frc consts  --      1.0059                 2.1703                 4.2417
 IR Inten    --     11.1368               141.7390               539.2212

                     70                     71                     72
                      A                      A                      A
 Frequencies --   1171.8259              1185.4287              1190.3533
 Red. masses --      2.9439                 1.8668                 2.0954
 Frc consts  --      2.3817                 1.5456                 1.7494
 IR Inten    --     15.6839                 2.2710                14.9436

                     73                     74                     75
                      A                      A                      A
 Frequencies --   1211.2564              1255.3716              1257.3126
 Red. masses --      4.2110                 1.8251                 1.7601
 Frc consts  --      3.6401                 1.6946                 1.6394
 IR Inten    --     52.9384                22.5103                24.5812

                     76                     77                     78
                      A                      A                      A
 Frequencies --   1310.8878              1320.0798              1342.1811
 Red. masses --      1.3799                 1.4225                 1.4332
 Frc consts  --      1.3971                 1.4605                 1.5212
 IR Inten    --     10.4922                20.5248                28.6294

                     79                     80                     81
                      A                      A                      A
 Frequencies --   1347.3187              1389.3024              1390.5284
 Red. masses --      1.3511                 1.2485                 1.2702
 Frc consts  --      1.4450                 1.4198                 1.4471
 IR Inten    --     56.5122                35.4729                16.2722

                     82                     83                     84
                      A                      A                      A
 Frequencies --   1393.0763              1402.2224              1421.8807
 Red. masses --      4.0818                 9.2404                 3.6495
 Frc consts  --      4.6672                10.7048                 4.3471
 IR Inten    --     44.0439              1642.4832                44.7328

                     85                     86                     87
                      A                      A                      A
 Frequencies --   1440.8944              1442.7977              1451.7321
 Red. masses --      1.3122                 1.2551                 3.8251
 Frc consts  --      1.6052                 1.5393                 4.7497
 IR Inten    --     51.3345               100.7127                92.3918

                     88                     89                     90
                      A                      A                      A
 Frequencies --   1473.2643              1474.1698              1478.3359
 Red. masses --      1.0441                 1.0541                 1.0464
 Frc consts  --      1.3352                 1.3496                 1.3474
 IR Inten    --     17.4594                26.5068                10.1527

                     91                     92                     93
                      A                      A                      A
 Frequencies --   1483.5216              1486.2210              1490.1107
 Red. masses --      1.0540                 1.0594                 1.0745
 Frc consts  --      1.3667                 1.3787                 1.4057
 IR Inten    --      9.8762                 3.3530                 0.7705

                     94                     95                     96
                      A                      A                      A
 Frequencies --   1498.2840              1499.9612              1529.3665
 Red. masses --      1.0728                 1.0665                 1.4365
 Frc consts  --      1.4189                 1.4137                 1.9796
 IR Inten    --      6.8575                 4.8771               146.2801

                     97                     98                     99
                      A                      A                      A
 Frequencies --   1550.4121              1552.2735              1554.8625
 Red. masses --      1.8200                 2.1632                 1.7029
 Frc consts  --      2.5776                 3.0710                 2.4256
 IR Inten    --    149.0321               441.9136               346.2666

                    100                    101                    102
                      A                      A                      A
 Frequencies --   1606.9416              1662.0597              1664.2836
 Red. masses --      5.1892                 8.7226                 8.8269
 Frc consts  --      7.8949                14.1967                14.4050
 IR Inten    --     13.4866               615.4384               699.0689

                    103                    104                    105
                      A                      A                      A
 Frequencies --   2997.0444              3018.1484              3026.5971
 Red. masses --      1.0832                 1.0438                 1.0383
 Frc consts  --      5.7323                 5.6021                 5.6036
 IR Inten    --     58.4355                83.3120                60.5611

                    106                    107                    108
                      A                      A                      A
 Frequencies --   3027.3998              3047.6479              3074.9519
 Red. masses --      1.0383                 1.0351                 1.0838
 Frc consts  --      5.6066                 5.6643                 6.0376
 IR Inten    --     52.9246                29.7424                 9.4594

                    109                    110                    111
                      A                      A                      A
 Frequencies --   3081.1553              3082.2868              3097.2064
 Red. masses --      1.1005                 1.0927                 1.0968
 Frc consts  --      6.1558                 6.1162                 6.1990
 IR Inten    --     41.2970                45.2149                44.4937

                    112                    113                    114
                      A                      A                      A
 Frequencies --   3114.1057              3114.4666              3124.6411
 Red. masses --      1.1025                 1.1018                 1.1022
 Frc consts  --      6.2994                 6.2967                 6.3404
 IR Inten    --     38.9915                29.2360                33.7950

                    115                    116                    117
                      A                      A                      A
 Frequencies --   3126.4830              3131.7231              3401.6619
 Red. masses --      1.1028                 1.1013                 1.0717
 Frc consts  --      6.3511                 6.3639                 7.3065
 IR Inten    --     25.5080                23.6720               111.1078

                    118                    119                    120
                      A                      A                      A
 Frequencies --   3427.1367              3527.9204              3530.5105
 Red. masses --      1.0724                 1.0774                 1.0778
 Frc consts  --      7.4210                 7.9008                 7.9154
 IR Inten    --    148.5492               292.7118               266.2244

 - Thermochemistry -
 -------------------
 Temperature   298.150 Kelvin.  Pressure   1.00000 Atm.
 Atom     1 has atomic number  6 and mass  12.00000

 Molecular mass:   376.07051 amu.
 Principal axes and moments of inertia in atomic units:
                           1         2         3
     Eigenvalues --  3855.78634********************
           X            0.75647   0.37947   0.53269
           Y           -0.47811   0.87661   0.05448
           Z           -0.44628  -0.29590   0.84456
 This molecule is an asymmetric top.
 Rotational symmetry number  1.
 Warning -- assumption of classical behavior for rotation
           may cause significant error
 Rotational temperatures (Kelvin)      0.02246     0.00454     0.00421
 Rotational constants (GHZ):           0.46806     0.09459     0.08777
 Zero-point vibrational energy     838769.5 (Joules/Mol)
                                  200.47072 (Kcal/Mol)
 Warning -- explicit consideration of  41 degrees of freedom as
           vibrations may cause significant error
 Vibrational temperatures:     30.27    35.04    44.33    62.99    73.28
          (Kelvin)             84.78   102.86   104.47   116.48   140.83
                              149.40   193.39   197.24   202.39   217.30
                              233.56   251.99   305.15   307.19   320.57
                              336.47   363.75   372.36   394.42   440.70
                              445.16   447.75   470.05   489.66   507.70
                              514.79   544.85   587.47   612.42   655.14
                              722.11   753.12   783.34   803.57   823.88
                              885.77   907.83   940.08   942.53  1045.60
                             1060.85  1073.70  1086.29  1095.52  1116.00
                             1185.09  1206.39  1236.39  1254.25  1300.80
                             1359.11  1380.45  1441.24  1457.84  1479.19
                             1558.63  1578.35  1596.78  1612.06  1636.37
                             1643.85  1648.16  1663.77  1666.90  1686.00
                             1705.57  1712.65  1742.73  1806.20  1808.99
                             1886.08  1899.30  1931.10  1938.49  1998.90
                             2000.66  2004.33  2017.49  2045.77  2073.13
                             2075.86  2088.72  2119.70  2121.00  2127.00
                             2134.46  2138.34  2143.94  2155.70  2158.11
                             2200.42  2230.70  2233.38  2237.10  2312.03
                             2391.33  2394.53  4312.08  4342.44  4354.60
                             4355.75  4384.89  4424.17  4433.10  4434.72
                             4456.19  4480.50  4481.02  4495.66  4498.31
                             4505.85  4894.23  4930.89  5075.89  5079.62

 Zero-point correction=                           0.319470 (Hartree/Particle)
 Thermal correction to Energy=                    0.345620
 Thermal correction to Enthalpy=                  0.346565
 Thermal correction to Gibbs Free Energy=         0.260616
 Sum of electronic and zero-point Energies=          -1984.966982
 Sum of electronic and thermal Energies=             -1984.940832
 Sum of electronic and thermal Enthalpies=           -1984.939888
 Sum of electronic and thermal Free Energies=        -1985.025837

                     E (Thermal)             CV                S
                      KCal/Mol        Cal/Mol-Kelvin    Cal/Mol-Kelvin
 Total                  216.880             93.207            180.893
 Electronic               0.000              0.000              0.000
 Translational            0.889              2.981             43.666
 Rotational               0.889              2.981             35.668
 Vibrational            215.103             87.245            101.559
 Vibration     1          0.593              1.985              6.533
 Vibration     2          0.593              1.985              6.243
 Vibration     3          0.594              1.984              5.776
 Vibration     4          0.595              1.980              5.080
 Vibration     5          0.595              1.977              4.781
 Vibration     6          0.596              1.974              4.493
 Vibration     7          0.598              1.968              4.112
 Vibration     8          0.599              1.967              4.081
 Vibration     9          0.600              1.962              3.867
 Vibration    10          0.603              1.951              3.496
 Vibration    11          0.605              1.946              3.381
 Vibration    12          0.613              1.919              2.882
 Vibration    13          0.614              1.916              2.844
 Vibration    14          0.615              1.913              2.795
 Vibration    15          0.618              1.902              2.659
 Vibration    16          0.622              1.889              2.522
 Vibration    17          0.627              1.873              2.380
 Vibration    18          0.643              1.822              2.026
 Vibration    19          0.644              1.820              2.013
 Vibration    20          0.648              1.806              1.936
 Vibration    21          0.654              1.789              1.849
 Vibration    22          0.664              1.758              1.711
 Vibration    23          0.668              1.748              1.670
 Vibration    24          0.676              1.721              1.570
 Vibration    25          0.697              1.662              1.382
 Vibration    26          0.699              1.656              1.366
 Vibration    27          0.700              1.652              1.356
 Vibration    28          0.710              1.622              1.276
 Vibration    29          0.720              1.595              1.211
 Vibration    30          0.729              1.569              1.153
 Vibration    31          0.733              1.559              1.132
 Vibration    32          0.749              1.516              1.044
 Vibration    33          0.773              1.452              0.933
 Vibration    34          0.787              1.414              0.873
 Vibration    35          0.814              1.349              0.780
 Vibration    36          0.857              1.246              0.653
 Vibration    37          0.878              1.198              0.602
 Vibration    38          0.900              1.152              0.556
 Vibration    39          0.914              1.121              0.527
 Vibration    40          0.929              1.090              0.499
 Vibration    41          0.975              0.999              0.424

                           ! Non-Optimized Parameters !
 Normal termination of Gaussian 16 at Sun Feb 11 02:41:38 2024.
