 Q-Chem 5.4, Q-Chem, Inc., Pleasanton, CA (2021)
 Q-Chem 5.4.0 for Intel X86 EM64T Linux

User input:
--------------------------------------------------------------
$molecule
-2 1
C                  2.8974570000      0.2627530000     -0.0818090000
C                  1.3957590000      0.1340250000     -0.0438020000
C                  0.7859610000     -0.9687950000      0.5757820000
C                 -0.6242900000     -1.1765340000      0.6616190000
O                 -1.1771340000     -2.2108890000      1.2431810000
C                 -1.3957580000     -0.1340400000      0.0438090000
C                 -0.7859530000      0.9687940000     -0.5757820000
C                  0.6242840000      1.1765350000     -0.6616200000
O                  1.1771470000      2.2108790000     -1.2431730000
C                 -2.8974550000     -0.2627480000      0.0818050000
H                  3.3800720000     -0.5880400000      0.4188810000
H                  3.2374120000      1.1933330000      0.4001050000
H                  3.2737980000      0.3220300000     -1.1155600000
H                  1.4164750000     -1.7365670000      1.0322850000
H                 -1.4164850000      1.7365500000     -1.0322880000
H                 -3.2738230000     -0.3219680000      1.1155540000
H                 -3.3800470000      0.5880310000     -0.4189290000
H                 -3.2374230000     -1.1933490000     -0.4000600000
$end

$rem
BASIS  =  6-311++G(d,p)
GUI  =  2
JOB_TYPE  =  SP
METHOD  =  B3LYP
SCF_CONVERGENCE  = 8
SOLVENT_METHOD = sm12
$end

$smx
solvent dimethylformamide
charges CM5
$end

--------------------------------------------------------------

             Standard Nuclear Orientation (Angstroms)
    I     Atom           X                Y                Z
 ----------------------------------------------------------------
    1      C       2.8974570000     0.2627530000    -0.0818090000
    2      C       1.3957590000     0.1340250000    -0.0438020000
    3      C       0.7859610000    -0.9687950000     0.5757820000
    4      C      -0.6242900000    -1.1765340000     0.6616190000
    5      O      -1.1771340000    -2.2108890000     1.2431810000
    6      C      -1.3957580000    -0.1340400000     0.0438090000
    7      C      -0.7859530000     0.9687940000    -0.5757820000
    8      C       0.6242840000     1.1765350000    -0.6616200000
    9      O       1.1771470000     2.2108790000    -1.2431730000
   10      C      -2.8974550000    -0.2627480000     0.0818050000
   11      H       3.3800720000    -0.5880400000     0.4188810000
   12      H       3.2374120000     1.1933330000     0.4001050000
   13      H       3.2737980000     0.3220300000    -1.1155600000
   14      H       1.4164750000    -1.7365670000     1.0322850000
   15      H      -1.4164850000     1.7365500000    -1.0322880000
   16      H      -3.2738230000    -0.3219680000     1.1155540000
   17      H      -3.3800470000     0.5880310000    -0.4189290000
   18      H      -3.2374230000    -1.1933490000    -0.4000600000
 ----------------------------------------------------------------

   16    -460.1793175519      5.41e-09  Convergence criterion met
 Total energy in the final basis set =     -460.4886457424

                    Orbital Energies (a.u.)
 --------------------------------------------------------------

 Alpha MOs
 -- Occupied --
-19.0256 -19.0256 -10.1833 -10.1833 -10.1753 -10.1753 -10.1526 -10.1525
-10.1457 -10.1457  -0.9327  -0.9292  -0.8049  -0.7689  -0.7124  -0.6791
 -0.6308  -0.5762  -0.5259  -0.4675  -0.4391  -0.4255  -0.4231  -0.4156
 -0.4025  -0.3890  -0.3695  -0.3600  -0.3493  -0.3350  -0.3287  -0.3130
 -0.2312  -0.2291  -0.2010  -0.2001  -0.1307

          Ground-State Mulliken Net Atomic Charges

     Atom                 Charge (a.u.)
  ----------------------------------------
      1 C                     1.133306
      2 C                     0.627573
      3 C                    -1.629116
      4 C                    -1.319387
      5 O                    -0.374430
      6 C                     0.627524
      7 C                    -1.629144
      8 C                    -1.319203
      9 O                    -0.374420
     10 C                     1.133226
     11 H                     0.306988
     12 H                     0.183831
     13 H                     0.184255
     14 H                    -0.113022
     15 H                    -0.113040
     16 H                     0.184245
     17 H                     0.306983
     18 H                     0.183831
  ----------------------------------------
  Sum of atomic charges =    -2.000000

                    Cartesian Multipole Moments
 -----------------------------------------------------------------
    Charge (ESU x 10^10)
                -9.6064
    Dipole Moment (Debye)
         X       0.0002      Y       0.0001      Z      -0.0001
       Tot       0.0002
    Quadrupole Moments (Debye-Ang)
        XX     -91.5972     XY     -17.7530     YY    -109.9986
        XZ       9.7241     YZ      21.6007     ZZ     -83.8931

 Total job time:  184.72s(wall), 1333.90s(cpu)
        *  Thank you very much for using Q-Chem.  Have a nice day.  *
