 Q-Chem 5.4, Q-Chem, Inc., Pleasanton, CA (2021)
 Q-Chem 5.4.0 for Intel X86 EM64T Linux

User input:
--------------------------------------------------------------
$molecule
-1 2
Cl                 3.1035050000     -0.1642730000      0.0315950000
C                  1.3296980000     -0.0670540000      0.0135600000
C                  0.7337260000      1.1633320000      0.0115730000
C                 -0.7083690000      1.3150440000     -0.0028640000
O                 -1.2638440000      2.4495210000     -0.0047560000
C                 -1.4566820000      0.0743210000     -0.0148500000
C                 -0.8430100000     -1.1476340000     -0.0126450000
C                  0.5978160000     -1.3260750000      0.0016850000
O                  1.1417250000     -2.4589500000      0.0034680000
H                  1.3274710000      2.0701250000      0.0208150000
H                 -2.5399580000      0.1583170000     -0.0258010000
H                 -1.4220790000     -2.0666720000     -0.0217810000
$end

$rem
BASIS  =  6-311++G(d,p)
GUI  =  2
JOB_TYPE  =  SP
METHOD  =  B3LYP
SCF_CONVERGENCE  = 8
SOLVENT_METHOD = sm12
$end

$smx
solvent dimethylformamide
charges CM5
$end

--------------------------------------------------------------

             Standard Nuclear Orientation (Angstroms)
    I     Atom           X                Y                Z
 ----------------------------------------------------------------
    1      Cl      3.1035050000    -0.1642730000     0.0315950000
    2      C       1.3296980000    -0.0670540000     0.0135600000
    3      C       0.7337260000     1.1633320000     0.0115730000
    4      C      -0.7083690000     1.3150440000    -0.0028640000
    5      O      -1.2638440000     2.4495210000    -0.0047560000
    6      C      -1.4566820000     0.0743210000    -0.0148500000
    7      C      -0.8430100000    -1.1476340000    -0.0126450000
    8      C       0.5978160000    -1.3260750000     0.0016850000
    9      O       1.1417250000    -2.4589500000     0.0034680000
   10      H       1.3274710000     2.0701250000     0.0208150000
   11      H      -2.5399580000     0.1583170000    -0.0258010000
   12      H      -1.4220790000    -2.0666720000    -0.0217810000
 ----------------------------------------------------------------

   18    -841.2713250009      5.27e-09  Convergence criterion met
 Total energy in the final basis set =     -841.3527407612

                    Orbital Energies (a.u.)
 --------------------------------------------------------------

 Alpha MOs
 -- Occupied --
******** -19.0853 -19.0840 -10.2346 -10.2313 -10.2307 -10.1800 -10.1797
-10.1775  -9.4635  -7.2277  -7.2188  -7.2181  -1.0097  -1.0038  -0.8722
 -0.8193  -0.7441  -0.6920  -0.6113  -0.5761  -0.4905  -0.4807  -0.4562
 -0.4308  -0.4245  -0.4117  -0.3896  -0.3839  -0.3750  -0.3451  -0.3103
 -0.2890  -0.2619  -0.2499  -0.2461  -0.1723

 Beta MOs
 -- Occupied --
******** -19.0777 -19.0764 -10.2336 -10.2300 -10.2298 -10.1789 -10.1787
-10.1763  -9.4635  -7.2277  -7.2187  -7.2181  -0.9969  -0.9907  -0.8692
 -0.8147  -0.7413  -0.6817  -0.6070  -0.5721  -0.4884  -0.4762  -0.4532
 -0.4298  -0.4077  -0.4042  -0.3843  -0.3729  -0.3568  -0.3349  -0.3099
 -0.2595  -0.2497  -0.2428  -0.2391

          Ground-State Mulliken Net Atomic Charges

     Atom                 Charge (a.u.)    Spin (a.u.)
  --------------------------------------------------------
      1 Cl                    0.458130       0.005271
      2 C                     1.303631       0.089122
      3 C                    -0.497289       0.068967
      4 C                    -1.117734       0.086446
      5 O                    -0.389427       0.266608
      6 C                     0.131604       0.088489
      7 C                     0.076308       0.086339
      8 C                    -1.286938       0.055972
      9 O                    -0.336319       0.273345
     10 H                     0.190951      -0.007267
     11 H                     0.232517      -0.006804
     12 H                     0.234565      -0.006487
  --------------------------------------------------------
  Sum of atomic charges =    -1.000000

                    Cartesian Multipole Moments
 -----------------------------------------------------------------
    Charge (ESU x 10^10)
                -4.8032
    Dipole Moment (Debye)
         X      -1.8535      Y      -0.1638      Z      -0.0198
       Tot       1.8608
    Quadrupole Moments (Debye-Ang)
        XX     -74.8812     XY      15.6374     YY     -90.3716
        XZ      -0.0725     YZ       0.0679     ZZ     -62.7095

 Total job time:  125.72s(wall), 818.22s(cpu)
        *  Thank you very much for using Q-Chem.  Have a nice day.  *
