 Gaussian 16, Revision A.03,
 Gaussian 16:  ES64L-G16RevA.03 25-Dec-2016

 ----------------------------------------------------------------
 #P UB3LYP/6-311++G(d,p) SCRF=(PCM,Solvent=n,n-DiMethylFormamide)
 ----------------------------------------------------------------

 -------
 Reduced
 -------
 Symbolic Z-matrix:
 Charge = -2 Multiplicity = 1

                         Standard orientation:
 ---------------------------------------------------------------------
 Center     Atomic      Atomic             Coordinates (Angstroms)
 Number     Number       Type             X           Y           Z
 ---------------------------------------------------------------------
      1          6           0       -3.627610    0.772505    0.028351
      2          6           0       -4.558851   -0.247581    0.064959
      3          6           0       -4.128693   -1.601617    0.055556
      4          6           0       -2.233627    0.516781   -0.016506
      5          6           0       -1.799285   -0.862992   -0.015872
      6          6           0       -2.774103   -1.883769    0.015001
      7          6           0       -1.298264    1.613225   -0.074452
      8          6           0        0.093479    1.260370   -0.128079
      9          6           0        0.511111   -0.079786   -0.050719
     10          6           0       -0.395420   -1.194690   -0.041156
     11          8           0       -1.655610    2.856211   -0.093046
     12          8           0        0.059205   -2.405304   -0.070998
     13          7           0        0.978263    2.330226   -0.317948
     14          1           0       -3.931322    1.814726    0.028889
     15          1           0       -5.622017   -0.015191    0.098966
     16          1           0       -4.858087   -2.408661    0.082053
     17          1           0       -2.412878   -2.907699    0.009238
     18          1           0        0.467642    3.189539   -0.128193
     19          1           0        1.857700    2.229781    0.182617
     20          7           0        1.853645   -0.548927   -0.115319
     21          1           0        1.785619   -1.558771   -0.288789
     22          6           0        3.033249   -0.086554    0.344832
     23          6           0        4.193906   -1.076621    0.215787
     24          6           0        5.371305   -0.505110   -0.584763
     25          8           0        3.242476    1.027976    0.854616
     26          1           0        3.857855   -2.019486   -0.226654
     27          1           0        4.534460   -1.298274    1.236252
     28          1           0        5.085224   -0.321490   -1.625709
     29          1           0        6.224600   -1.193711   -0.586472
     30          1           0        5.696091    0.444098   -0.151547
 ---------------------------------------------------------------------

 SCF Done:  E(UB3LYP) =  -838.307485851     A.U. after   19 cycles

 The electronic state is 1-A.
 Alpha  occ. eigenvalues --  -19.08209 -19.02811 -19.01607 -14.32761 -14.27385
 Alpha  occ. eigenvalues --  -10.26258 -10.17533 -10.17048 -10.16533 -10.16372
 Alpha  occ. eigenvalues --  -10.16182 -10.15839 -10.14684 -10.14537 -10.14459
 Alpha  occ. eigenvalues --  -10.14261 -10.13405 -10.13366  -1.02570  -0.95450
 Alpha  occ. eigenvalues --   -0.93628  -0.90694  -0.86442  -0.82253  -0.77171
 Alpha  occ. eigenvalues --   -0.75196  -0.72086  -0.70098  -0.65354  -0.62860
 Alpha  occ. eigenvalues --   -0.59830  -0.58336  -0.55141  -0.53111  -0.50559
 Alpha  occ. eigenvalues --   -0.48758  -0.47667  -0.46881  -0.44591  -0.43751
 Alpha  occ. eigenvalues --   -0.42412  -0.41688  -0.40676  -0.40364  -0.39448
 Alpha  occ. eigenvalues --   -0.38864  -0.37627  -0.36659  -0.36319  -0.35681
 Alpha  occ. eigenvalues --   -0.34648  -0.34259  -0.33287  -0.32426  -0.32234
 Alpha  occ. eigenvalues --   -0.30356  -0.28273  -0.27141  -0.25496  -0.22815
 Alpha  occ. eigenvalues --   -0.22240  -0.21339  -0.19896  -0.17665  -0.10686
 Alpha virt. eigenvalues --   -0.01011  -0.00149   0.00397   0.00999   0.01488
 Alpha virt. eigenvalues --    0.01853   0.02496   0.02742   0.03596   0.04062
 Alpha virt. eigenvalues --    0.04294   0.05028   0.05214   0.05720   0.06462

  Beta  occ. eigenvalues --  -19.08209 -19.02811 -19.01607 -14.32761 -14.27385
  Beta  occ. eigenvalues --  -10.26258 -10.17533 -10.17048 -10.16533 -10.16372
  Beta  occ. eigenvalues --  -10.16182 -10.15839 -10.14684 -10.14537 -10.14459
  Beta  occ. eigenvalues --  -10.14261 -10.13405 -10.13366  -1.02570  -0.95450
  Beta  occ. eigenvalues --   -0.93628  -0.90694  -0.86442  -0.82253  -0.77171
  Beta  occ. eigenvalues --   -0.75196  -0.72086  -0.70098  -0.65354  -0.62860
  Beta  occ. eigenvalues --   -0.59830  -0.58336  -0.55141  -0.53111  -0.50559
  Beta  occ. eigenvalues --   -0.48758  -0.47667  -0.46881  -0.44591  -0.43751
  Beta  occ. eigenvalues --   -0.42412  -0.41688  -0.40676  -0.40364  -0.39448
  Beta  occ. eigenvalues --   -0.38864  -0.37627  -0.36659  -0.36319  -0.35681
  Beta  occ. eigenvalues --   -0.34648  -0.34259  -0.33287  -0.32426  -0.32234
  Beta  occ. eigenvalues --   -0.30356  -0.28273  -0.27141  -0.25496  -0.22815
  Beta  occ. eigenvalues --   -0.22240  -0.21339  -0.19896  -0.17665  -0.10686
  Beta virt. eigenvalues --   -0.01011  -0.00149   0.00397   0.00999   0.01488
  Beta virt. eigenvalues --    0.01853   0.02496   0.02742   0.03596   0.04062
  Beta virt. eigenvalues --    0.04294   0.05028   0.05214   0.05720   0.06462

 Mulliken charges and spin densities:
               1          2
     1  C   -0.012787  -0.000000
     2  C   -0.364959  -0.000000
     3  C   -0.446282  -0.000000
     4  C    0.483564  -0.000000
     5  C    0.018446   0.000000
     6  C   -0.038443  -0.000000
     7  C   -0.737514  -0.000000
     8  C    0.303470   0.000000
     9  C    0.459821  -0.000000
    10  C   -0.931405   0.000000
    11  O   -0.704948   0.000000
    12  O   -0.644421  -0.000000
    13  N   -0.505770  -0.000000
    14  H    0.140011   0.000000
    15  H    0.152218   0.000000
    16  H    0.153167  -0.000000
    17  H    0.141910   0.000000
    18  H    0.275388   0.000000
    19  H    0.282435  -0.000000
    20  N   -0.000611  -0.000000
    21  H    0.337747  -0.000000
    22  C    0.142218   0.000000
    23  C   -0.282094  -0.000000
    24  C   -0.493212  -0.000000
    25  O   -0.488485  -0.000000
    26  H    0.137915   0.000000
    27  H    0.170327  -0.000000
    28  H    0.140255  -0.000000
    29  H    0.153012  -0.000000
    30  H    0.159026   0.000000
 Sum of Mulliken charges =  -2.00000   0.00000

 Dipole moment (field-independent basis, Debye):
    X=              7.7596    Y=             -5.6101    Z=             -0.0586  Tot=              9.5754
 Quadrupole moment (field-independent basis, Debye-Ang):
   XX=           -149.7526   YY=           -163.5753   ZZ=           -120.7344
   XY=              1.2111   XZ=             -4.4057   YZ=              1.2622

 Normal termination of Gaussian 16 at Sun Jan 21 08:59:55 2024.
