 Gaussian 16, Revision A.03,
 Gaussian 16:  ES64L-G16RevA.03 25-Dec-2016

 --------------------------------------
 #P UB3LYP/6-311++G(d,p) nosym opt freq
 --------------------------------------

 -------
 Reduced
 -------
 Symbolic Z-matrix:
 Charge = -2 Multiplicity = 1

 SCF Done:  E(UB3LYP) =  -838.048295882     A.U. after   37 cycles
 Optimization completed.
    -- Stationary point found.
 Normal termination of Gaussian 16 at Mon Jan  8 17:02:23 2024.

 ----------------------------------------------------------------------
 #P Geom=AllCheck Guess=TCheck SCRF=Check GenChk UB3LYP/6-311++G(d,p) F
 req
 ----------------------------------------------------------------------

 Structure from the checkpoint file:  "272-an.chk"
 -------
 Reduced
 -------
 Charge = -2 Multiplicity = 1

                          Input orientation:
 ---------------------------------------------------------------------
 Center     Atomic      Atomic             Coordinates (Angstroms)
 Number     Number       Type             X           Y           Z
 ---------------------------------------------------------------------
      1          6           0       -0.882348    3.844688   -0.194238
      2          6           0       -2.032740    3.090068   -0.066678
      3          6           0       -1.948079    1.673490    0.001705
      4          6           0        0.403475    3.250417   -0.258241
      5          6           0        0.486299    1.808484   -0.178265
      6          6           0       -0.706710    1.063631   -0.055254
      7          6           0        1.575682    4.076660   -0.412205
      8          6           0        2.835184    3.388483   -0.478522
      9          6           0        2.914688    1.993393   -0.324179
     10          6           0        1.763894    1.139401   -0.218012
     11          8           0        1.533199    5.366229   -0.503108
     12          8           0        1.906539   -0.145656   -0.180065
     13          7           0        3.946446    4.193947   -0.761026
     14          1           0       -0.921260    4.927900   -0.254264
     15          1           0       -3.004274    3.579430   -0.020520
     16          1           0       -2.851188    1.074511    0.099974
     17          1           0       -0.607823   -0.016394   -0.003127
     18          1           0        3.670111    5.162173   -0.614950
     19          1           0        4.794363    3.908209   -0.277855
     20          7           0        4.097590    1.204258   -0.392536
     21          1           0        3.777212    0.234288   -0.497524
     22          6           0        5.372448    1.386484    0.005614
     23          6           0        6.248930    0.134684   -0.088128
     24          6           0        7.496406    0.350845   -0.954645
     25          8           0        5.869108    2.442094    0.435555
     26          1           0        5.674241   -0.719688   -0.458883
     27          1           0        6.566597   -0.105421    0.935538
     28          1           0        7.221346    0.539532   -1.997653
     29          1           0        8.154241   -0.526127   -0.933210
     30          1           0        8.061356    1.213608   -0.593217
 ---------------------------------------------------------------------

 SCF Done:  E(UB3LYP) =  -838.048295882     A.U. after    4 cycles

 Alpha  occ. eigenvalues --  -18.86850 -18.81208 -18.79536 -14.11605 -14.05342
 Alpha  occ. eigenvalues --  -10.05243  -9.98103  -9.97658  -9.96272  -9.94982
 Alpha  occ. eigenvalues --   -9.94865  -9.94577  -9.94154  -9.93949  -9.93515
 Alpha  occ. eigenvalues --   -9.93200  -9.92049  -9.91956  -0.81257  -0.73699
 Alpha  occ. eigenvalues --   -0.71334  -0.69231  -0.64362  -0.61050  -0.57992
 Alpha  occ. eigenvalues --   -0.54081  -0.50892  -0.49184  -0.45066  -0.42222
 Alpha  occ. eigenvalues --   -0.39188  -0.37068  -0.33730  -0.31937  -0.29815
 Alpha  occ. eigenvalues --   -0.27795  -0.27218  -0.25788  -0.25161  -0.22497
 Alpha  occ. eigenvalues --   -0.21917  -0.20592  -0.19823  -0.19471  -0.18448
 Alpha  occ. eigenvalues --   -0.17771  -0.16993  -0.16842  -0.15958  -0.14632
 Alpha  occ. eigenvalues --   -0.14150  -0.12932  -0.11885  -0.11006  -0.10379
 Alpha  occ. eigenvalues --   -0.08858  -0.06543  -0.05086  -0.04247  -0.01308
 Alpha  occ. eigenvalues --   -0.00260   0.00712   0.02555   0.04288   0.11789
 Alpha virt. eigenvalues --    0.13264   0.15468   0.16817   0.17220   0.17695
 Alpha virt. eigenvalues --    0.18224   0.19623   0.20241   0.20398   0.20724
 Alpha virt. eigenvalues --    0.21495   0.22122   0.23672   0.24082   0.24341

  Beta  occ. eigenvalues --  -18.86850 -18.81208 -18.79536 -14.11605 -14.05342
  Beta  occ. eigenvalues --  -10.05243  -9.98103  -9.97658  -9.96272  -9.94982
  Beta  occ. eigenvalues --   -9.94865  -9.94577  -9.94154  -9.93949  -9.93515
  Beta  occ. eigenvalues --   -9.93200  -9.92049  -9.91956  -0.81257  -0.73699
  Beta  occ. eigenvalues --   -0.71334  -0.69231  -0.64362  -0.61050  -0.57992
  Beta  occ. eigenvalues --   -0.54081  -0.50892  -0.49184  -0.45066  -0.42222
  Beta  occ. eigenvalues --   -0.39188  -0.37068  -0.33730  -0.31937  -0.29815
  Beta  occ. eigenvalues --   -0.27795  -0.27218  -0.25788  -0.25161  -0.22497
  Beta  occ. eigenvalues --   -0.21917  -0.20592  -0.19823  -0.19471  -0.18448
  Beta  occ. eigenvalues --   -0.17771  -0.16993  -0.16842  -0.15958  -0.14632
  Beta  occ. eigenvalues --   -0.14150  -0.12932  -0.11885  -0.11006  -0.10379
  Beta  occ. eigenvalues --   -0.08858  -0.06543  -0.05086  -0.04247  -0.01308
  Beta  occ. eigenvalues --   -0.00260   0.00712   0.02555   0.04288   0.11789
  Beta virt. eigenvalues --    0.13264   0.15468   0.16817   0.17220   0.17695
  Beta virt. eigenvalues --    0.18224   0.19623   0.20241   0.20398   0.20724
  Beta virt. eigenvalues --    0.21495   0.22122   0.23672   0.24082   0.24341

 Mulliken charges and spin densities:
               1          2
     1  C   -0.043664  -0.000000
     2  C   -0.254977  -0.000000
     3  C   -0.345637   0.000000
     4  C    0.736780  -0.000000
     5  C    0.181097   0.000000
     6  C   -0.067426   0.000000
     7  C   -1.061307   0.000000
     8  C    0.362218   0.000000
     9  C    0.664083   0.000000
    10  C   -1.238699  -0.000000
    11  O   -0.531116  -0.000000
    12  O   -0.495440  -0.000000
    13  N   -0.438395  -0.000000
    14  H    0.128645   0.000000
    15  H    0.076932  -0.000000
    16  H    0.079694  -0.000000
    17  H    0.126249  -0.000000
    18  H    0.256123  -0.000000
    19  H    0.269390   0.000000
    20  N    0.031650   0.000000
    21  H    0.363703  -0.000000
    22  C    0.775349  -0.000000
    23  C   -1.372407   0.000000
    24  C    0.933550  -0.000000
    25  O   -0.431579   0.000000
    26  H    0.009340   0.000000
    27  H    0.086328   0.000000
    28  H    0.068322   0.000000
    29  H   -0.927538   0.000000
    30  H    0.058734   0.000000
 Sum of Mulliken charges =  -2.00000  -0.00000

 Dipole moment (field-independent basis, Debye):
    X=            -26.6513    Y=            -21.5615    Z=              3.3985  Tot=             34.4491
 Quadrupole moment (field-independent basis, Debye-Ang):
   XX=           -302.0919   YY=           -225.8292   ZZ=           -126.8449
   XY=            -27.8340   XZ=             14.1292   YZ=              7.7805

  Exact polarizability:1836.603-694.822 721.984-153.166  54.599 296.523
 Approx polarizability:7812.093********2556.308-643.141 321.985 364.191

                      1                      2                      3
                      A                      A                      A
 Frequencies --     34.3242                50.9769                66.7607
 Red. masses --      3.2470                 5.0357                 3.8038
 Frc consts  --      0.0023                 0.0077                 0.0100
 IR Inten    --      1.0735                 0.2346                 1.5345

                      4                      5                      6
                      A                      A                      A
 Frequencies --    103.1001               127.4471               144.1357
 Red. masses --      4.6454                 7.5880                 4.1487
 Frc consts  --      0.0291                 0.0726                 0.0508
 IR Inten    --      2.5981                 5.0358                 3.4967

                      7                      8                      9
                      A                      A                      A
 Frequencies --    183.9850               201.4489               233.7612
 Red. masses --      6.4747                 2.9126                 3.0845
 Frc consts  --      0.1291                 0.0696                 0.0993
 IR Inten    --      1.6830                 9.6553                27.5569

                     10                     11                     12
                      A                      A                      A
 Frequencies --    241.8475               269.7110               282.4804
 Red. masses --      2.0281                 3.9839                 3.4860
 Frc consts  --      0.0699                 0.1707                 0.1639
 IR Inten    --     19.3740                32.9296                13.5347

                     13                     14                     15
                      A                      A                      A
 Frequencies --    310.4686               347.5863               364.2407
 Red. masses --      5.5670                 4.3868                 4.7478
 Frc consts  --      0.3162                 0.3123                 0.3711
 IR Inten    --      4.4668                 4.3729                 4.2884

                     16                     17                     18
                      A                      A                      A
 Frequencies --    377.0007               400.1323               426.5371
 Red. masses --      7.7343                 7.6236                 7.8318
 Frc consts  --      0.6477                 0.7191                 0.8395
 IR Inten    --      1.7669                 1.9309               176.9721

                     19                     20                     21
                      A                      A                      A
 Frequencies --    461.1544               477.0025               520.3159
 Red. masses --      3.2543                 6.9264                 4.7174
 Frc consts  --      0.4078                 0.9285                 0.7525
 IR Inten    --      8.8102               450.0612                68.1379

                     22                     23                     24
                      A                      A                      A
 Frequencies --    540.7779               560.0179               588.2346
 Red. masses --      3.9511                 1.5368                 2.5285
 Frc consts  --      0.6808                 0.2840                 0.5155
 IR Inten    --      4.0702                52.5529                 6.7104

                     25                     26                     27
                      A                      A                      A
 Frequencies --    654.1409               673.6416               681.1237
 Red. masses --      6.4470                 4.9743                 6.0299
 Frc consts  --      1.6254                 1.3300                 1.6482
 IR Inten    --      5.8367                10.3982                 4.2409

                     28                     29                     30
                      A                      A                      A
 Frequencies --    687.2346               705.2896               727.8794
 Red. masses --      1.9850                 3.9106                 3.8072
 Frc consts  --      0.5523                 1.1461                 1.1884
 IR Inten    --     92.9577                21.9316                12.5066

                     31                     32                     33
                      A                      A                      A
 Frequencies --    745.3245               767.5512               794.4524
 Red. masses --      2.6890                 2.4380                 1.3742
 Frc consts  --      0.8801                 0.8463                 0.5110
 IR Inten    --     11.8195                 7.9576                62.1184

                     34                     35                     36
                      A                      A                      A
 Frequencies --    802.4303               812.4034               828.4480
 Red. masses --      2.1021                 1.2996                 1.4103
 Frc consts  --      0.7975                 0.5054                 0.5703
 IR Inten    --      3.1932               176.8363               177.1112

                     37                     38                     39
                      A                      A                      A
 Frequencies --    864.5593               925.0949               945.5167
 Red. masses --      4.2778                 4.0394                 1.2485
 Frc consts  --      1.8839                 2.0368                 0.6576
 IR Inten    --      2.2743                49.0527                 1.3018

                     40                     41                     42
                      A                      A                      A
 Frequencies --    950.0415               951.2833              1011.8353
 Red. masses --      1.4529                 2.5642                 2.5022
 Frc consts  --      0.7726                 1.3672                 1.5093
 IR Inten    --      4.1442                23.4338               456.4408

                     43                     44                     45
                      A                      A                      A
 Frequencies --   1027.6299              1060.5477              1080.7415
 Red. masses --      2.5827                 2.7427                 2.0738
 Frc consts  --      1.6069                 1.8176                 1.4271
 IR Inten    --     13.6680                10.8884                13.9665

                     46                     47                     48
                      A                      A                      A
 Frequencies --   1091.4801              1108.4654              1132.4061
 Red. masses --      1.9724                 1.7262                 1.2867
 Frc consts  --      1.3844                 1.2497                 0.9722
 IR Inten    --     42.2797                13.2959               127.3384

                     49                     50                     51
                      A                      A                      A
 Frequencies --   1167.7481              1193.5828              1217.7076
 Red. masses --      3.6746                 2.1352                 2.1285
 Frc consts  --      2.9523                 1.7922                 1.8595
 IR Inten    --     63.7123                20.9960               153.1216

                     52                     53                     54
                      A                      A                      A
 Frequencies --   1255.1314              1267.9696              1300.5079
 Red. masses --      2.9483                 1.5276                 1.5706
 Frc consts  --      2.7365                 1.4470                 1.5651
 IR Inten    --     78.4158                27.2475                87.3813

                     55                     56                     57
                      A                      A                      A
 Frequencies --   1310.8685              1332.6084              1362.0756
 Red. masses --      2.0358                 6.8732                 1.7058
 Frc consts  --      2.0611                 7.1914                 1.8646
 IR Inten    --     58.9823              1003.1154                59.5602

                     58                     59                     60
                      A                      A                      A
 Frequencies --   1388.0652              1419.1382              1427.5048
 Red. masses --      1.2531                 4.4855                 3.3690
 Frc consts  --      1.4225                 5.3224                 4.0449
 IR Inten    --    112.9145               556.9401               268.7386

                     61                     62                     63
                      A                      A                      A
 Frequencies --   1433.1146              1462.8788              1468.4245
 Red. masses --      6.7221                 2.8346                 1.0853
 Frc consts  --      8.1343                 3.5740                 1.3789
 IR Inten    --   3586.8087              1070.9586                16.4309

                     64                     65                     66
                      A                      A                      A
 Frequencies --   1478.3478              1494.2328              1505.4827
 Red. masses --      1.0488                 4.8872                 1.0734
 Frc consts  --      1.3506                 6.4290                 1.4334
 IR Inten    --     81.8726               296.7616                79.7613

                     67                     68                     69
                      A                      A                      A
 Frequencies --   1523.1705              1553.0597              1574.1779
 Red. masses --      4.7999                 2.0122                 3.8140
 Frc consts  --      6.5612                 2.8595                 5.5684
 IR Inten    --     57.1673               139.9640              1991.9295

                     70                     71                     72
                      A                      A                      A
 Frequencies --   1585.6984              1612.4417              1664.8093
 Red. masses --      4.6650                 1.5873                 4.2634
 Frc consts  --      6.9110                 2.4316                 6.9621
 IR Inten    --     51.0267               489.0165               337.5515

                     73                     74                     75
                      A                      A                      A
 Frequencies --   2990.7129              2994.8713              3047.9717
 Red. masses --      1.0655                 1.0403                 1.0947
 Frc consts  --      5.6153                 5.4977                 5.9920
 IR Inten    --     93.4930                31.6858                26.5232

                     76                     77                     78
                      A                      A                      A
 Frequencies --   3055.0468              3089.7379              3095.1838
 Red. masses --      1.0975                 1.1001                 1.0828
 Frc consts  --      6.0353                 6.1875                 6.1119
 IR Inten    --     79.8132                24.3176                51.5001

                     79                     80                     81
                      A                      A                      A
 Frequencies --   3119.2738              3157.7706              3161.1648
 Red. masses --      1.0901                 1.0907                 1.0914
 Frc consts  --      6.2495                 6.4078                 6.4260
 IR Inten    --    260.4931                40.9813               190.7449

                     82                     83                     84
                      A                      A                      A
 Frequencies --   3340.0838              3432.0447              3538.2363
 Red. masses --      1.0757                 1.0461                 1.0993
 Frc consts  --      7.0705                 7.2599                 8.1082
 IR Inten    --    188.0346                32.4100                44.7905

 - Thermochemistry -
 -------------------
 Temperature   298.150 Kelvin.  Pressure   1.00000 Atm.
 Atom     1 has atomic number  6 and mass  12.00000

 Molecular mass:   244.08479 amu.
 Principal axes and moments of inertia in atomic units:
                           1         2         3
     Eigenvalues --  2020.288447182.202979025.80990
           X            0.96984   0.24096   0.03677
           Y           -0.24281   0.96827   0.05906
           Z           -0.02137  -0.06621   0.99758
 This molecule is an asymmetric top.
 Rotational symmetry number  1.
 Warning -- assumption of classical behavior for rotation
           may cause significant error
 Rotational temperatures (Kelvin)      0.04287     0.01206     0.00960
 Rotational constants (GHZ):           0.89331     0.25128     0.19995
 Zero-point vibrational energy     600308.9 (Joules/Mol)
                                  143.47728 (Kcal/Mol)
 Warning -- explicit consideration of  24 degrees of freedom as
           vibrations may cause significant error
 Vibrational temperatures:     49.38    73.34    96.05   148.34   183.37
          (Kelvin)            207.38   264.71   289.84   336.33   347.96
                              388.05   406.43   446.70   500.10   524.06
                              542.42   575.70   613.69   663.50   686.30
                              748.62   778.06   805.74   846.34   941.16
                              969.22   979.99   988.78  1014.75  1047.26
                             1072.36  1104.33  1143.04  1154.52  1168.87
                             1191.95  1243.91  1331.01  1360.39  1366.90
                             1368.68  1455.81  1478.53  1525.89  1554.95
                             1570.40  1594.83  1629.28  1680.13  1717.30
                             1752.01  1805.85  1824.33  1871.14  1886.05
                             1917.33  1959.72  1997.12  2041.82  2053.86
                             2061.93  2104.76  2112.74  2127.01  2149.87
                             2166.05  2191.50  2234.51  2264.89  2281.47
                             2319.94  2395.29  4302.97  4308.95  4385.35
                             4395.53  4445.44  4453.28  4487.94  4543.33
                             4548.21  4805.64  4937.95  5090.73

 Zero-point correction=                           0.228646 (Hartree/Particle)
 Thermal correction to Energy=                    0.244223
 Thermal correction to Enthalpy=                  0.245167
 Thermal correction to Gibbs Free Energy=         0.185546
 Sum of electronic and zero-point Energies=           -837.819650
 Sum of electronic and thermal Energies=              -837.804073
 Sum of electronic and thermal Enthalpies=            -837.803129
 Sum of electronic and thermal Free Energies=         -837.862750

                     E (Thermal)             CV                S
                      KCal/Mol        Cal/Mol-Kelvin    Cal/Mol-Kelvin
 Total                  153.252             60.951            125.484
 Electronic               0.000              0.000              0.000
 Translational            0.889              2.981             42.378
 Rotational               0.889              2.981             33.237
 Vibrational            151.475             54.989             49.868
 Vibration     1          0.594              1.983              5.562
 Vibration     2          0.595              1.977              4.779
 Vibration     3          0.598              1.970              4.247
 Vibration     4          0.605              1.947              3.395
 Vibration     5          0.611              1.926              2.984
 Vibration     6          0.616              1.909              2.748
 Vibration     7          0.631              1.862              2.288
 Vibration     8          0.638              1.838              2.120
 Vibration     9          0.654              1.789              1.850
 Vibration    10          0.658              1.776              1.789
 Vibration    11          0.674              1.729              1.598
 Vibration    12          0.682              1.706              1.519
 Vibration    13          0.699              1.654              1.360
 Vibration    14          0.725              1.580              1.177
 Vibration    15          0.738              1.546              1.104
 Vibration    16          0.748              1.519              1.051
 Vibration    17          0.766              1.470              0.962
 Vibration    18          0.788              1.412              0.870
 Vibration    19          0.819              1.336              0.763
 Vibration    20          0.834              1.301              0.718
 Vibration    21          0.875              1.205              0.609
 Vibration    22          0.896              1.160              0.564
 Vibration    23          0.916              1.118              0.524
 Vibration    24          0.945              1.057              0.470

                           ! Non-Optimized Parameters !
 Normal termination of Gaussian 16 at Mon Jan  8 18:01:38 2024.
