 Q-Chem 5.4, Q-Chem, Inc., Pleasanton, CA (2021)
 Q-Chem 5.4.0 for Intel X86 EM64T Linux

User input:
--------------------------------------------------------------
$molecule
-2 1
C                 -6.7950370000      5.9456690000      0.8308990000
C                 -7.9120020000      5.2119540000      0.4802550000
C                 -7.7966360000      4.1447430000     -0.4415090000
C                 -6.5585670000      3.8417120000     -0.9871500000
C                 -5.4027060000      4.5690000000     -0.6512590000
C                 -5.5214710000      5.6541010000      0.2847630000
C                 -4.3656910000      6.4242750000      0.6546030000
C                 -3.1269950000      6.0397020000      0.0390000000
C                 -2.9734960000      5.0049200000     -0.8718970000
C                 -4.1124320000      4.2077590000     -1.2587670000
O                 -4.3499220000      7.4165450000      1.4784510000
O                 -4.0122700000      3.2475270000     -2.0836560000
C                 -1.6305410000      4.6859180000     -1.4770680000
C                 -0.8680700000      3.5659100000     -0.7409040000
C                  0.4789220000      3.2291500000     -1.3917360000
C                  1.2647900000      2.1235530000     -0.6752810000
C                  2.6110350000      1.7977810000     -1.3346300000
C                  3.4096720000      0.6968300000     -0.6251860000
C                  4.7523550000      0.3832340000     -1.2968480000
C                  5.5628640000     -0.7136330000     -0.5941520000
C                  6.9019080000     -1.0106060000     -1.2850390000
C                  7.7111840000     -2.0991870000     -0.5808870000
S                  9.3045570000     -2.3887770000     -1.4864950000
C                 10.0719760000     -3.6756230000     -0.5010540000
C                  9.9199550000     -5.0254990000     -0.8479060000
C                 10.8857370000     -3.3528460000      0.5941760000
C                 11.4791330000     -4.3600020000      1.3526090000
C                 11.2948420000     -5.7126630000      1.0433350000
C                 10.5218650000     -6.0229020000     -0.0889930000
C                 11.9557460000     -6.8042630000      1.8463640000
H                 -6.8596240000      6.7681220000      1.5356480000
H                 -8.8800490000      5.4537180000      0.9128170000
H                 -8.6739390000      3.5659550000     -0.7184670000
H                 -6.4382390000      3.0283640000     -1.6952250000
O                 -2.0669120000      6.8157050000      0.4361920000
H                 -1.0090590000      5.5883260000     -1.4904250000
H                 -1.7933160000      4.3622110000     -2.5113320000
H                 -1.5028640000      2.6736260000     -0.7219440000
H                 -0.7063520000      3.8686850000      0.3009160000
H                  1.0971400000      4.1371070000     -1.4343330000
H                  0.3072270000      2.9292060000     -2.4344860000
H                  0.6514440000      1.2138740000     -0.6348990000
H                  1.4358290000      2.4202240000      0.3681690000
H                  3.2199600000      2.7108740000     -1.3788950000
H                  2.4376080000      1.5003630000     -2.3775310000
H                  2.8042720000     -0.2180390000     -0.5811030000
H                  3.5867240000      0.9929560000      0.4172090000
H                  5.3543600000      1.3002920000     -1.3436700000
H                  4.5730800000      0.0860920000     -2.3385090000
H                  4.9655990000     -1.6331310000     -0.5478460000
H                  5.7480840000     -0.4176580000      0.4462960000
H                  7.4972820000     -0.0910900000     -1.3322740000
H                  6.7151010000     -1.3126780000     -2.3224020000
H                  7.1596250000     -3.0417690000     -0.5532510000
H                  7.9499070000     -1.8078770000      0.4445720000
H                  9.3239180000     -5.2877330000     -1.7154090000
H                 11.0478780000     -2.3119450000      0.8518280000
H                 12.1008600000     -4.0891870000      2.2013860000
H                 10.3920010000     -7.0628070000     -0.3764500000
H                 12.5793960000     -6.3975500000      2.6475060000
H                 12.6006040000     -7.4303310000      1.2107130000
H                 11.2219000000     -7.4727610000      2.3040660000
H                 -2.5201580000      7.4348030000      1.0566500000
$end

$rem
MAX_SCF_CYCLES = 200
BASIS  =  6-311++G(d,p)
GUI  =  2
JOB_TYPE  =  SP
METHOD  =  B3LYP
THRESH      14
SCF_CONVERGENCE  = 6
SOLVENT_METHOD = sm12
$end

$smx
solvent dimethylformamide
charges MK
$end

--------------------------------------------------------------

             Standard Nuclear Orientation (Angstroms)
    I     Atom           X                Y                Z
 ----------------------------------------------------------------
    1      C      -6.7950370000     5.9456690000     0.8308990000
    2      C      -7.9120020000     5.2119540000     0.4802550000
    3      C      -7.7966360000     4.1447430000    -0.4415090000
    4      C      -6.5585670000     3.8417120000    -0.9871500000
    5      C      -5.4027060000     4.5690000000    -0.6512590000
    6      C      -5.5214710000     5.6541010000     0.2847630000
    7      C      -4.3656910000     6.4242750000     0.6546030000
    8      C      -3.1269950000     6.0397020000     0.0390000000
    9      C      -2.9734960000     5.0049200000    -0.8718970000
   10      C      -4.1124320000     4.2077590000    -1.2587670000
   11      O      -4.3499220000     7.4165450000     1.4784510000
   12      O      -4.0122700000     3.2475270000    -2.0836560000
   13      C      -1.6305410000     4.6859180000    -1.4770680000
   14      C      -0.8680700000     3.5659100000    -0.7409040000
   15      C       0.4789220000     3.2291500000    -1.3917360000
   16      C       1.2647900000     2.1235530000    -0.6752810000
   17      C       2.6110350000     1.7977810000    -1.3346300000
   18      C       3.4096720000     0.6968300000    -0.6251860000
   19      C       4.7523550000     0.3832340000    -1.2968480000
   20      C       5.5628640000    -0.7136330000    -0.5941520000
   21      C       6.9019080000    -1.0106060000    -1.2850390000
   22      C       7.7111840000    -2.0991870000    -0.5808870000
   23      S       9.3045570000    -2.3887770000    -1.4864950000
   24      C      10.0719760000    -3.6756230000    -0.5010540000
   25      C       9.9199550000    -5.0254990000    -0.8479060000
   26      C      10.8857370000    -3.3528460000     0.5941760000
   27      C      11.4791330000    -4.3600020000     1.3526090000
   28      C      11.2948420000    -5.7126630000     1.0433350000
   29      C      10.5218650000    -6.0229020000    -0.0889930000
   30      C      11.9557460000    -6.8042630000     1.8463640000
   31      H      -6.8596240000     6.7681220000     1.5356480000
   32      H      -8.8800490000     5.4537180000     0.9128170000
   33      H      -8.6739390000     3.5659550000    -0.7184670000
   34      H      -6.4382390000     3.0283640000    -1.6952250000
   35      O      -2.0669120000     6.8157050000     0.4361920000
   36      H      -1.0090590000     5.5883260000    -1.4904250000
   37      H      -1.7933160000     4.3622110000    -2.5113320000
   38      H      -1.5028640000     2.6736260000    -0.7219440000
   39      H      -0.7063520000     3.8686850000     0.3009160000
   40      H       1.0971400000     4.1371070000    -1.4343330000
   41      H       0.3072270000     2.9292060000    -2.4344860000
   42      H       0.6514440000     1.2138740000    -0.6348990000
   43      H       1.4358290000     2.4202240000     0.3681690000
   44      H       3.2199600000     2.7108740000    -1.3788950000
   45      H       2.4376080000     1.5003630000    -2.3775310000
   46      H       2.8042720000    -0.2180390000    -0.5811030000
   47      H       3.5867240000     0.9929560000     0.4172090000
   48      H       5.3543600000     1.3002920000    -1.3436700000
   49      H       4.5730800000     0.0860920000    -2.3385090000
   50      H       4.9655990000    -1.6331310000    -0.5478460000
   51      H       5.7480840000    -0.4176580000     0.4462960000
   52      H       7.4972820000    -0.0910900000    -1.3322740000
   53      H       6.7151010000    -1.3126780000    -2.3224020000
   54      H       7.1596250000    -3.0417690000    -0.5532510000
   55      H       7.9499070000    -1.8078770000     0.4445720000
   56      H       9.3239180000    -5.2877330000    -1.7154090000
   57      H      11.0478780000    -2.3119450000     0.8518280000
   58      H      12.1008600000    -4.0891870000     2.2013860000
   59      H      10.3920010000    -7.0628070000    -0.3764500000
   60      H      12.5793960000    -6.3975500000     2.6475060000
   61      H      12.6006040000    -7.4303310000     1.2107130000
   62      H      11.2219000000    -7.4727610000     2.3040660000
   63      H      -2.5201580000     7.4348030000     1.0566500000
 ----------------------------------------------------------------

   18   -1672.3803758020      2.98e-07  Convergence criterion met
 Total energy in the final basis set =    -1672.6752939771

                    Orbital Energies (a.u.)
 --------------------------------------------------------------

 Alpha MOs
 -- Occupied --
-88.8374 -19.1142 -19.0242 -19.0180 -10.2062 -10.1937 -10.1930 -10.1840
-10.1838 -10.1809 -10.1798 -10.1797 -10.1769 -10.1699 -10.1670 -10.1666
-10.1650 -10.1630 -10.1616 -10.1610 -10.1609 -10.1606 -10.1594 -10.1592
-10.1590 -10.1577 -10.1511 -10.1496 -10.1404 -10.1381 -10.1278  -7.9239
 -5.8880  -5.8843  -5.8773  -1.0284  -0.9427  -0.9335  -0.8703  -0.8357
 -0.8175  -0.8066  -0.7941  -0.7811  -0.7664  -0.7550  -0.7477  -0.7342
 -0.7276  -0.7075  -0.6857  -0.6623  -0.6397  -0.6262  -0.6161  -0.6038
 -0.5924  -0.5815  -0.5777  -0.5728  -0.5709  -0.5621  -0.5431  -0.5125
 -0.4979  -0.4860  -0.4796  -0.4768  -0.4715  -0.4579  -0.4561  -0.4475
 -0.4379  -0.4349  -0.4287  -0.4283  -0.4257  -0.4227  -0.4183  -0.4162
 -0.4084  -0.4028  -0.3919  -0.3894  -0.3882  -0.3859  -0.3767  -0.3725
 -0.3668  -0.3626  -0.3610  -0.3559  -0.3553  -0.3503  -0.3481  -0.3431
 -0.3400  -0.3354  -0.3289  -0.3259  -0.3221  -0.3212  -0.3190  -0.3179
 -0.3163  -0.3133  -0.3081  -0.3004  -0.2952  -0.2654  -0.2486  -0.2417
 -0.2296  -0.2293  -0.2109  -0.1957  -0.1939  -0.1061

          Ground-State Mulliken Net Atomic Charges

     Atom                 Charge (a.u.)
  ----------------------------------------
      1 C                    -0.186808
      2 C                     0.299091
      3 C                     0.196750
      4 C                    -0.537379
      5 C                    -1.470905
      6 C                    -1.273066
      7 C                    -2.324199
      8 C                     0.113513
      9 C                     2.485382
     10 C                    -2.454766
     11 O                    -0.492195
     12 O                    -0.344801
     13 C                    -0.602541
     14 C                    -1.311551
     15 C                     0.912505
     16 C                     0.401539
     17 C                     1.094600
     18 C                     0.175392
     19 C                    -0.891309
     20 C                    -0.180323
     21 C                     0.369458
     22 C                    -0.299460
     23 S                    -0.653483
     24 C                     1.065574
     25 C                    -0.964954
     26 C                    -0.925845
     27 C                    -0.890065
     28 C                     0.943171
     29 C                     0.017163
     30 C                     0.010070
     31 H                     0.139400
     32 H                     0.360024
     33 H                     0.324655
     34 H                     0.090079
     35 O                    -0.095234
     36 H                     0.213416
     37 H                     0.074975
     38 H                     0.087177
     39 H                     0.082433
     40 H                     0.201500
     41 H                     0.199230
     42 H                     0.135605
     43 H                     0.149923
     44 H                     0.107917
     45 H                     0.116998
     46 H                     0.135841
     47 H                     0.141773
     48 H                     0.134723
     49 H                     0.122506
     50 H                     0.143170
     51 H                     0.142135
     52 H                     0.127651
     53 H                     0.134986
     54 H                     0.231257
     55 H                     0.231558
     56 H                     0.240324
     57 H                     0.257202
     58 H                     0.253696
     59 H                     0.313960
     60 H                     0.222184
     61 H                     0.196485
     62 H                     0.192766
     63 H                     0.309129
  ----------------------------------------
  Sum of atomic charges =    -2.000000

                    Cartesian Multipole Moments
 -----------------------------------------------------------------
    Charge (ESU x 10^10)
                -9.6064
    Dipole Moment (Debye)
         X      43.0982      Y     -51.0606      Z       4.7506
       Tot      66.9866
    Quadrupole Moments (Debye-Ang)
        XX    -461.6645     XY     218.0794     YY    -484.5135
        XZ      16.4426     YZ     -13.0780     ZZ    -232.7688

 Total job time:  612.08s(wall), 4298.11s(cpu)
        *  Thank you very much for using Q-Chem.  Have a nice day.  *
