 Gaussian 16, Revision A.03,
 Gaussian 16:  ES64L-G16RevA.03 25-Dec-2016

 --------------------------------------
 #P UB3LYP/6-311++G(d,p) nosym opt freq
 --------------------------------------

 -------
 Reduced
 -------
 Symbolic Z-matrix:
 Charge = -2 Multiplicity = 1

 SCF Done:  E(UB3LYP) =  -3577.33039766     A.U. after   32 cycles
 SCF Done:  E(UB3LYP) =  -3577.33067772     A.U. after   23 cycles
 SCF Done:  E(UB3LYP) =  -3577.33093924     A.U. after   23 cycles
 SCF Done:  E(UB3LYP) =  -3577.33112876     A.U. after   23 cycles
 SCF Done:  E(UB3LYP) =  -3577.33129148     A.U. after   20 cycles
 SCF Done:  E(UB3LYP) =  -3577.33135858     A.U. after   20 cycles
 SCF Done:  E(UB3LYP) =  -3577.33137981     A.U. after   18 cycles
 SCF Done:  E(UB3LYP) =  -3577.33138536     A.U. after   16 cycles
 SCF Done:  E(UB3LYP) =  -3577.33139111     A.U. after   17 cycles
 SCF Done:  E(UB3LYP) =  -3577.33139236     A.U. after   16 cycles
 SCF Done:  E(UB3LYP) =  -3577.33139298     A.U. after   14 cycles
 SCF Done:  E(UB3LYP) =  -3577.33139315     A.U. after   12 cycles
 SCF Done:  E(UB3LYP) =  -3577.33139325     A.U. after   14 cycles
 Optimization completed.
    -- Stationary point found.
 Normal termination of Gaussian 16 at Thu Feb  1 22:04:35 2024.

 ----------------------------------------------------------------------
 #P Geom=AllCheck Guess=TCheck SCRF=Check GenChk UB3LYP/6-311++G(d,p) F
 req
 ----------------------------------------------------------------------

 Structure from the checkpoint file:  "295-an.chk"
 -------
 Reduced
 -------
 Charge = -2 Multiplicity = 1

                          Input orientation:
 ---------------------------------------------------------------------
 Center     Atomic      Atomic             Coordinates (Angstroms)
 Number     Number       Type             X           Y           Z
 ---------------------------------------------------------------------
      1          6           0       -1.022958    2.035341   -0.285553
      2          6           0       -1.479686    2.131871    1.015651
      3          6           0       -0.850748    1.391765    2.041661
      4          6           0        0.071371    1.203265   -0.616651
      5          6           0        0.710750    0.452201    0.423236
      6          6           0        0.224617    0.570824    1.736178
      7          6           0        0.541405    1.106056   -1.975525
      8          6           0        1.663168    0.230727   -2.202341
      9          6           0        2.302552   -0.514228   -1.227223
     10          6           0        1.857176   -0.434242    0.146949
     11          8           0        0.045379    1.725730   -2.982906
     12          8           0        2.413402   -1.092698    1.071061
     13          1           0       -1.489554    2.594032   -1.089829
     14          1           0       -2.322112    2.777689    1.250171
     15          1           0       -1.207866    1.466954    3.065095
     16          1           0        0.728274   -0.008106    2.502907
     17          8           0        2.054501    0.186814   -3.513596
     18          6           0        3.464477   -1.413625   -1.562722
     19          6           0        4.840991   -0.733658   -1.410757
     20          6           0        6.013093   -1.666041   -1.742319
     21          6           0        7.392781   -1.008436   -1.609191
     22          6           0        8.563903   -1.938771   -1.953591
     23          6           0        9.943838   -1.279453   -1.824833
     24          6           0       11.116630   -2.205773   -2.173340
     25          6           0       12.493628   -1.537103   -2.047318
     26          6           0       13.677113   -2.482348   -2.405485
     27          6           0       15.026012   -1.870675   -2.297226
     28         35           0       16.821086   -3.859806   -3.017682
     29          1           0        1.407243    0.803684   -3.925992
     30          1           0        3.361780   -1.775767   -2.591593
     31          1           0        3.431488   -2.275820   -0.888449
     32          1           0        4.937105   -0.371960   -0.381238
     33          1           0        4.878046    0.146553   -2.063830
     34          1           0        5.894099   -2.044765   -2.767118
     35          1           0        5.968748   -2.545930   -1.086301
     36          1           0        7.516585   -0.636471   -0.583544
     37          1           0        7.433587   -0.123446   -2.258275
     38          1           0        8.437818   -2.312243   -2.978775
     39          1           0        8.525048   -2.823241   -1.303687
     40          1           0       10.070413   -0.907686   -0.799334
     41          1           0        9.980249   -0.393300   -2.472478
     42          1           0       10.990281   -2.579593   -3.198186
     43          1           0       11.084721   -3.090659   -1.523812
     44          1           0       12.631640   -1.167746   -1.023755
     45          1           0       12.535311   -0.654629   -2.697471
     46          1           0       13.521259   -2.847862   -3.428925
     47          1           0       13.619358   -3.361566   -1.750607
     48          1           0       15.511057   -1.784979   -1.334807
     49          1           0       15.406540   -1.243914   -3.091739
 ---------------------------------------------------------------------

 SCF Done:  E(UB3LYP) =  -3577.33139325     A.U. after    3 cycles

 Alpha  occ. eigenvalues -- -482.56386 -62.21655 -56.03521 -56.03389 -56.03389
 Alpha  occ. eigenvalues --  -18.95854 -18.88884 -18.87642 -10.03366 -10.03280
 Alpha  occ. eigenvalues --  -10.02962 -10.02699 -10.02504 -10.02462 -10.02011
 Alpha  occ. eigenvalues --  -10.01910 -10.01252 -10.00992 -10.00982 -10.00369
 Alpha  occ. eigenvalues --  -10.00054  -9.99699  -9.99532  -9.99505  -9.99080
 Alpha  occ. eigenvalues --   -9.98804  -9.98733  -9.97794  -8.42512  -6.25069
 Alpha  occ. eigenvalues --   -6.24650  -6.24648  -2.36249  -2.36139  -2.36138
 Alpha  occ. eigenvalues --   -2.35808  -2.35808  -0.87548  -0.79847  -0.79465
 Alpha  occ. eigenvalues --   -0.67772  -0.67149  -0.64747  -0.62847  -0.61109
 Alpha  occ. eigenvalues --   -0.58592  -0.57294  -0.56024  -0.52996  -0.49974
 Alpha  occ. eigenvalues --   -0.49089  -0.47597  -0.45117  -0.43987  -0.43568
 Alpha  occ. eigenvalues --   -0.42398  -0.41791  -0.40465  -0.38632  -0.35598
 Alpha  occ. eigenvalues --   -0.34583  -0.32417  -0.32237  -0.30316  -0.29487
 Alpha  occ. eigenvalues --   -0.28378  -0.28121  -0.27932  -0.27277  -0.26564
 Alpha  occ. eigenvalues --   -0.25122  -0.25009  -0.24331  -0.23678  -0.23558
 Alpha  occ. eigenvalues --   -0.22450  -0.21700  -0.21428  -0.20462  -0.20217
 Alpha  occ. eigenvalues --   -0.19884  -0.19697  -0.19534  -0.18867  -0.18753
 Alpha  occ. eigenvalues --   -0.18132  -0.17573  -0.17539  -0.17359  -0.16331
 Alpha  occ. eigenvalues --   -0.16073  -0.15468  -0.14791  -0.14710  -0.07696
 Alpha  occ. eigenvalues --   -0.07230  -0.07055  -0.06552  -0.05241  -0.05226
 Alpha  occ. eigenvalues --   -0.04432  -0.03949   0.06113
 Alpha virt. eigenvalues --    0.06859   0.12182   0.12386   0.13156   0.13528
 Alpha virt. eigenvalues --    0.14080   0.14176   0.14732   0.14943   0.15422
 Alpha virt. eigenvalues --    0.15617   0.16179   0.16370   0.16788   0.16928

  Beta  occ. eigenvalues -- -482.56386 -62.21655 -56.03521 -56.03389 -56.03389
  Beta  occ. eigenvalues --  -18.95854 -18.88884 -18.87642 -10.03366 -10.03280
  Beta  occ. eigenvalues --  -10.02962 -10.02699 -10.02504 -10.02462 -10.02011
  Beta  occ. eigenvalues --  -10.01910 -10.01252 -10.00992 -10.00982 -10.00369
  Beta  occ. eigenvalues --  -10.00054  -9.99699  -9.99532  -9.99505  -9.99080
  Beta  occ. eigenvalues --   -9.98804  -9.98733  -9.97794  -8.42512  -6.25069
  Beta  occ. eigenvalues --   -6.24650  -6.24648  -2.36249  -2.36139  -2.36138
  Beta  occ. eigenvalues --   -2.35808  -2.35808  -0.87548  -0.79847  -0.79465
  Beta  occ. eigenvalues --   -0.67772  -0.67149  -0.64747  -0.62847  -0.61109
  Beta  occ. eigenvalues --   -0.58592  -0.57294  -0.56024  -0.52996  -0.49974
  Beta  occ. eigenvalues --   -0.49089  -0.47597  -0.45117  -0.43987  -0.43568
  Beta  occ. eigenvalues --   -0.42398  -0.41791  -0.40465  -0.38632  -0.35598
  Beta  occ. eigenvalues --   -0.34583  -0.32417  -0.32237  -0.30316  -0.29487
  Beta  occ. eigenvalues --   -0.28378  -0.28121  -0.27932  -0.27277  -0.26564
  Beta  occ. eigenvalues --   -0.25122  -0.25009  -0.24331  -0.23678  -0.23558
  Beta  occ. eigenvalues --   -0.22450  -0.21700  -0.21428  -0.20462  -0.20217
  Beta  occ. eigenvalues --   -0.19884  -0.19697  -0.19534  -0.18867  -0.18753
  Beta  occ. eigenvalues --   -0.18132  -0.17573  -0.17539  -0.17359  -0.16331
  Beta  occ. eigenvalues --   -0.16073  -0.15468  -0.14791  -0.14710  -0.07696
  Beta  occ. eigenvalues --   -0.07230  -0.07055  -0.06552  -0.05241  -0.05226
  Beta  occ. eigenvalues --   -0.04432  -0.03949   0.06113
  Beta virt. eigenvalues --    0.06859   0.12182   0.12386   0.13156   0.13528
  Beta virt. eigenvalues --    0.14080   0.14176   0.14732   0.14943   0.15422
  Beta virt. eigenvalues --    0.15617   0.16179   0.16370   0.16788   0.16928

 Mulliken charges and spin densities:
               1          2
     1  C   -0.036156  -0.000000
     2  C   -0.300685  -0.000000
     3  C   -0.388398  -0.000000
     4  C    0.665404   0.000000
     5  C   -0.033476   0.000000
     6  C    0.040445   0.000000
     7  C   -1.213851  -0.000000
     8  C   -0.670503  -0.000000
     9  C    2.265461   0.000000
    10  C   -0.902809  -0.000000
    11  O   -0.490695  -0.000000
    12  O   -0.392407  -0.000000
    13  H    0.147854   0.000000
    14  H    0.108047   0.000000
    15  H    0.105905  -0.000000
    16  H    0.153954   0.000000
    17  O   -0.264702  -0.000000
    18  C   -0.456334  -0.000000
    19  C   -0.891559  -0.000000
    20  C   -0.286038   0.000000
    21  C    0.017316  -0.000000
    22  C    0.021900   0.000000
    23  C   -0.023408  -0.000000
    24  C   -0.265932   0.000000
    25  C    0.063130  -0.000000
    26  C   -0.382101   0.000000
    27  C   -0.622509   0.000000
    28  Br  -0.742870   0.000000
    29  H    0.261598  -0.000000
    30  H    0.208978   0.000000
    31  H    0.208363  -0.000000
    32  H    0.181930   0.000000
    33  H    0.151653   0.000000
    34  H    0.091216  -0.000000
    35  H    0.103263  -0.000000
    36  H    0.115320   0.000000
    37  H    0.112610  -0.000000
    38  H    0.116679   0.000000
    39  H    0.119970   0.000000
    40  H    0.119051  -0.000000
    41  H    0.121568  -0.000000
    42  H    0.107688   0.000000
    43  H    0.111407   0.000000
    44  H    0.061945   0.000000
    45  H    0.055194   0.000000
    46  H    0.136628   0.000000
    47  H    0.130737   0.000000
    48  H    0.131246   0.000000
    49  H    0.127976   0.000000
 Sum of Mulliken charges =  -2.00000   0.00000

 Dipole moment (field-independent basis, Debye):
    X=            -71.3911    Y=             11.8211    Z=             15.9170  Tot=             74.0930
 Quadrupole moment (field-independent basis, Debye-Ang):
   XX=          -1274.1864   YY=           -239.9732   ZZ=           -232.5784
   XY=            243.3152   XZ=            192.6443   YZ=            -33.5916

  Exact polarizability:3044.339-651.400 429.525-403.540  91.126 381.298
 Approx polarizability:****************4228.787********2118.6401799.015

                      1                      2                      3
                      A                      A                      A
 Frequencies --      9.7907                15.0933                16.0751
 Red. masses --      7.1048                 5.5810                 5.4821
 Frc consts  --      0.0004                 0.0007                 0.0008
 IR Inten    --      1.0421                 2.2651                 1.4977

                      4                      5                      6
                      A                      A                      A
 Frequencies --     29.6864                32.9258                40.7614
 Red. masses --     10.6454                 2.8152                 2.7478
 Frc consts  --      0.0055                 0.0018                 0.0027
 IR Inten    --     35.7558                 1.5664                97.9514

                      7                      8                      9
                      A                      A                      A
 Frequencies --     41.0425                68.6177                77.7811
 Red. masses --      4.8120                 5.5443                 2.9619
 Frc consts  --      0.0048                 0.0154                 0.0106
 IR Inten    --    270.9862               253.0933                 0.9122

                     10                     11                     12
                      A                      A                      A
 Frequencies --     82.4338                94.7186               117.0450
 Red. masses --      1.7003                 6.6784                 5.1163
 Frc consts  --      0.0068                 0.0353                 0.0413
 IR Inten    --      0.3787                 6.3312                 5.6258

                     13                     14                     15
                      A                      A                      A
 Frequencies --    126.1603               128.0887               136.9003
 Red. masses --      1.9164                 2.1980                 4.8792
 Frc consts  --      0.0180                 0.0212                 0.0539
 IR Inten    --      1.1614                 1.5547               452.8046

                     16                     17                     18
                      A                      A                      A
 Frequencies --    154.2311               163.9198               165.1273
 Red. masses --      5.8309                 1.9099                 2.1094
 Frc consts  --      0.0817                 0.0302                 0.0339
 IR Inten    --      5.7515                 0.0163                 0.0344

                     19                     20                     21
                      A                      A                      A
 Frequencies --    178.9416               216.0734               251.5022
 Red. masses --      7.2945                 4.4215                 4.4747
 Frc consts  --      0.1376                 0.1216                 0.1668
 IR Inten    --      3.2327                48.2595                24.6816

                     22                     23                     24
                      A                      A                      A
 Frequencies --    261.8735               297.0383               315.3164
 Red. masses --      4.5447                 2.8686                 4.7786
 Frc consts  --      0.1836                 0.1491                 0.2799
 IR Inten    --    206.5961                 3.2480                 3.1128

                     25                     26                     27
                      A                      A                      A
 Frequencies --    349.3966               355.2219               374.7980
 Red. masses --      4.8744                 4.4536                 9.9081
 Frc consts  --      0.3506                 0.3311                 0.8200
 IR Inten    --     58.4566                 7.0529                11.5963

                     28                     29                     30
                      A                      A                      A
 Frequencies --    396.7542               425.3434               430.9182
 Red. masses --      4.5718                 5.1636                 7.9599
 Frc consts  --      0.4240                 0.5504                 0.8709
 IR Inten    --     34.7599                25.2378                56.7404

                     31                     32                     33
                      A                      A                      A
 Frequencies --    437.7910               445.9043               463.0496
 Red. masses --      1.0402                 4.1299                 3.2715
 Frc consts  --      0.1175                 0.4838                 0.4133
 IR Inten    --      0.4419                46.2600                11.6103

                     34                     35                     36
                      A                      A                      A
 Frequencies --    489.3546               497.4863               530.6532
 Red. masses --      5.3301                 3.0492                 6.1597
 Frc consts  --      0.7520                 0.4446                 1.0220
 IR Inten    --    216.7263                10.3233                83.3403

                     37                     38                     39
                      A                      A                      A
 Frequencies --    568.1294               634.3612               644.8359
 Red. masses --      5.5224                 1.2498                 6.0716
 Frc consts  --      1.0502                 0.2963                 1.4875
 IR Inten    --      0.6250               634.8854                13.9858

                     40                     41                     42
                      A                      A                      A
 Frequencies --    673.9308               698.9029               704.4875
 Red. masses --      5.6432                 3.0892                 2.5888
 Frc consts  --      1.5101                 0.8891                 0.7570
 IR Inten    --      3.1053                10.4491                33.7195

                     43                     44                     45
                      A                      A                      A
 Frequencies --    707.9795               727.1388               729.4577
 Red. masses --      4.5043                 1.0603                 1.0819
 Frc consts  --      1.3302                 0.3303                 0.3392
 IR Inten    --      4.5059                 2.2486                 2.1195

                     46                     47                     48
                      A                      A                      A
 Frequencies --    736.3906               742.6073               754.8980
 Red. masses --      1.1687                 1.2521                 1.2260
 Frc consts  --      0.3734                 0.4068                 0.4116
 IR Inten    --      1.6849               110.8887                 0.1358

                     49                     50                     51
                      A                      A                      A
 Frequencies --    758.6593               777.4631               788.6695
 Red. masses --      2.0311                 3.8669                 1.2940
 Frc consts  --      0.6888                 1.3771                 0.4742
 IR Inten    --      0.0973                 1.2231                 0.2801

                     52                     53                     54
                      A                      A                      A
 Frequencies --    834.7523               839.7610               878.7868
 Red. masses --      1.4569                 1.4136                 1.9062
 Frc consts  --      0.5981                 0.5874                 0.8673
 IR Inten    --      5.4350                 0.1455                12.2844

                     55                     56                     57
                      A                      A                      A
 Frequencies --    922.2234               941.8296               951.6215
 Red. masses --      1.5256                 6.0842                 5.2601
 Frc consts  --      0.7645                 3.1798                 2.8066
 IR Inten    --      7.5595                68.8831                 0.8863

                     58                     59                     60
                      A                      A                      A
 Frequencies --    957.5888               969.3624               977.3937
 Red. masses --      1.2787                 1.3202                 2.2149
 Frc consts  --      0.6908                 0.7309                 1.2466
 IR Inten    --      0.9826                 1.5604                 3.3739

                     61                     62                     63
                      A                      A                      A
 Frequencies --    980.4577              1003.3233              1024.2522
 Red. masses --      2.0735                 3.8880                 4.8846
 Frc consts  --      1.1744                 2.3060                 3.0192
 IR Inten    --      7.1438                35.4310                13.2767

                     64                     65                     66
                      A                      A                      A
 Frequencies --   1029.9070              1031.9157              1036.6044
 Red. masses --      2.2401                 1.5664                 2.1761
 Frc consts  --      1.4000                 0.9828                 1.3777
 IR Inten    --    123.4518                50.5646                 9.0737

                     67                     68                     69
                      A                      A                      A
 Frequencies --   1054.3098              1058.8717              1059.3275
 Red. masses --      2.4755                 2.0566                 2.1557
 Frc consts  --      1.6212                 1.3586                 1.4252
 IR Inten    --      1.8032                27.8150                24.5134

                     70                     71                     72
                      A                      A                      A
 Frequencies --   1074.8466              1102.5496              1104.9397
 Red. masses --      3.4013                 2.2870                 3.3587
 Frc consts  --      2.3152                 1.6380                 2.4160
 IR Inten    --     26.0406                11.4354                41.2747

                     73                     74                     75
                      A                      A                      A
 Frequencies --   1131.7951              1145.9069              1191.5957
 Red. masses --      1.9109                 1.2714                 2.6765
 Frc consts  --      1.4422                 0.9836                 2.2391
 IR Inten    --     74.1327                83.3130               259.0527

                     76                     77                     78
                      A                      A                      A
 Frequencies --   1198.6390              1201.0527              1213.9554
 Red. masses --      1.8725                 2.2919                 1.2027
 Frc consts  --      1.5851                 1.9480                 1.0442
 IR Inten    --     41.8818                36.5734                 1.3499

                     79                     80                     81
                      A                      A                      A
 Frequencies --   1234.1081              1249.4209              1251.2895
 Red. masses --      1.6073                 1.3295                 2.2600
 Frc consts  --      1.4423                 1.2228                 2.0848
 IR Inten    --      5.5875                18.5050                72.0904

                     82                     83                     84
                      A                      A                      A
 Frequencies --   1271.9066              1283.6266              1290.0306
 Red. masses --      1.4650                 1.5173                 1.7207
 Frc consts  --      1.3963                 1.4730                 1.6872
 IR Inten    --     39.0827                15.3283                34.5037

                     85                     86                     87
                      A                      A                      A
 Frequencies --   1303.2144              1314.4018              1316.5004
 Red. masses --      1.2955                 1.0507                 1.3387
 Frc consts  --      1.2963                 1.0695                 1.3670
 IR Inten    --     20.0740                 3.6730               112.0180

                     88                     89                     90
                      A                      A                      A
 Frequencies --   1320.8094              1325.2783              1331.9693
 Red. masses --      1.0861                 1.1206                 1.0901
 Frc consts  --      1.1164                 1.1596                 1.1395
 IR Inten    --      4.7525                37.2096                 0.3235

                     91                     92                     93
                      A                      A                      A
 Frequencies --   1335.1966              1337.8363              1347.5152
 Red. masses --      1.1453                 1.3947                 4.3486
 Frc consts  --      1.2030                 1.4707                 4.6523
 IR Inten    --    103.3710               115.3684               142.0520

                     94                     95                     96
                      A                      A                      A
 Frequencies --   1352.3455              1364.1472              1375.7178
 Red. masses --      2.1144                 1.5338                 1.5134
 Frc consts  --      2.2783                 1.6816                 1.6876
 IR Inten    --    278.2996                87.0535                 3.3702

                     97                     98                     99
                      A                      A                      A
 Frequencies --   1387.3081              1389.5793              1431.4715
 Red. masses --      1.5518                 1.6057                 2.6355
 Frc consts  --      1.7597                 1.8268                 3.1819
 IR Inten    --      1.9062                 0.0648              1376.6687

                    100                    101                    102
                      A                      A                      A
 Frequencies --   1455.5496              1457.4276              1461.5558
 Red. masses --      1.6013                 2.8069                 1.1207
 Frc consts  --      1.9988                 3.5128                 1.4105
 IR Inten    --    255.6621               139.2565                20.2106

                    103                    104                    105
                      A                      A                      A
 Frequencies --   1477.0179              1478.5916              1481.4795
 Red. masses --      1.1963                 1.6348                 1.1199
 Frc consts  --      1.5376                 2.1057                 1.4482
 IR Inten    --    211.0287               215.2777                58.5006

                    106                    107                    108
                      A                      A                      A
 Frequencies --   1482.2573              1484.9576              1488.1158
 Red. masses --      1.0964                 1.1179                 1.0958
 Frc consts  --      1.4193                 1.4523                 1.4297
 IR Inten    --     37.6528                27.4526                 1.5108

                    109                    110                    111
                      A                      A                      A
 Frequencies --   1496.1783              1504.9341              1512.1416
 Red. masses --      1.1002                 1.1010                 1.1001
 Frc consts  --      1.4511                 1.4692                 1.4821
 IR Inten    --      1.5135                 0.2607                 6.6886

                    112                    113                    114
                      A                      A                      A
 Frequencies --   1513.3296              1526.5739              1562.6303
 Red. masses --      4.3823                 5.5581                 4.7662
 Frc consts  --      5.9132                 7.6316                 6.8570
 IR Inten    --   1914.3330               657.5859              1312.3019

                    115                    116                    117
                      A                      A                      A
 Frequencies --   1606.5244              1622.1219              2979.9554
 Red. masses --      5.5478                 5.7118                 1.0565
 Frc consts  --      8.4362                 8.8551                 5.5277
 IR Inten    --     38.0997              2230.9985               372.6201

                    118                    119                    120
                      A                      A                      A
 Frequencies --   2980.5668              2984.7790              2986.6869
 Red. masses --      1.0578                 1.0570                 1.0579
 Frc consts  --      5.5368                 5.5483                 5.5602
 IR Inten    --     18.7238                26.7119                27.1769

                    121                    122                    123
                      A                      A                      A
 Frequencies --   2989.8592              2996.3229              2998.9318
 Red. masses --      1.0585                 1.0652                 1.0906
 Frc consts  --      5.5751                 5.6344                 5.7791
 IR Inten    --     28.8829                34.8103                 3.2539

                    124                    125                    126
                      A                      A                      A
 Frequencies --   3001.0823              3003.6943              3006.7958
 Red. masses --      1.0976                 1.0594                 1.0708
 Frc consts  --      5.8244                 5.6315                 5.7036
 IR Inten    --      0.4876               162.6004                15.6379

                    127                    128                    129
                      A                      A                      A
 Frequencies --   3008.8103              3014.0554              3017.3866
 Red. masses --      1.0886                 1.0999                 1.0661
 Frc consts  --      5.8066                 5.8870                 5.7191
 IR Inten    --     13.5133                10.2441               107.1679

                    130                    131                    132
                      A                      A                      A
 Frequencies --   3024.7381              3037.7253              3044.7035
 Red. masses --      1.1029                 1.1043                 1.1023
 Frc consts  --      5.9452                 6.0041                 6.0207
 IR Inten    --     11.6285                13.4989                 2.3042

                    133                    134                    135
                      A                      A                      A
 Frequencies --   3049.4616              3066.3093              3120.9048
 Red. masses --      1.1057                 1.1061                 1.0839
 Frc consts  --      6.0581                 6.1271                 6.2203
 IR Inten    --    192.8808                62.3265                39.2107

                    136                    137                    138
                      A                      A                      A
 Frequencies --   3142.0322              3157.3298              3171.4572
 Red. masses --      1.0905                 1.0510                 1.0911
 Frc consts  --      6.3432                 6.1732                 6.4662
 IR Inten    --    166.9682                 8.5258                32.5238

                    139                    140                    141
                      A                      A                      A
 Frequencies --   3174.3979              3256.5972              3449.3222
 Red. masses --      1.0925                 1.1183                 1.0636
 Frc consts  --      6.4862                 6.9880                 7.4556
 IR Inten    --    150.4688                 8.0413                40.8378

 - Thermochemistry -
 -------------------
 Temperature   298.150 Kelvin.  Pressure   1.00000 Atm.
 Atom     1 has atomic number  6 and mass  12.00000

 Molecular mass:   392.09871 amu.
 Principal axes and moments of inertia in atomic units:
                           1         2         3
     Eigenvalues --  2616.70737********************
           X            0.95542   0.11557   0.27167
           Y           -0.25582  -0.13529   0.95721
           Z           -0.14738   0.98404   0.09969
 This molecule is an asymmetric top.
 Rotational symmetry number  1.
 Warning -- assumption of classical behavior for rotation
           may cause significant error
 Rotational temperatures (Kelvin)      0.03310     0.00126     0.00124
 Rotational constants (GHZ):           0.68970     0.02626     0.02575
 Zero-point vibrational energy    1057931.1 (Joules/Mol)
                                  252.85159 (Kcal/Mol)
 Warning -- explicit consideration of  37 degrees of freedom as
           vibrations may cause significant error
 Vibrational temperatures:     14.09    21.72    23.13    42.71    47.37
          (Kelvin)             58.65    59.05    98.73   111.91   118.60
                              136.28   168.40   181.52   184.29   196.97
                              221.90   235.84   237.58   257.46   310.88
                              361.86   376.78   427.37   453.67   502.70
                              511.09   539.25   570.84   611.97   620.00
                              629.88   641.56   666.23   704.07   715.77
                              763.49   817.41   912.70   927.78   969.64
                             1005.57  1013.60  1018.62  1046.19  1049.53
                             1059.50  1068.45  1086.13  1091.54  1118.60
                             1134.72  1201.02  1208.23  1264.38  1326.87
                             1355.08  1369.17  1377.76  1394.70  1406.25
                             1410.66  1443.56  1473.67  1481.81  1484.70
                             1491.44  1516.92  1523.48  1524.14  1546.46
                             1586.32  1589.76  1628.40  1648.70  1714.44
                             1724.57  1728.05  1746.61  1775.61  1797.64
                             1800.33  1829.99  1846.85  1856.07  1875.03
                             1891.13  1894.15  1900.35  1906.78  1916.41
                             1921.05  1924.85  1938.77  1945.72  1962.70
                             1979.35  1996.03  1999.29  2059.57  2094.21
                             2096.91  2102.85  2125.10  2127.36  2131.52
                             2132.64  2136.52  2141.07  2152.67  2165.26
                             2175.63  2177.34  2196.40  2248.28  2311.43
                             2333.87  4287.49  4288.37  4294.43  4297.18
                             4301.74  4311.04  4314.79  4317.89  4321.65
                             4326.11  4329.01  4336.55  4341.35  4351.92
                             4370.61  4380.65  4387.50  4411.74  4490.29
                             4520.68  4542.69  4563.02  4567.25  4685.52
                             4962.81

 Zero-point correction=                           0.402945 (Hartree/Particle)
 Thermal correction to Energy=                    0.428874
 Thermal correction to Enthalpy=                  0.429818
 Thermal correction to Gibbs Free Energy=         0.339800
 Sum of electronic and zero-point Energies=          -3576.928449
 Sum of electronic and thermal Energies=             -3576.902519
 Sum of electronic and thermal Enthalpies=           -3576.901575
 Sum of electronic and thermal Free Energies=        -3576.991593

                     E (Thermal)             CV                S
                      KCal/Mol        Cal/Mol-Kelvin    Cal/Mol-Kelvin
 Total                  269.123             94.301            189.460
 Electronic               0.000              0.000              0.000
 Translational            0.889              2.981             43.791
 Rotational               0.889              2.981             37.775
 Vibrational            267.345             88.339            107.894
 Vibration     1          0.593              1.987              8.053
 Vibration     2          0.593              1.986              7.193
 Vibration     3          0.593              1.986              7.068
 Vibration     4          0.593              1.984              5.850
 Vibration     5          0.594              1.983              5.645
 Vibration     6          0.594              1.981              5.222
 Vibration     7          0.594              1.981              5.208
 Vibration     8          0.598              1.969              4.193
 Vibration     9          0.599              1.964              3.946
 Vibration    10          0.600              1.961              3.832
 Vibration    11          0.603              1.953              3.560
 Vibration    12          0.608              1.935              3.149
 Vibration    13          0.611              1.927              3.004
 Vibration    14          0.611              1.925              2.975
 Vibration    15          0.614              1.916              2.847
 Vibration    16          0.620              1.898              2.619
 Vibration    17          0.623              1.887              2.504
 Vibration    18          0.624              1.885              2.490
 Vibration    19          0.629              1.868              2.339
 Vibration    20          0.645              1.817              1.992
 Vibration    21          0.663              1.760              1.720
 Vibration    22          0.669              1.743              1.649
 Vibration    23          0.691              1.679              1.434
 Vibration    24          0.703              1.644              1.334
 Vibration    25          0.727              1.576              1.169
 Vibration    26          0.731              1.565              1.143
 Vibration    27          0.746              1.524              1.060
 Vibration    28          0.763              1.477              0.975
 Vibration    29          0.787              1.415              0.874
 Vibration    30          0.792              1.403              0.856
 Vibration    31          0.798              1.388              0.834
 Vibration    32          0.805              1.370              0.808
 Vibration    33          0.821              1.332              0.757
 Vibration    34          0.845              1.274              0.685
 Vibration    35          0.853              1.256              0.664
 Vibration    36          0.886              1.182              0.586
 Vibration    37          0.924              1.100              0.508

 Optimization completed.
    -- Stationary point found.
 Normal termination of Gaussian 16 at Fri Feb  2 02:50:40 2024.
