 Gaussian 16, Revision A.03,
 Gaussian 16:  ES64L-G16RevA.03 25-Dec-2016

 --------------------------------------
 #P UB3LYP/6-311++G(d,p) nosym opt freq
 --------------------------------------

 --------
 Oxidized
 --------
 Symbolic Z-matrix:
 Charge =  0 Multiplicity = 1

 SCF Done:  E(UB3LYP) =  -650.808610336     A.U. after   15 cycles
 SCF Done:  E(UB3LYP) =  -650.830833008     A.U. after   13 cycles
 SCF Done:  E(UB3LYP) =  -650.832543763     A.U. after   12 cycles
 SCF Done:  E(UB3LYP) =  -650.832671958     A.U. after   11 cycles
 SCF Done:  E(UB3LYP) =  -650.832679074     A.U. after   10 cycles
 Optimization completed.
    -- Stationary point found.
 Normal termination of Gaussian 16 at Sat Jan  6 01:46:18 2024.

 ----------------------------------------------------------------------
 #P Geom=AllCheck Guess=TCheck SCRF=Check GenChk UB3LYP/6-311++G(d,p) F
 req
 ----------------------------------------------------------------------

 Structure from the checkpoint file:  "335.chk"
 --------
 Oxidized
 --------
 Charge =  0 Multiplicity = 1

                          Input orientation:
 ---------------------------------------------------------------------
 Center     Atomic      Atomic             Coordinates (Angstroms)
 Number     Number       Type             X           Y           Z
 ---------------------------------------------------------------------
      1          8           0        0.124583    0.411135    2.650966
      2          6           0        0.067847    0.223898    1.443221
      3          6           0       -1.209604    0.111906    0.708773
      4          6           0       -2.440846    0.217409    1.377076
      5          6           0       -3.632973    0.111466    0.683832
      6          6           0       -3.614456   -0.103848   -0.702826
      7          6           0       -2.414180   -0.211630   -1.386348
      8          6           0       -1.215579   -0.103005   -0.676001
      9          8           0       -0.066192   -0.217929   -1.406443
     10          6           0        1.146945   -0.123133   -0.783851
     11          6           0        2.273548   -0.251450   -1.600739
     12          6           0        3.532883   -0.164855   -1.029460
     13          6           0        3.681470    0.048585    0.349505
     14          6           0        2.559550    0.174217    1.148735
     15          6           0        1.271011    0.090518    0.595572
     16          1           0       -2.417235    0.383504    2.447416
     17          1           0       -4.578141    0.193984    1.206855
     18          1           0       -4.546836   -0.187446   -1.249529
     19          1           0       -2.378887   -0.377722   -2.455949
     20          1           0        2.138217   -0.415825   -2.662560
     21          1           0        4.410073   -0.263724   -1.658737
     22          1           0        4.671794    0.114350    0.783879
     23          1           0        2.637007    0.339593    2.216614
 ---------------------------------------------------------------------

 SCF Done:  E(UB3LYP) =  -650.832679074     A.U. after    2 cycles

 Alpha  occ. eigenvalues --  -19.20479 -19.10607 -10.26648 -10.26646 -10.26589
 Alpha  occ. eigenvalues --  -10.20121 -10.20121 -10.19953 -10.19950 -10.19596
 Alpha  occ. eigenvalues --  -10.19594 -10.19477 -10.19475 -10.19062 -10.19061
 Alpha  occ. eigenvalues --   -1.12721  -1.04094  -0.88896  -0.87657  -0.80098
 Alpha  occ. eigenvalues --   -0.79374  -0.77202  -0.75422  -0.67629  -0.66906
 Alpha  occ. eigenvalues --   -0.61968  -0.61773  -0.58163  -0.57053  -0.52243
 Alpha  occ. eigenvalues --   -0.50777  -0.49151  -0.48676  -0.48376  -0.45481
 Alpha  occ. eigenvalues --   -0.45402  -0.44729  -0.43555  -0.41503  -0.40984
 Alpha  occ. eigenvalues --   -0.40288  -0.39456  -0.37937  -0.37700  -0.35730
 Alpha  occ. eigenvalues --   -0.35556  -0.28300  -0.27723  -0.27606  -0.26339
 Alpha  occ. eigenvalues --   -0.24442
 Alpha virt. eigenvalues --   -0.08230  -0.03842  -0.02689  -0.01553  -0.01030
 Alpha virt. eigenvalues --   -0.00514   0.00780   0.01610   0.01637   0.03520
 Alpha virt. eigenvalues --    0.03639   0.03782   0.03976   0.04625   0.06017

  Beta  occ. eigenvalues --  -19.20479 -19.10607 -10.26648 -10.26646 -10.26589
  Beta  occ. eigenvalues --  -10.20121 -10.20121 -10.19953 -10.19950 -10.19596
  Beta  occ. eigenvalues --  -10.19594 -10.19477 -10.19475 -10.19062 -10.19061
  Beta  occ. eigenvalues --   -1.12721  -1.04094  -0.88896  -0.87657  -0.80098
  Beta  occ. eigenvalues --   -0.79374  -0.77202  -0.75422  -0.67629  -0.66906
  Beta  occ. eigenvalues --   -0.61968  -0.61773  -0.58163  -0.57053  -0.52243
  Beta  occ. eigenvalues --   -0.50777  -0.49151  -0.48676  -0.48376  -0.45481
  Beta  occ. eigenvalues --   -0.45402  -0.44729  -0.43555  -0.41503  -0.40984
  Beta  occ. eigenvalues --   -0.40288  -0.39456  -0.37937  -0.37700  -0.35730
  Beta  occ. eigenvalues --   -0.35556  -0.28300  -0.27723  -0.27606  -0.26339
  Beta  occ. eigenvalues --   -0.24442
  Beta virt. eigenvalues --   -0.08230  -0.03842  -0.02689  -0.01553  -0.01030
  Beta virt. eigenvalues --   -0.00514   0.00780   0.01610   0.01637   0.03520
  Beta virt. eigenvalues --    0.03639   0.03782   0.03976   0.04625   0.06017

 Mulliken charges and spin densities:
               1          2
     1  O   -0.267531  -0.000000
     2  C   -0.458383   0.000000
     3  C    1.188970  -0.000000
     4  C    0.385380   0.000000
     5  C   -0.245403  -0.000000
     6  C   -0.300332   0.000000
     7  C   -0.366441   0.000000
     8  C   -1.005740   0.000000
     9  O   -0.032721  -0.000000
    10  C   -1.006106  -0.000000
    11  C   -0.365769   0.000000
    12  C   -0.300432  -0.000000
    13  C   -0.245158  -0.000000
    14  C    0.385337   0.000000
    15  C    1.188421  -0.000000
    16  H    0.197374   0.000000
    17  H    0.169916  -0.000000
    18  H    0.172886   0.000000
    19  H    0.182764  -0.000000
    20  H    0.182792   0.000000
    21  H    0.172878  -0.000000
    22  H    0.169919  -0.000000
    23  H    0.197379   0.000000
 Sum of Mulliken charges =  -0.00000   0.00000

 Dipole moment (field-independent basis, Debye):
    X=             -0.1430    Y=             -0.4762    Z=             -3.0694  Tot=              3.1095
 Quadrupole moment (field-independent basis, Debye-Ang):
   XX=            -66.5978   YY=            -90.1933   ZZ=            -89.6858
   XY=             -0.1985   XZ=             -1.0557   YZ=              0.0819

  Exact polarizability: 233.537  -0.715  79.413  -3.124  13.257 162.799
 Approx polarizability: 334.190  -0.443 126.893  -0.836  29.155 310.322

                      1                      2                      3
                      A                      A                      A
 Frequencies --     61.3479               117.3111               144.9870
 Red. masses --      6.1520                 3.8958                 6.2793
 Frc consts  --      0.0136                 0.0316                 0.0778
 IR Inten    --      3.4995                 0.0000                 0.4017

                      4                      5                      6
                      A                      A                      A
 Frequencies --    231.7171               242.2820               285.6940
 Red. masses --      4.7949                 5.0137                 6.6928
 Frc consts  --      0.1517                 0.1734                 0.3219
 IR Inten    --      2.0530                 0.0000                 0.2748

                      7                      8                      9
                      A                      A                      A
 Frequencies --    319.6390               383.8451               418.0866
 Red. masses --      8.0474                 6.9230                 3.6025
 Frc consts  --      0.4844                 0.6010                 0.3710
 IR Inten    --     10.0869                 3.4096                 0.5280

                     10                     11                     12
                      A                      A                      A
 Frequencies --    445.7609               460.8884               522.6868
 Red. masses --      6.7675                 3.2782                 3.5605
 Frc consts  --      0.7923                 0.4103                 0.5731
 IR Inten    --      1.9178                 0.0000                 0.0000

                     13                     14                     15
                      A                      A                      A
 Frequencies --    527.7966               546.9196               601.9804
 Red. masses --     10.9103                 3.5876                 7.9483
 Frc consts  --      1.7907                 0.6323                 1.6970
 IR Inten    --      0.0914                 9.2096                 2.7405

                     16                     17                     18
                      A                      A                      A
 Frequencies --    642.6574               664.7303               685.0538
 Red. masses --      6.9453                 6.6273                 3.5851
 Frc consts  --      1.6901                 1.7254                 0.9913
 IR Inten    --     15.3471                 2.3354                25.0493

                     19                     20                     21
                      A                      A                      A
 Frequencies --    710.9908               732.3677               772.9336
 Red. masses --      6.2908                 3.9739                 1.6223
 Frc consts  --      1.8736                 1.2558                 0.5710
 IR Inten    --      0.0743                 0.0000               119.6623

                     22                     23                     24
                      A                      A                      A
 Frequencies --    777.6728               815.2178               849.0593
 Red. masses --      1.2832                 2.6874                 6.4211
 Frc consts  --      0.4572                 1.0523                 2.7273
 IR Inten    --      0.0011                10.2752                 4.4590

                     25                     26                     27
                      A                      A                      A
 Frequencies --    877.5724               884.6961               894.4462
 Red. masses --      1.3994                 1.6378                 6.6596
 Frc consts  --      0.6350                 0.7553                 3.1391
 IR Inten    --      0.0000                 0.9631                11.8436

                     28                     29                     30
                      A                      A                      A
 Frequencies --    944.7490               980.5548               982.1022
 Red. masses --      6.9630                 1.3465                 1.3577
 Frc consts  --      3.6617                 0.7628                 0.7715
 IR Inten    --     33.5476                 0.0035                 3.0348

                     31                     32                     33
                      A                      A                      A
 Frequencies --   1002.5321              1003.4296              1046.8212
 Red. masses --      1.3053                 1.3156                 2.1943
 Frc consts  --      0.7730                 0.7805                 1.4167
 IR Inten    --      0.0002                 0.4548                 0.3323

                     34                     35                     36
                      A                      A                      A
 Frequencies --   1051.1719              1122.9934              1132.6710
 Red. masses --      1.8588                 1.8213                 1.9248
 Frc consts  --      1.2101                 1.3533                 1.4549
 IR Inten    --      8.2080                28.9905                 6.6469

                     37                     38                     39
                      A                      A                      A
 Frequencies --   1169.3075              1173.3124              1198.5458
 Red. masses --      1.3202                 1.1996                 2.0395
 Frc consts  --      1.0635                 0.9730                 1.7261
 IR Inten    --     27.8948                 2.4100                 4.8220

                     40                     41                     42
                      A                      A                      A
 Frequencies --   1233.9277              1238.7269              1251.4766
 Red. masses --      3.1176                 1.7398                 3.9520
 Frc consts  --      2.7967                 1.5729                 3.6468
 IR Inten    --     14.2887                19.4466                56.4356

                     43                     44                     45
                      A                      A                      A
 Frequencies --   1300.9303              1343.2039              1359.8412
 Red. masses --      1.5739                 3.1335                 8.1791
 Frc consts  --      1.5694                 3.3310                 8.9111
 IR Inten    --      3.9903               143.0264                12.1712

                     46                     47                     48
                      A                      A                      A
 Frequencies --   1368.5580              1487.5165              1489.9064
 Red. masses --      4.3476                 2.5230                 2.5611
 Frc consts  --      4.7976                 3.2892                 3.3496
 IR Inten    --    126.9207               222.9262                 1.2101

                     49                     50                     51
                      A                      A                      A
 Frequencies --   1498.8009              1510.5388              1602.3750
 Red. masses --      2.8987                 2.5601                 6.3483
 Frc consts  --      3.8365                 3.4417                 9.6037
 IR Inten    --    108.4762                18.6282                 4.2008

                     52                     53                     54
                      A                      A                      A
 Frequencies --   1625.1314              1642.3797              1653.6424
 Red. masses --      7.0639                 6.1087                 6.7503
 Frc consts  --     10.9918                 9.7083                10.8756
 IR Inten    --      1.5622               165.9931                72.4912

                     55                     56                     57
                      A                      A                      A
 Frequencies --   1716.4933              3172.2912              3172.3657
 Red. masses --     12.0919                 1.0867                 1.0868
 Frc consts  --     20.9909                 6.4435                 6.4441
 IR Inten    --    295.1622                 1.3266                 5.3886

                     58                     59                     60
                      A                      A                      A
 Frequencies --   3185.8656              3185.9480              3196.9463
 Red. masses --      1.0900                 1.0901                 1.0933
 Frc consts  --      6.5183                 6.5192                 6.5836
 IR Inten    --     12.1840                 1.9269                 2.5378

                     61                     62                     63
                      A                      A                      A
 Frequencies --   3197.3697              3200.8658              3201.2590
 Red. masses --      1.0934                 1.0967                 1.0967
 Frc consts  --      6.5861                 6.6201                 6.6221
 IR Inten    --      4.1416                17.0005                 2.2557

 - Thermochemistry -
 -------------------
 Temperature   298.150 Kelvin.  Pressure   1.00000 Atm.
 Atom     1 has atomic number  8 and mass  15.99491

 Molecular mass:   196.05243 amu.
 Principal axes and moments of inertia in atomic units:
                           1         2         3
     Eigenvalues --  1233.697243888.322195122.01940
           X            0.99892   0.04642   0.00146
           Y           -0.00856   0.15306   0.98818
           Z           -0.04565   0.98713  -0.15329
 This molecule is an asymmetric top.
 Rotational symmetry number  1.
 Warning -- assumption of classical behavior for rotation
           may cause significant error
 Rotational temperatures (Kelvin)      0.07021     0.02228     0.01691
 Rotational constants (GHZ):           1.46287     0.46414     0.35235
 Zero-point vibrational energy     456153.4 (Joules/Mol)
                                  109.02328 (Kcal/Mol)
 Warning -- explicit consideration of  15 degrees of freedom as
           vibrations may cause significant error
 Vibrational temperatures:     88.27   168.78   208.60   333.39   348.59
          (Kelvin)            411.05   459.89   552.27   601.53   641.35
                              663.12   752.03   759.38   786.90   866.12
                              924.64   956.40   985.64  1022.96  1053.71
                             1112.08  1118.90  1172.92  1221.61  1262.63
                             1272.88  1286.91  1359.28  1410.80  1413.03
                             1442.42  1443.71  1506.14  1512.40  1615.74
                             1629.66  1682.37  1688.13  1724.44  1775.35
                             1782.25  1800.60  1871.75  1932.57  1956.51
                             1969.05  2140.20  2143.64  2156.44  2173.33
                             2305.46  2338.20  2363.02  2379.22  2469.65
                             4564.22  4564.33  4583.75  4583.87  4599.69
                             4600.30  4605.33  4605.90

 Zero-point correction=                           0.173740 (Hartree/Particle)
 Thermal correction to Energy=                    0.184031
 Thermal correction to Enthalpy=                  0.184975
 Thermal correction to Gibbs Free Energy=         0.137553
 Sum of electronic and zero-point Energies=           -650.658939
 Sum of electronic and thermal Energies=              -650.648648
 Sum of electronic and thermal Enthalpies=            -650.647704
 Sum of electronic and thermal Free Energies=         -650.695126

                     E (Thermal)             CV                S
                      KCal/Mol        Cal/Mol-Kelvin    Cal/Mol-Kelvin
 Total                  115.481             42.695             99.810
 Electronic               0.000              0.000              0.000
 Translational            0.889              2.981             41.725
 Rotational               0.889              2.981             31.575
 Vibrational            113.704             36.733             26.510
 Vibration     1          0.597              1.973              4.413
 Vibration     2          0.608              1.935              3.144
 Vibration     3          0.616              1.908              2.737
 Vibration     4          0.653              1.792              1.866
 Vibration     5          0.658              1.776              1.786
 Vibration     6          0.683              1.700              1.499
 Vibration     7          0.706              1.636              1.312
 Vibration     8          0.753              1.505              1.024
 Vibration     9          0.781              1.431              0.898
 Vibration    10          0.805              1.370              0.809
 Vibration    11          0.819              1.337              0.764
 Vibration    12          0.878              1.200              0.604
 Vibration    13          0.883              1.188              0.592
 Vibration    14          0.902              1.146              0.551
 Vibration    15          0.960              1.028              0.446

 Optimization completed.
    -- Stationary point found.
 Normal termination of Gaussian 16 at Sat Jan  6 02:06:58 2024.
