 Gaussian 16, Revision A.03,
 Gaussian 16:  ES64L-G16RevA.03 25-Dec-2016

 ----------------------------------------------------------------
 #P UB3LYP/6-311++G(d,p) SCRF=(PCM,Solvent=n,n-DiMethylFormamide)
 ----------------------------------------------------------------

 -------
 Reduced
 -------
 Symbolic Z-matrix:
 Charge = -2 Multiplicity = 1

                         Standard orientation:
 ---------------------------------------------------------------------
 Center     Atomic      Atomic             Coordinates (Angstroms)
 Number     Number       Type             X           Y           Z
 ---------------------------------------------------------------------
      1          6           0        3.186175    0.049574    0.725961
      2          8           0        2.262033    0.456865   -0.268641
      3          6           0        0.988287   -0.100737   -0.115243
      4          6           0       -0.087423    0.775683    0.098014
      5          8           0        0.210108    2.126659    0.308277
      6          6           0       -0.337747    2.991787   -0.671006
      7          6           0       -1.454621    0.342470    0.180051
      8          8           0       -2.452346    1.153181    0.383591
      9          6           0       -1.627083   -1.074706    0.034602
     10          6           0       -0.545266   -1.938911   -0.152160
     11          6           0        0.819512   -1.523628   -0.250236
     12          8           0        1.807295   -2.342443   -0.453949
     13          6           0       -3.035223   -1.605909    0.127190
     14          1           0        3.267828   -1.042169    0.744246
     15          1           0        4.154725    0.497348    0.464991
     16          1           0        2.884727    0.424193    1.718883
     17          1           0        0.118996    2.806287   -1.657954
     18          1           0       -0.094539    4.017585   -0.362586
     19          1           0       -1.423606    2.863129   -0.727849
     20          1           0       -0.725234   -3.009812   -0.259986
     21          1           0       -3.686920   -1.160085   -0.638301
     22          1           0       -3.051437   -2.697397    0.011395
     23          1           0       -3.500926   -1.346907    1.089908
 ---------------------------------------------------------------------

 SCF Done:  E(UB3LYP) =  -650.255398728     A.U. after   17 cycles

 The electronic state is 1-A.
 Alpha  occ. eigenvalues --  -19.10798 -19.10771 -19.00887 -19.00790 -10.18832
 Alpha  occ. eigenvalues --  -10.18829 -10.16876 -10.16693 -10.16231 -10.15872
 Alpha  occ. eigenvalues --  -10.13768 -10.12228 -10.11205  -1.02654  -1.00927
 Alpha  occ. eigenvalues --   -0.91899  -0.91603  -0.77666  -0.72694  -0.67841
 Alpha  occ. eigenvalues --   -0.67190  -0.63154  -0.60978  -0.54332  -0.52188
 Alpha  occ. eigenvalues --   -0.47441  -0.45703  -0.44896  -0.43938  -0.42273
 Alpha  occ. eigenvalues --   -0.41846  -0.40161  -0.38834  -0.38727  -0.35659
 Alpha  occ. eigenvalues --   -0.35384  -0.34175  -0.33341  -0.32689  -0.31846
 Alpha  occ. eigenvalues --   -0.31015  -0.29971  -0.25631  -0.25423  -0.21465
 Alpha  occ. eigenvalues --   -0.18877  -0.18626  -0.18521  -0.11032
 Alpha virt. eigenvalues --   -0.00016   0.01059   0.01349   0.02502   0.03209
 Alpha virt. eigenvalues --    0.03619   0.03704   0.04058   0.05054   0.05248
 Alpha virt. eigenvalues --    0.05705   0.06956   0.07256   0.07479   0.07949

  Beta  occ. eigenvalues --  -19.10798 -19.10771 -19.00887 -19.00790 -10.18832
  Beta  occ. eigenvalues --  -10.18829 -10.16876 -10.16693 -10.16231 -10.15872
  Beta  occ. eigenvalues --  -10.13768 -10.12228 -10.11205  -1.02654  -1.00927
  Beta  occ. eigenvalues --   -0.91899  -0.91603  -0.77666  -0.72694  -0.67841
  Beta  occ. eigenvalues --   -0.67190  -0.63154  -0.60978  -0.54332  -0.52188
  Beta  occ. eigenvalues --   -0.47441  -0.45703  -0.44896  -0.43938  -0.42273
  Beta  occ. eigenvalues --   -0.41846  -0.40161  -0.38834  -0.38727  -0.35659
  Beta  occ. eigenvalues --   -0.35384  -0.34175  -0.33341  -0.32689  -0.31846
  Beta  occ. eigenvalues --   -0.31015  -0.29971  -0.25631  -0.25423  -0.21465
  Beta  occ. eigenvalues --   -0.18877  -0.18626  -0.18521  -0.11032
  Beta virt. eigenvalues --   -0.00016   0.01059   0.01349   0.02502   0.03209
  Beta virt. eigenvalues --    0.03619   0.03704   0.04058   0.05054   0.05248
  Beta virt. eigenvalues --    0.05705   0.06956   0.07256   0.07479   0.07949

 Mulliken charges and spin densities:
               1          2
     1  C   -0.235785   0.000000
     2  O   -0.227352  -0.000000
     3  C    0.083846   0.000000
     4  C   -0.250495  -0.000000
     5  O   -0.220764   0.000000
     6  C   -0.236721   0.000000
     7  C   -0.460348  -0.000000
     8  O   -0.721328  -0.000000
     9  C    1.096962  -0.000000
    10  C   -0.742909   0.000000
    11  C   -0.269058  -0.000000
    12  O   -0.733043   0.000000
    13  C   -0.413821   0.000000
    14  H    0.170182  -0.000000
    15  H    0.131907  -0.000000
    16  H    0.112822   0.000000
    17  H    0.114386  -0.000000
    18  H    0.132581  -0.000000
    19  H    0.166968  -0.000000
    20  H    0.100754   0.000000
    21  H    0.136517   0.000000
    22  H    0.130080  -0.000000
    23  H    0.134618   0.000000
 Sum of Mulliken charges =  -2.00000  -0.00000

 Dipole moment (field-independent basis, Debye):
    X=              1.4029    Y=              4.1023    Z=              0.3086  Tot=              4.3465
 Quadrupole moment (field-independent basis, Debye-Ang):
   XX=           -124.1529   YY=           -116.2725   ZZ=            -88.4612
   XY=             21.7802   XZ=             10.4972   YZ=             -8.9916

 Normal termination of Gaussian 16 at Wed Jan 24 22:51:41 2024.
