 Gaussian 16, Revision A.03,
 Gaussian 16:  ES64L-G16RevA.03 25-Dec-2016

 ----------------------------------------------------------------
 #P UB3LYP/6-311++G(d,p) SCRF=(PCM,Solvent=n,n-DiMethylFormamide)
 ----------------------------------------------------------------

 ------------------
 Quinone PCM in DMF
 ------------------
 Symbolic Z-matrix:
 Charge =  0 Multiplicity = 1

                         Standard orientation:
 ---------------------------------------------------------------------
 Center     Atomic      Atomic             Coordinates (Angstroms)
 Number     Number       Type             X           Y           Z
 ---------------------------------------------------------------------
      1          6           0       -3.224119   -1.395670    0.000269
      2          6           0       -4.424716   -0.700026    0.000119
      3          6           0       -4.424699    0.699928   -0.000181
      4          6           0       -2.007378   -0.700776    0.000141
      5          6           0       -2.007369    0.700644   -0.000082
      6          6           0       -3.224082    1.395550   -0.000260
      7          6           0       -0.734821   -1.462721    0.000128
      8          6           0       -0.734809    1.462622   -0.000005
      9          6           0        0.526828   -0.719810   -0.000103
     10          6           0        0.526818    0.719762   -0.000160
     11          6           0        1.757150   -1.436226   -0.000209
     12          6           0        2.964356   -0.683202   -0.000322
     13          6           0        2.964341    0.683336   -0.000356
     14          6           0        1.757096    1.436271   -0.000204
     15          8           0       -0.782308   -2.705749    0.000244
     16          8           0       -0.782333    2.705651   -0.000045
     17          1           0       -3.198365   -2.477889    0.000472
     18          1           0       -5.363984   -1.241835    0.000215
     19          1           0       -5.363962    1.241747   -0.000320
     20          1           0       -3.198310    2.477767   -0.000454
     21          1           0        3.912679    1.204470   -0.000427
     22          1           0        3.912729   -1.204272   -0.000372
     23          7           0        1.809791   -2.794817   -0.000183
     24          7           0        1.809531    2.794869   -0.000049
     25          6           0        3.026878   -3.576467    0.000168
     26          6           0        3.026488    3.576719    0.000596
     27          1           0        0.901814   -3.252137    0.000336
     28          1           0        0.901476    3.252044    0.000295
     29          1           0        3.641446   -3.388545    0.889019
     30          1           0        3.641684   -3.388901   -0.888589
     31          1           0        2.752528   -4.631139    0.000309
     32          1           0        3.641346    3.389561   -0.888212
     33          1           0        3.641060    3.388589    0.889400
     34          1           0        2.751957    4.631345    0.001113
 ---------------------------------------------------------------------

 SCF Done:  E(UB3LYP) =  -878.359997896     A.U. after   15 cycles

 The electronic state is 1-A.
 Alpha  occ. eigenvalues --  -19.11266 -19.11266 -14.33774 -14.33773 -10.26484
 Alpha  occ. eigenvalues --  -10.26483 -10.23909 -10.23908 -10.20532 -10.20532
 Alpha  occ. eigenvalues --  -10.19757 -10.19705 -10.19689 -10.19622 -10.19556
 Alpha  occ. eigenvalues --  -10.19516 -10.19138 -10.19087 -10.18891 -10.18891
 Alpha  occ. eigenvalues --   -1.04702  -1.04487  -0.95638  -0.94985  -0.88186
 Alpha  occ. eigenvalues --   -0.85669  -0.80554  -0.77066  -0.76679  -0.76611
 Alpha  occ. eigenvalues --   -0.71356  -0.68968  -0.68170  -0.65217  -0.63987
 Alpha  occ. eigenvalues --   -0.60732  -0.59101  -0.55564  -0.54961  -0.52988
 Alpha  occ. eigenvalues --   -0.52270  -0.49932  -0.48482  -0.47980  -0.47603
 Alpha  occ. eigenvalues --   -0.46150  -0.45434  -0.45137  -0.44494  -0.44321
 Alpha  occ. eigenvalues --   -0.43832  -0.43719  -0.42789  -0.40535  -0.40444
 Alpha  occ. eigenvalues --   -0.40429  -0.39937  -0.39088  -0.38067  -0.37113
 Alpha  occ. eigenvalues --   -0.36350  -0.36021  -0.33817  -0.28516  -0.27637
 Alpha  occ. eigenvalues --   -0.27452  -0.27139  -0.26345  -0.26338  -0.19424
 Alpha virt. eigenvalues --   -0.10812  -0.05808  -0.03201  -0.00870  -0.00257
 Alpha virt. eigenvalues --   -0.00053   0.00114   0.01467   0.01620   0.02335
 Alpha virt. eigenvalues --    0.02880   0.03217   0.03828   0.04113   0.04302

  Beta  occ. eigenvalues --  -19.11266 -19.11266 -14.33774 -14.33773 -10.26484
  Beta  occ. eigenvalues --  -10.26483 -10.23909 -10.23908 -10.20532 -10.20532
  Beta  occ. eigenvalues --  -10.19757 -10.19705 -10.19689 -10.19622 -10.19556
  Beta  occ. eigenvalues --  -10.19516 -10.19138 -10.19087 -10.18891 -10.18891
  Beta  occ. eigenvalues --   -1.04702  -1.04487  -0.95638  -0.94985  -0.88186
  Beta  occ. eigenvalues --   -0.85669  -0.80554  -0.77066  -0.76679  -0.76611
  Beta  occ. eigenvalues --   -0.71356  -0.68968  -0.68170  -0.65217  -0.63987
  Beta  occ. eigenvalues --   -0.60732  -0.59101  -0.55564  -0.54961  -0.52988
  Beta  occ. eigenvalues --   -0.52270  -0.49932  -0.48482  -0.47980  -0.47603
  Beta  occ. eigenvalues --   -0.46150  -0.45434  -0.45137  -0.44494  -0.44321
  Beta  occ. eigenvalues --   -0.43832  -0.43719  -0.42789  -0.40535  -0.40444
  Beta  occ. eigenvalues --   -0.40429  -0.39937  -0.39088  -0.38067  -0.37113
  Beta  occ. eigenvalues --   -0.36350  -0.36021  -0.33817  -0.28516  -0.27637
  Beta  occ. eigenvalues --   -0.27452  -0.27139  -0.26345  -0.26338  -0.19424
  Beta virt. eigenvalues --   -0.10812  -0.05808  -0.03201  -0.00870  -0.00257
  Beta virt. eigenvalues --   -0.00053   0.00114   0.01467   0.01620   0.02335
  Beta virt. eigenvalues --    0.02880   0.03217   0.03828   0.04113   0.04302

 Mulliken charges and spin densities:
               1          2
     1  C    0.073400  -0.000000
     2  C   -0.485347   0.000000
     3  C   -0.485253   0.000000
     4  C    0.221995   0.000000
     5  C    0.222062   0.000000
     6  C    0.073297  -0.000000
     7  C   -0.230128  -0.000000
     8  C   -0.230203   0.000000
     9  C    0.257303  -0.000000
    10  C    0.256972  -0.000000
    11  C   -0.238104  -0.000000
    12  C   -0.100589   0.000000
    13  C   -0.100988   0.000000
    14  C   -0.238051   0.000000
    15  O   -0.347254  -0.000000
    16  O   -0.347251  -0.000000
    17  H    0.183962   0.000000
    18  H    0.197496  -0.000000
    19  H    0.197499   0.000000
    20  H    0.183954  -0.000000
    21  H    0.215440   0.000000
    22  H    0.215451   0.000000
    23  N   -0.284092   0.000000
    24  N   -0.284157  -0.000000
    25  C   -0.380816  -0.000000
    26  C   -0.380820   0.000000
    27  H    0.408069  -0.000000
    28  H    0.408128   0.000000
    29  H    0.170348  -0.000000
    30  H    0.170333  -0.000000
    31  H    0.168336   0.000000
    32  H    0.170344   0.000000
    33  H    0.170342   0.000000
    34  H    0.168324  -0.000000
 Sum of Mulliken charges =  -0.00000   0.00000

 Dipole moment (field-independent basis, Debye):
    X=              5.3182    Y=              0.0002    Z=              0.0021  Tot=              5.3182
 Quadrupole moment (field-independent basis, Debye-Ang):
   XX=            -82.4628   YY=           -110.6651   ZZ=           -121.6560
   XY=             -0.0009   XZ=              0.0034   YZ=              0.0013

 Normal termination of Gaussian 16 at Sun Jan 14 01:11:57 2024.
