 Gaussian 16, Revision A.03,
 Gaussian 16:  ES64L-G16RevA.03 25-Dec-2016

 ----------------------------------------------------------------
 #P UB3LYP/6-311++G(d,p) SCRF=(PCM,Solvent=n,n-DiMethylFormamide)
 ----------------------------------------------------------------

 ------------------
 Quinone PCM in DMF
 ------------------
 Symbolic Z-matrix:
 Charge =  0 Multiplicity = 1

                         Standard orientation:
 ---------------------------------------------------------------------
 Center     Atomic      Atomic             Coordinates (Angstroms)
 Number     Number       Type             X           Y           Z
 ---------------------------------------------------------------------
      1          6           0       -0.000148   -2.265488   -1.269326
      2          6           0       -0.000015   -1.368006    0.000118
      3          6           0       -0.000070   -2.264747    1.270102
      4          6           0        1.278832   -0.525126   -0.000074
      5          6           0        2.527215   -1.167529   -0.000352
      6          6           0        3.714841   -0.447947   -0.000440
      7          6           0        3.692276    0.949440   -0.000109
      8          6           0        2.472860    1.602767    0.000221
      9          6           0        1.268911    0.878552    0.000155
     10          6           0        0.000029    1.651067    0.000083
     11          8           0        0.000057    2.874495    0.000103
     12          6           0       -1.268875    0.878598   -0.000035
     13          6           0       -2.472826    1.602826   -0.000179
     14          6           0       -3.692245    0.949501   -0.000253
     15          6           0       -3.714806   -0.447883   -0.000171
     16          6           0       -2.527170   -1.167451   -0.000064
     17          6           0       -1.278797   -0.525050   -0.000014
     18          1           0       -0.881867   -2.908583   -1.293462
     19          1           0        0.881757   -2.908287   -1.293787
     20          1           0       -0.000384   -1.653440   -2.174135
     21          1           0        0.881960   -2.907352    1.294994
     22          1           0       -0.000520   -1.652202    2.174577
     23          1           0       -0.881681   -2.907975    1.294499
     24          1           0        2.578309   -2.249620   -0.000352
     25          1           0        4.661502   -0.977209   -0.000704
     26          1           0        4.618072    1.513112   -0.000118
     27          1           0        2.410500    2.683973    0.000433
     28          1           0       -2.410472    2.684028   -0.000236
     29          1           0       -4.618053    1.513152   -0.000341
     30          1           0       -4.661453   -0.977172   -0.000194
     31          1           0       -2.578199   -2.249530    0.000027
 ---------------------------------------------------------------------

 SCF Done:  E(UB3LYP) =  -693.563960190     A.U. after   14 cycles

 The electronic state is 1-A.
 Alpha  occ. eigenvalues --  -19.11623 -10.26916 -10.21365 -10.20430 -10.20429
 Alpha  occ. eigenvalues --  -10.19336 -10.19335 -10.19071 -10.19071 -10.18714
 Alpha  occ. eigenvalues --  -10.18714 -10.18571 -10.18570 -10.18499 -10.18499
 Alpha  occ. eigenvalues --  -10.16973 -10.16973  -1.05242  -0.89329  -0.87148
 Alpha  occ. eigenvalues --   -0.82761  -0.78721  -0.76644  -0.75927  -0.74104
 Alpha  occ. eigenvalues --   -0.69769  -0.66381  -0.64763  -0.63064  -0.60812
 Alpha  occ. eigenvalues --   -0.57723  -0.55144  -0.54582  -0.50091  -0.47837
 Alpha  occ. eigenvalues --   -0.47572  -0.47370  -0.45416  -0.44955  -0.44752
 Alpha  occ. eigenvalues --   -0.43739  -0.43077  -0.42865  -0.41692  -0.40900
 Alpha  occ. eigenvalues --   -0.39716  -0.38551  -0.37848  -0.37565  -0.36981
 Alpha  occ. eigenvalues --   -0.36534  -0.35213  -0.34219  -0.33065  -0.27379
 Alpha  occ. eigenvalues --   -0.26912  -0.26909  -0.26644  -0.26143
 Alpha virt. eigenvalues --   -0.08612  -0.02979  -0.02888  -0.01928  -0.00879
 Alpha virt. eigenvalues --    0.00198   0.00674   0.01638   0.01690   0.01983
 Alpha virt. eigenvalues --    0.02820   0.03969   0.03997   0.04161   0.04552

  Beta  occ. eigenvalues --  -19.11623 -10.26916 -10.21365 -10.20430 -10.20429
  Beta  occ. eigenvalues --  -10.19336 -10.19335 -10.19071 -10.19071 -10.18714
  Beta  occ. eigenvalues --  -10.18714 -10.18571 -10.18570 -10.18499 -10.18499
  Beta  occ. eigenvalues --  -10.16973 -10.16973  -1.05242  -0.89329  -0.87148
  Beta  occ. eigenvalues --   -0.82761  -0.78721  -0.76644  -0.75927  -0.74104
  Beta  occ. eigenvalues --   -0.69769  -0.66381  -0.64763  -0.63064  -0.60812
  Beta  occ. eigenvalues --   -0.57723  -0.55144  -0.54582  -0.50091  -0.47837
  Beta  occ. eigenvalues --   -0.47572  -0.47370  -0.45416  -0.44955  -0.44752
  Beta  occ. eigenvalues --   -0.43739  -0.43077  -0.42865  -0.41692  -0.40900
  Beta  occ. eigenvalues --   -0.39716  -0.38551  -0.37848  -0.37565  -0.36981
  Beta  occ. eigenvalues --   -0.36534  -0.35213  -0.34219  -0.33065  -0.27379
  Beta  occ. eigenvalues --   -0.26912  -0.26909  -0.26644  -0.26143
  Beta virt. eigenvalues --   -0.08612  -0.02979  -0.02888  -0.01928  -0.00879
  Beta virt. eigenvalues --    0.00198   0.00674   0.01638   0.01690   0.01983
  Beta virt. eigenvalues --    0.02820   0.03969   0.03997   0.04161   0.04552

 Mulliken charges and spin densities:
               1          2
     1  C   -0.796860   0.000000
     2  C    0.252758  -0.000000
     3  C   -0.796895   0.000000
     4  C    0.283484  -0.000000
     5  C   -0.096843   0.000000
     6  C   -0.432203   0.000000
     7  C   -0.411433   0.000000
     8  C    0.181733  -0.000000
     9  C    0.312841  -0.000000
    10  C   -0.499903   0.000000
    11  O   -0.325645  -0.000000
    12  C    0.312649  -0.000000
    13  C    0.181603   0.000000
    14  C   -0.411653   0.000000
    15  C   -0.431983   0.000000
    16  C   -0.096862  -0.000000
    17  C    0.283307   0.000000
    18  H    0.157511  -0.000000
    19  H    0.157486  -0.000000
    20  H    0.178188   0.000000
    21  H    0.157520  -0.000000
    22  H    0.178141  -0.000000
    23  H    0.157535  -0.000000
    24  H    0.156034  -0.000000
    25  H    0.202158   0.000000
    26  H    0.192126   0.000000
    27  H    0.202479  -0.000000
    28  H    0.202490  -0.000000
    29  H    0.192119  -0.000000
    30  H    0.202178   0.000000
    31  H    0.155939   0.000000
 Sum of Mulliken charges =  -0.00000  -0.00000

 Dipole moment (field-independent basis, Debye):
    X=              0.0001    Y=             -5.7367    Z=              0.0001  Tot=              5.7367
 Quadrupole moment (field-independent basis, Debye-Ang):
   XX=            -81.0699   YY=           -103.9272   ZZ=           -104.6796
   XY=             -0.0003   XZ=             -0.0005   YZ=             -0.0004

 Normal termination of Gaussian 16 at Sat Jan 13 19:21:33 2024.
