 Gaussian 16, Revision A.03,
 Gaussian 16:  ES64L-G16RevA.03 25-Dec-2016

 ----------------------------------------------------------------------
 #P UB3LYP/genecp nosym opt freq SCRF=(PCM,Solvent=n,n-DiMethylFormamid
 e)
 ----------------------------------------------------------------------

 --------
 Oxidized
 --------
 Symbolic Z-matrix:
 Charge =  0 Multiplicity = 1

 SCF Done:  E(UB3LYP) =  -1570.33864093     A.U. after   15 cycles
 SCF Done:  E(UB3LYP) =  -1570.33867520     A.U. after   11 cycles
 SCF Done:  E(UB3LYP) =  -1570.33867992     A.U. after   11 cycles
 SCF Done:  E(UB3LYP) =  -1570.33868080     A.U. after   10 cycles
 Optimization completed.
    -- Stationary point found.

 1\1\GINC-ACIDSCN003\FOpt\UB3LYP\GenECP\C6I4O2\SELHAJJ1\10-Feb-2024\0\\
 #P UB3LYP/genecp nosym opt freq SCRF=(PCM,Solvent=n,n-DiMethylFormamid
 e)\\Oxidized\\0,1\I,-3.371403454,-1.0594862328,-0.1528533593\C,-1.4109
 683289,-0.333823222,-0.0626510792\C,-1.0782379265,0.9710201491,-0.0287
 364812\I,-2.4509690198,2.5499210496,-0.0595186203\C,0.3578953481,1.403
 7190777,0.0372148237\O,0.657257588,2.5780544968,0.0667620262\C,1.41095
 17002,0.3338161529,0.0630537792\C,1.0782213525,-0.9710245375,0.0291382
 272\I,2.4510084416,-2.5499080143,0.0584854439\C,-0.3579560592,-1.40374

 Normal termination of Gaussian 16 at Sat Feb 10 10:31:13 2024.

 ------------------------------------------------------------------
 #P Geom=AllCheck Guess=TCheck SCRF=Check GenChk UB3LYP/GenECP Freq
 ------------------------------------------------------------------

 Structure from the checkpoint file:  "031.chk"
 --------
 Oxidized
 --------
 Charge =  0 Multiplicity = 1

                          Input orientation:
 ---------------------------------------------------------------------
 Center     Atomic      Atomic             Coordinates (Angstroms)
 Number     Number       Type             X           Y           Z
 ---------------------------------------------------------------------
      1         53           0       -3.371403   -1.059486   -0.152853
      2          6           0       -1.410968   -0.333823   -0.062651
      3          6           0       -1.078238    0.971020   -0.028736
      4         53           0       -2.450969    2.549921   -0.059519
      5          6           0        0.357895    1.403719    0.037215
      6          8           0        0.657258    2.578054    0.066762
      7          6           0        1.410952    0.333816    0.063054
      8          6           0        1.078221   -0.971025    0.029138
      9         53           0        2.451008   -2.549908    0.058485
     10          6           0       -0.357956   -1.403741   -0.035686
     11          8           0       -0.657245   -2.578047   -0.067026
     12         53           0        3.371443    1.059500    0.151816
 ---------------------------------------------------------------------

 SCF Done:  E(UB3LYP) =  -1570.33868080     A.U. after    1 cycles

 Alpha  occ. eigenvalues --  -19.16263 -19.16263 -10.31896 -10.31895 -10.26972
 Alpha  occ. eigenvalues --  -10.26970 -10.26896 -10.26896  -6.86823  -6.86823
 Alpha  occ. eigenvalues --   -6.86823  -6.86823  -4.89340  -4.89340  -4.89340
 Alpha  occ. eigenvalues --   -4.89339  -4.88128  -4.88128  -4.88127  -4.88127
 Alpha  occ. eigenvalues --   -4.87973  -4.87973  -4.87972  -4.87972  -1.94152
 Alpha  occ. eigenvalues --   -1.94152  -1.94150  -1.94150  -1.93770  -1.93770
 Alpha  occ. eigenvalues --   -1.93769  -1.93769  -1.93655  -1.93655  -1.93650
 Alpha  occ. eigenvalues --   -1.93650  -1.92604  -1.92604  -1.92603  -1.92603
 Alpha  occ. eigenvalues --   -1.92601  -1.92601  -1.92598  -1.92598  -1.10027
 Alpha  occ. eigenvalues --   -1.09847  -0.89533  -0.84142  -0.75977  -0.74815
 Alpha  occ. eigenvalues --   -0.73266  -0.69783  -0.68931  -0.61342  -0.60972
 Alpha  occ. eigenvalues --   -0.56102  -0.50181  -0.49000  -0.47959  -0.44644
 Alpha  occ. eigenvalues --   -0.42902  -0.42322  -0.41464  -0.39091  -0.37167
 Alpha  occ. eigenvalues --   -0.35608  -0.31861  -0.30868  -0.30626  -0.29749
 Alpha  occ. eigenvalues --   -0.29636  -0.29308  -0.27683  -0.26900  -0.26044
 Alpha  occ. eigenvalues --   -0.25727
 Alpha virt. eigenvalues --   -0.15540  -0.08529  -0.06851  -0.05951  -0.04444
 Alpha virt. eigenvalues --   -0.02580  -0.00687   0.00156   0.02920   0.03236
 Alpha virt. eigenvalues --    0.05611   0.05828   0.06424   0.07048   0.07663

  Beta  occ. eigenvalues --  -19.16263 -19.16263 -10.31896 -10.31895 -10.26972
  Beta  occ. eigenvalues --  -10.26970 -10.26896 -10.26896  -6.86823  -6.86823
  Beta  occ. eigenvalues --   -6.86823  -6.86823  -4.89340  -4.89340  -4.89340
  Beta  occ. eigenvalues --   -4.89339  -4.88128  -4.88128  -4.88127  -4.88127
  Beta  occ. eigenvalues --   -4.87973  -4.87973  -4.87972  -4.87972  -1.94152
  Beta  occ. eigenvalues --   -1.94152  -1.94150  -1.94150  -1.93770  -1.93770
  Beta  occ. eigenvalues --   -1.93769  -1.93769  -1.93655  -1.93655  -1.93650
  Beta  occ. eigenvalues --   -1.93650  -1.92604  -1.92604  -1.92603  -1.92603
  Beta  occ. eigenvalues --   -1.92601  -1.92601  -1.92598  -1.92598  -1.10027
  Beta  occ. eigenvalues --   -1.09847  -0.89533  -0.84142  -0.75977  -0.74815
  Beta  occ. eigenvalues --   -0.73266  -0.69783  -0.68931  -0.61342  -0.60972
  Beta  occ. eigenvalues --   -0.56102  -0.50181  -0.49000  -0.47959  -0.44644
  Beta  occ. eigenvalues --   -0.42902  -0.42322  -0.41464  -0.39091  -0.37167
  Beta  occ. eigenvalues --   -0.35608  -0.31861  -0.30868  -0.30626  -0.29749
  Beta  occ. eigenvalues --   -0.29636  -0.29308  -0.27683  -0.26900  -0.26044
  Beta  occ. eigenvalues --   -0.25727
  Beta virt. eigenvalues --   -0.15540  -0.08529  -0.06851  -0.05951  -0.04444
  Beta virt. eigenvalues --   -0.02580  -0.00687   0.00156   0.02920   0.03236
  Beta virt. eigenvalues --    0.05611   0.05828   0.06424   0.07048   0.07663

 Mulliken charges and spin densities:
               1          2
     1  I    0.011440   0.000000
     2  C    1.037715   0.000000
     3  C    1.038515  -0.000000
     4  I    0.011469   0.000000
     5  C   -1.979638  -0.000000
     6  O   -0.119513  -0.000000
     7  C    1.037717  -0.000000
     8  C    1.038508  -0.000000
     9  I    0.011470  -0.000000
    10  C   -1.979611  -0.000000
    11  O   -0.119513   0.000000
    12  I    0.011440  -0.000000
 Sum of Mulliken charges =  -0.00000  -0.00000

 Dipole moment (field-independent basis, Debye):
    X=             -0.0001    Y=             -0.0000    Z=              0.0018  Tot=              0.0019
 Quadrupole moment (field-independent basis, Debye-Ang):
   XX=           -135.2143   YY=           -160.9334   ZZ=           -150.2815
   XY=             -7.0348   XZ=              0.4931   YZ=             -0.4463

  Exact polarizability: 371.176  13.988 423.194   7.746   4.276 184.839
 Approx polarizability: 411.047  35.586 542.231   8.179   6.459 221.662

                      1                      2                      3
                      A                      A                      A
 Frequencies --     14.5644                23.3642                53.8584
 Red. masses --     16.8016               121.5320                17.6195
 Frc consts  --      0.0021                 0.0391                 0.0301
 IR Inten    --      3.8584                 0.0053                 0.0000

                      4                      5                      6
                      A                      A                      A
 Frequencies --     91.8209                99.9075               101.3517
 Red. masses --    125.8394                56.5937               101.4028
 Frc consts  --      0.6251                 0.3328                 0.6137
 IR Inten    --      0.0000                 0.5526                 1.8327

                      7                      8                      9
                      A                      A                      A
 Frequencies --    140.0894               151.1682               155.8484
 Red. masses --     97.9891                13.1640               109.4285
 Frc consts  --      1.1330                 0.1772                 1.5660
 IR Inten    --      0.0000                 2.5250                 0.0002

                     10                     11                     12
                      A                      A                      A
 Frequencies --    255.7413               281.0123               287.8567
 Red. masses --     12.1880                15.6510                18.3672
 Frc consts  --      0.4697                 0.7282                 0.8967
 IR Inten    --      0.0000                 0.0000                 0.4862

                     13                     14                     15
                      A                      A                      A
 Frequencies --    326.8002               379.4781               469.9635
 Red. masses --     17.1941                12.2819                13.9817
 Frc consts  --      1.0819                 1.0421                 1.8194
 IR Inten    --     10.9668                 0.0002                 0.0000

                     16                     17                     18
                      A                      A                      A
 Frequencies --    500.6857               565.7104               678.3807
 Red. masses --     12.0423                13.4302                12.6422
 Frc consts  --      1.7787                 2.5323                 3.4278
 IR Inten    --      0.0026               235.7378                 0.0000

                     19                     20                     21
                      A                      A                      A
 Frequencies --    714.5562               721.2845               781.2288
 Red. masses --     12.4239                12.2102                12.1418
 Frc consts  --      3.7375                 3.7427                 4.3661
 IR Inten    --      0.0000                34.1363                 0.0001

                     22                     23                     24
                      A                      A                      A
 Frequencies --    843.8466               865.6075              1000.2771
 Red. masses --     12.8115                12.3136                12.0291
 Frc consts  --      5.3750                 5.4360                 7.0912
 IR Inten    --     67.1203                 0.0000              1031.4417

                     25                     26                     27
                      A                      A                      A
 Frequencies --   1158.9492              1165.4753              1551.2971
 Red. masses --     12.0586                12.0230                12.0093
 Frc consts  --      9.5428                 9.6221                17.0278
 IR Inten    --    580.6190                 0.0001               595.8606

                     28                     29                     30
                      A                      A                      A
 Frequencies --   1583.0714              1705.7105              1713.7114
 Red. masses --     12.0005                13.2728                13.3081
 Frc consts  --     17.7195                22.7522                23.0273
 IR Inten    --      0.0001              1058.8062                 0.0006

 - Thermochemistry -
 -------------------
 Temperature   298.150 Kelvin.  Pressure   1.00000 Atm.
 Atom     1 has atomic number 53 and mass 126.90040

 Molecular mass:   611.59143 amu.
 Principal axes and moments of inertia in atomic units:
                           1         2         3
     Eigenvalues --  7358.53818********************
           X            0.96816   0.24708  -0.04026
           Y           -0.24786   0.96867  -0.01558
           Z            0.03515   0.02506   0.99907
 This molecule is an asymmetric top.
 Rotational symmetry number  1.
 Warning -- assumption of classical behavior for rotation
           may cause significant error
 Rotational temperatures (Kelvin)      0.01177     0.00519     0.00360
 Rotational constants (GHZ):           0.24526     0.10824     0.07510
 Zero-point vibrational energy     109952.5 (Joules/Mol)
                                   26.27927 (Kcal/Mol)
 Warning -- explicit consideration of  17 degrees of freedom as
           vibrations may cause significant error
 Vibrational temperatures:     20.95    33.62    77.49   132.11   143.74
          (Kelvin)            145.82   201.56   217.50   224.23   367.95
                              404.31   414.16   470.19   545.98   676.17
                              720.38   813.93   976.04  1028.09  1037.77
                             1124.01  1214.11  1245.42  1439.18  1667.47
                             1676.86  2231.97  2277.69  2454.14  2465.65

 Zero-point correction=                           0.041879 (Hartree/Particle)
 Thermal correction to Energy=                    0.054853
 Thermal correction to Enthalpy=                  0.055797
 Thermal correction to Gibbs Free Energy=        -0.005438
 Sum of electronic and zero-point Energies=          -1570.296802
 Sum of electronic and thermal Energies=             -1570.283828
 Sum of electronic and thermal Enthalpies=           -1570.282884
 Sum of electronic and thermal Free Energies=        -1570.344118

                     E (Thermal)             CV                S
                      KCal/Mol        Cal/Mol-Kelvin    Cal/Mol-Kelvin
 Total                   34.421             40.738            128.880
 Electronic               0.000              0.000              0.000
 Translational            0.889              2.981             45.116
 Rotational               0.889              2.981             36.331
 Vibrational             32.643             34.777             47.432
 Vibration     1          0.593              1.986              7.264
 Vibration     2          0.593              1.985              6.326
 Vibration     3          0.596              1.976              4.670
 Vibration     4          0.602              1.955              3.621
 Vibration     5          0.604              1.949              3.456
 Vibration     6          0.604              1.948              3.428
 Vibration     7          0.615              1.913              2.803
 Vibration     8          0.619              1.901              2.657
 Vibration     9          0.620              1.896              2.600
 Vibration    10          0.666              1.753              1.691
 Vibration    11          0.681              1.709              1.528
 Vibration    12          0.685              1.696              1.487
 Vibration    13          0.710              1.622              1.276
 Vibration    14          0.749              1.514              1.041
 Vibration    15          0.827              1.317              0.738
 Vibration    16          0.856              1.248              0.656
 Vibration    17          0.922              1.105              0.513

 Optimization completed.
    -- Stationary point found.

 1\1\GINC-ACIDSCN003\Freq\UB3LYP\GenECP\C6I4O2\SELHAJJ1\10-Feb-2024\0\\
 #P Geom=AllCheck Guess=TCheck SCRF=Check GenChk UB3LYP/GenECP Freq\\Ox
 idized\\0,1\I,-3.371403454,-1.0594862328,-0.1528533593\C,-1.4109683289
 ,-0.333823222,-0.0626510792\C,-1.0782379265,0.9710201491,-0.0287364812
 \I,-2.4509690198,2.5499210496,-0.0595186203\C,0.3578953481,1.403719077
 7,0.0372148237\O,0.657257588,2.5780544968,0.0667620262\C,1.4109517002,
 0.3338161529,0.0630537792\C,1.0782213525,-0.9710245375,0.0291382272\I,
 2.4510084416,-2.5499080143,0.0584854439\C,-0.3579560592,-1.4037413,-0.

 Normal termination of Gaussian 16 at Sat Feb 10 10:56:27 2024.
