 Q-Chem 5.4, Q-Chem, Inc., Pleasanton, CA (2021)
 Q-Chem 5.4.0 for Intel X86 EM64T Linux

User input:
--------------------------------------------------------------
$molecule
0 1
O                 -1.0643100000      1.7113320000     -1.8264110000
C                 -0.8214280000      0.8625770000     -0.9958230000
C                 -1.8668120000     -0.0363400000     -0.4614390000
C                 -1.5953970000     -0.9729070000      0.4555610000
C                 -0.2324550000     -1.1697490000      0.9941430000
O                  0.0161500000     -2.0170270000      1.8245570000
C                  0.8548660000     -0.2664040000      0.4667940000
C                  0.5793130000      0.6844520000     -0.4642640000
C                  1.5774480000      1.5560660000     -0.9866370000
N                  2.3820590000      2.2653260000     -1.4137470000
C                  2.1633530000     -0.4656660000      0.9930910000
N                  3.2218550000     -0.6315180000      1.4231370000
H                 -2.8616230000      0.1174410000     -0.8636800000
H                 -2.3530190000     -1.6375820000      0.8547180000
$end
$rem
MAX_SCF_CYCLES=200
BASIS  =  6-311++G(d,p)
GUI  =  2
JOB_TYPE  =  SP
METHOD  =  B3LYP
SOLVENT_METHOD = COSMO
$end
$solvent
dielectric 37.219
opticaldielectric 1.43
$end

--------------------------------------------------------------

             Standard Nuclear Orientation (Angstroms)
    I     Atom           X                Y                Z
 ----------------------------------------------------------------
    1      O       2.6640550909     0.9320945145    -0.0000835259
    2      C       1.4519301438     0.9345873113     0.0001172008
    3      C       0.6683621016     2.1885677180     0.0000648477
    4      C      -0.6701865792     2.1880487736    -0.0000210124
    5      C      -1.4527559914     0.9334518847     0.0000018067
    6      O      -2.6648864315     0.9300373056    -0.0000571086
    7      C      -0.6793965865    -0.3620446783     0.0000006252
    8      C       0.6796197165    -0.3615204901     0.0000380415
    9      C       1.4454158446    -1.5625260202     0.0000040648
   10      N       2.0715038412    -2.5325184837    -0.0000419475
   11      C      -1.4442219565    -1.5636578687    -0.0000126705
   12      N      -2.0691325503    -2.5344099888     0.0000442635
   13      H       1.2528862895     3.1014898489     0.0000413118
   14      H      -1.2554347582     3.1005151157    -0.0000898714
 ----------------------------------------------------------------

    8    -566.0714295745      9.67e-06  Convergence criterion met
 Total energy in the final basis set =     -566.0714295745
    6    -566.0940089503      1.99e-06  Convergence criterion met
 Total energy in the final basis set =     -566.0940089503

                    Orbital Energies (a.u.)
 --------------------------------------------------------------

 Alpha MOs
 -- Occupied --
-19.1724 -19.1724 -14.3627 -14.3626 -10.3224 -10.3224 -10.2917 -10.2910
-10.2587 -10.2587 -10.2328 -10.2319  -1.1073  -1.1053  -0.9648  -0.9556
 -0.9091  -0.8427  -0.7733  -0.7050  -0.6751  -0.5999  -0.5741  -0.5601
 -0.5129  -0.4938  -0.4911  -0.4681  -0.4535  -0.4451  -0.4226  -0.4181
 -0.4170  -0.3985  -0.3892  -0.3821  -0.3355  -0.3235  -0.3227  -0.3140

          Ground-State Mulliken Net Atomic Charges

     Atom                 Charge (a.u.)
  ----------------------------------------
      1 O                    -0.232498
      2 C                    -0.821712
      3 C                     0.185972
      4 C                     0.186615
      5 C                    -0.823126
      6 O                    -0.232491
      7 C                     1.795835
      8 C                     1.794724
      9 C                    -1.006168
     10 N                    -0.206163
     11 C                    -1.005804
     12 N                    -0.205934
     13 H                     0.285366
     14 H                     0.285383
  ----------------------------------------
  Sum of atomic charges =     0.000000

                    Cartesian Multipole Moments
 -----------------------------------------------------------------
    Charge (ESU x 10^10)
                 0.0000
    Dipole Moment (Debye)
         X      -0.0043      Y       7.8990      Z       0.0002
       Tot       7.8990
    Quadrupole Moments (Debye-Ang)
        XX     -94.8644     XY      -0.0057     YY     -73.3007
        XZ       0.0008     YZ       0.0002     ZZ     -64.3018

 Total job time:  18.88s(wall), 122.20s(cpu)
        *  Thank you very much for using Q-Chem.  Have a nice day.  *
