 Gaussian 16, Revision A.03,
 Gaussian 16:  ES64L-G16RevA.03 25-Dec-2016

 --------------------------------------
 #P UB3LYP/6-311++G(d,p) nosym opt freq
 --------------------------------------

 --------
 Oxidized
 --------
 Symbolic Z-matrix:
 Charge =  0 Multiplicity = 1

 SCF Done:  E(UB3LYP) =  -566.071410143     A.U. after   15 cycles
 SCF Done:  E(UB3LYP) =  -566.071408761     A.U. after   11 cycles
 SCF Done:  E(UB3LYP) =  -566.071410436     A.U. after   10 cycles
 Optimization completed.
    -- Stationary point found.
 Normal termination of Gaussian 16 at Sat Jan  6 05:38:57 2024.

 ----------------------------------------------------------------------
 #P Geom=AllCheck Guess=TCheck SCRF=Check GenChk UB3LYP/6-311++G(d,p) F
 req
 ----------------------------------------------------------------------

 Structure from the checkpoint file:  "001.chk"
 --------
 Oxidized
 --------
 Charge =  0 Multiplicity = 1

                          Input orientation:
 ---------------------------------------------------------------------
 Center     Atomic      Atomic             Coordinates (Angstroms)
 Number     Number       Type             X           Y           Z
 ---------------------------------------------------------------------
      1          8           0       -1.064310    1.711332   -1.826411
      2          6           0       -0.821428    0.862577   -0.995823
      3          6           0       -1.866812   -0.036340   -0.461439
      4          6           0       -1.595397   -0.972907    0.455561
      5          6           0       -0.232455   -1.169749    0.994143
      6          8           0        0.016150   -2.017027    1.824557
      7          6           0        0.854866   -0.266404    0.466794
      8          6           0        0.579313    0.684452   -0.464264
      9          6           0        1.577448    1.556066   -0.986637
     10          7           0        2.382059    2.265326   -1.413747
     11          6           0        2.163353   -0.465666    0.993091
     12          7           0        3.221855   -0.631518    1.423137
     13          1           0       -2.861623    0.117441   -0.863680
     14          1           0       -2.353019   -1.637582    0.854718
 ---------------------------------------------------------------------

 SCF Done:  E(UB3LYP) =  -566.071410436     A.U. after    1 cycles

 Alpha  occ. eigenvalues --  -19.18649 -19.18648 -14.36480 -14.36479 -10.33696
 Alpha  occ. eigenvalues --  -10.33694 -10.30369 -10.30298 -10.26070 -10.25988
 Alpha  occ. eigenvalues --  -10.25637 -10.25635  -1.12100  -1.11892  -0.96748
 Alpha  occ. eigenvalues --   -0.95553  -0.92302  -0.86535  -0.78567  -0.72556
 Alpha  occ. eigenvalues --   -0.69268  -0.61051  -0.58959  -0.57896  -0.53629
 Alpha  occ. eigenvalues --   -0.50869  -0.50227  -0.48442  -0.46981  -0.46861
 Alpha  occ. eigenvalues --   -0.43203  -0.41047  -0.40968  -0.39995  -0.38935
 Alpha  occ. eigenvalues --   -0.38096  -0.35606  -0.33532  -0.33529  -0.32712
 Alpha virt. eigenvalues --   -0.18959  -0.11704  -0.05990  -0.03597  -0.02162
 Alpha virt. eigenvalues --   -0.00550  -0.00500   0.00706   0.01273   0.02308
 Alpha virt. eigenvalues --    0.02774   0.03124   0.03844   0.04848   0.06123

  Beta  occ. eigenvalues --  -19.18649 -19.18648 -14.36480 -14.36479 -10.33696
  Beta  occ. eigenvalues --  -10.33694 -10.30369 -10.30298 -10.26070 -10.25988
  Beta  occ. eigenvalues --  -10.25637 -10.25635  -1.12100  -1.11892  -0.96748
  Beta  occ. eigenvalues --   -0.95553  -0.92302  -0.86535  -0.78567  -0.72556
  Beta  occ. eigenvalues --   -0.69268  -0.61051  -0.58959  -0.57896  -0.53629
  Beta  occ. eigenvalues --   -0.50869  -0.50227  -0.48442  -0.46981  -0.46861
  Beta  occ. eigenvalues --   -0.43203  -0.41047  -0.40968  -0.39995  -0.38935
  Beta  occ. eigenvalues --   -0.38096  -0.35606  -0.33532  -0.33529  -0.32712
  Beta virt. eigenvalues --   -0.18959  -0.11704  -0.05990  -0.03597  -0.02162
  Beta virt. eigenvalues --   -0.00550  -0.00500   0.00706   0.01273   0.02308
  Beta virt. eigenvalues --    0.02774   0.03124   0.03844   0.04848   0.06123

 Mulliken charges and spin densities:
               1          2
     1  O   -0.160964   0.000000
     2  C   -0.861646  -0.000000
     3  C    0.215214   0.000000
     4  C    0.215541  -0.000000
     5  C   -0.862590  -0.000000
     6  O   -0.160964  -0.000000
     7  C    1.599219   0.000000
     8  C    1.600340   0.000000
     9  C   -0.915432   0.000000
    10  N   -0.119271   0.000000
    11  C   -0.915048  -0.000000
    12  N   -0.119295   0.000000
    13  H    0.242446   0.000000
    14  H    0.242449   0.000000
 Sum of Mulliken charges =  -0.00000  -0.00000

 Dipole moment (field-independent basis, Debye):
    X=             -5.6493    Y=             -1.6468    Z=             -0.0093  Tot=              5.8844
 Quadrupole moment (field-independent basis, Debye-Ang):
   XX=            -76.1096   YY=            -77.2825   ZZ=            -75.9104
   XY=              0.3494   XZ=             -3.3522   YZ=             11.5008

  Exact polarizability: 116.221   3.189 106.533  14.342 -49.101  99.303
 Approx polarizability: 175.810  -9.634 206.828  34.611-118.877 194.387

                      1                      2                      3
                      A                      A                      A
 Frequencies --     65.8985                74.7560               120.6506
 Red. masses --     13.8516                 7.6984                13.6595
 Frc consts  --      0.0354                 0.0253                 0.1172
 IR Inten    --      0.0000                 7.9769                 1.5781

                      4                      5                      6
                      A                      A                      A
 Frequencies --    163.7911               165.6957               243.1699
 Red. masses --     12.9300                 9.8582                 5.6970
 Frc consts  --      0.2044                 0.1595                 0.1985
 IR Inten    --      1.8002                13.9311                 0.0000

                      7                      8                      9
                      A                      A                      A
 Frequencies --    323.0008               355.8644               366.4730
 Red. masses --      7.2629                11.0223                14.5336
 Frc consts  --      0.4464                 0.8224                 1.1500
 IR Inten    --      0.0000                 0.4434                10.0428

                     10                     11                     12
                      A                      A                      A
 Frequencies --    433.6672               447.7130               455.1410
 Red. masses --     12.0365                12.5376                 6.4673
 Frc consts  --      1.3337                 1.4807                 0.7893
 IR Inten    --      3.5056                 0.0028                 1.8850

                     13                     14                     15
                      A                      A                      A
 Frequencies --    520.8048               587.7546               623.9584
 Red. masses --     12.0873                 8.9093                 4.4565
 Frc consts  --      1.9317                 1.8134                 1.0222
 IR Inten    --      0.4858                24.4668                 0.9057

                     16                     17                     18
                      A                      A                      A
 Frequencies --    632.8747               634.1609               737.8858
 Red. masses --      2.6521                 9.9307                 8.6744
 Frc consts  --      0.6259                 2.3530                 2.7827
 IR Inten    --      1.6854                 0.0002                 2.1385

                     19                     20                     21
                      A                      A                      A
 Frequencies --    778.0364               867.7067               935.5066
 Red. masses --     10.8057                 2.0479                 8.9206
 Frc consts  --      3.8539                 0.9085                 4.5998
 IR Inten    --      0.0000                43.4682                 0.0770

                     22                     23                     24
                      A                      A                      A
 Frequencies --   1004.3535              1012.6677              1134.0278
 Red. masses --      6.8543                 1.2430                 1.5673
 Frc consts  --      4.0737                 0.7511                 1.1875
 IR Inten    --     43.5066                 0.0001                29.7789

                     25                     26                     27
                      A                      A                      A
 Frequencies --   1138.6943              1291.3425              1313.2482
 Red. masses --      4.4940                 2.9583                 4.6565
 Frc consts  --      3.4332                 2.9066                 4.7315
 IR Inten    --     16.6689               126.6850                54.3269

                     28                     29                     30
                      A                      A                      A
 Frequencies --   1392.5709              1616.0722              1675.2557
 Red. masses --      1.9366                11.4296                 7.9474
 Frc consts  --      2.2127                17.5875                13.1414
 IR Inten    --      0.0095                25.3239                 5.2700

                     31                     32                     33
                      A                      A                      A
 Frequencies --   1740.1156              1745.6527              2335.2742
 Red. masses --     11.5515                12.1497                12.6807
 Frc consts  --     20.6085                21.8138                40.7446
 IR Inten    --      1.2463               368.0347                 5.4377

                     34                     35                     36
                      A                      A                      A
 Frequencies --   2345.4769              3185.4411              3201.0733
 Red. masses --     12.6749                 1.0880                 1.0994
 Frc consts  --     41.0825                 6.5044                 6.6372
 IR Inten    --      4.6809                 0.0191                 0.0157

 - Thermochemistry -
 -------------------
 Temperature   298.150 Kelvin.  Pressure   1.00000 Atm.
 Atom     1 has atomic number  8 and mass  15.99491

 Molecular mass:   158.01163 amu.
 Principal axes and moments of inertia in atomic units:
                           1         2         3
     Eigenvalues --  1515.110611688.666223203.77682
           X           -0.20252   0.96009  -0.19289
           Y            0.69972   0.27967   0.65741
           Z           -0.68512   0.00183   0.72843
 This molecule is an asymmetric top.
 Rotational symmetry number  1.
 Warning -- assumption of classical behavior for rotation
           may cause significant error
 Rotational temperatures (Kelvin)      0.05717     0.05129     0.02703
 Rotational constants (GHZ):           1.19116     1.06874     0.56332
 Zero-point vibrational energy     213328.7 (Joules/Mol)
                                   50.98679 (Kcal/Mol)
 Warning -- explicit consideration of  14 degrees of freedom as
           vibrations may cause significant error
 Vibrational temperatures:     94.81   107.56   173.59   235.66   238.40
          (Kelvin)            349.87   464.73   512.01   527.27   623.95
                              644.16   654.85   749.32   845.65   897.74
                              910.57   912.42  1061.65  1119.42  1248.44
                             1345.99  1445.04  1457.00  1631.61  1638.33
                             1857.95  1889.47  2003.60  2325.17  2410.32
                             2503.64  2511.60  3359.94  3374.62  4583.14
                             4605.63

 Zero-point correction=                           0.081253 (Hartree/Particle)
 Thermal correction to Energy=                    0.091246
 Thermal correction to Enthalpy=                  0.092190
 Thermal correction to Gibbs Free Energy=         0.045099
 Sum of electronic and zero-point Energies=           -565.990158
 Sum of electronic and thermal Energies=              -565.980164
 Sum of electronic and thermal Enthalpies=            -565.979220
 Sum of electronic and thermal Free Energies=         -566.026312

                     E (Thermal)             CV                S
                      KCal/Mol        Cal/Mol-Kelvin    Cal/Mol-Kelvin
 Total                   57.258             35.631             99.113
 Electronic               0.000              0.000              0.000
 Translational            0.889              2.981             41.082
 Rotational               0.889              2.981             30.484
 Vibrational             55.480             29.670             27.548
 Vibration     1          0.597              1.971              4.272
 Vibration     2          0.599              1.966              4.024
 Vibration     3          0.609              1.932              3.090
 Vibration     4          0.623              1.887              2.506
 Vibration     5          0.624              1.885              2.484
 Vibration     6          0.659              1.774              1.780
 Vibration     7          0.708              1.629              1.295
 Vibration     8          0.731              1.563              1.140
 Vibration     9          0.739              1.541              1.095
 Vibration    10          0.794              1.397              0.847
 Vibration    11          0.807              1.366              0.803
 Vibration    12          0.813              1.350              0.780
 Vibration    13          0.876              1.204              0.608
 Vibration    14          0.945              1.058              0.471

 Optimization completed.
    -- Stationary point found.
 Normal termination of Gaussian 16 at Sat Jan  6 05:43:41 2024.
