 Q-Chem 5.4, Q-Chem, Inc., Pleasanton, CA (2021)
 Q-Chem 5.4.0 for Intel X86 EM64T Linux

User input:
--------------------------------------------------------------
$molecule
-2 1
O                  2.5516260000     -1.0233980000     -0.2551480000
C                  1.2926030000     -0.4663020000     -0.1252100000
C                  1.0511020000      0.9010200000     -0.0014210000
Cl                 2.4467910000      2.0286170000     -0.0085860000
C                 -0.2514140000      1.4431260000      0.1302930000
O                 -0.6055420000      2.6996210000      0.2528230000
C                 -1.2929620000      0.4661200000      0.1250830000
C                 -1.0513470000     -0.9008810000      0.0013280000
Cl                -2.4468870000     -2.0288610000      0.0088250000
C                  0.2514770000     -1.4431460000     -0.1305880000
O                  0.6050260000     -2.6997200000     -0.2532630000
O                 -2.5514610000      1.0236310000      0.2554000000
H                  2.2761710000     -1.9763620000     -0.3115110000
H                 -2.2751830000      1.9765370000      0.3119740000
$end
$rem
MAX_SCF_CYCLES=200
BASIS  =  6-311++G(d,p)
GUI  =  2
JOB_TYPE  =  SP
METHOD  =  B3LYP
SOLVENT_METHOD = PCM
$end
$pcm
theory = CPCM
$end
$solvent
dielectric 37.219
opticaldielectric 1.43
$end

--------------------------------------------------------------

             Standard Nuclear Orientation (Angstroms)
    I     Atom           X                Y                Z
 ----------------------------------------------------------------
    1      O       2.5516260000    -1.0233980000    -0.2551480000
    2      C       1.2926030000    -0.4663020000    -0.1252100000
    3      C       1.0511020000     0.9010200000    -0.0014210000
    4      Cl      2.4467910000     2.0286170000    -0.0085860000
    5      C      -0.2514140000     1.4431260000     0.1302930000
    6      O      -0.6055420000     2.6996210000     0.2528230000
    7      C      -1.2929620000     0.4661200000     0.1250830000
    8      C      -1.0513470000    -0.9008810000     0.0013280000
    9      Cl     -2.4468870000    -2.0288610000     0.0088250000
   10      C       0.2514770000    -1.4431460000    -0.1305880000
   11      O       0.6050260000    -2.6997200000    -0.2532630000
   12      O      -2.5514610000     1.0236310000     0.2554000000
   13      H       2.2761710000    -1.9763620000    -0.3115110000
   14      H      -2.2751830000     1.9765370000     0.3119740000
 ----------------------------------------------------------------

    9   -1451.6090645695      2.87e-06  Convergence criterion met
 Total energy in the final basis set =    -1451.6090645695

                    Orbital Energies (a.u.)
 --------------------------------------------------------------

 Alpha MOs
 -- Occupied --
********-101.5371 -19.1230 -19.1230 -19.0450 -19.0450 -10.1983 -10.1982
-10.1976 -10.1976 -10.1930 -10.1930  -9.4512  -9.4512  -7.2154  -7.2154
 -7.2065  -7.2065  -7.2060  -7.2059  -1.0374  -1.0354  -0.9461  -0.9459
 -0.8502  -0.8390  -0.7788  -0.6877  -0.6659  -0.5756  -0.5601  -0.5261
 -0.4801  -0.4655  -0.4348  -0.4183  -0.4180  -0.3867  -0.3788  -0.3781
 -0.3598  -0.3532  -0.3341  -0.3292  -0.3072  -0.3032  -0.3014  -0.3012
 -0.2379  -0.2360  -0.2317  -0.1976  -0.1354

          Ground-State Mulliken Net Atomic Charges

     Atom                 Charge (a.u.)
  ----------------------------------------
      1 O                    -0.319661
      2 C                    -1.523524
      3 C                     2.179071
      4 Cl                    0.088017
      5 C                    -1.024161
      6 O                    -0.689721
      7 C                    -1.523518
      8 C                     2.178896
      9 Cl                    0.088032
     10 C                    -1.022264
     11 O                    -0.689884
     12 O                    -0.319638
     13 H                     0.289155
     14 H                     0.289200
  ----------------------------------------
  Sum of atomic charges =    -2.000000

                    Cartesian Multipole Moments
 -----------------------------------------------------------------
    Charge (ESU x 10^10)
                -9.6064
    Dipole Moment (Debye)
         X       0.0016      Y       0.0029      Z       0.0018
       Tot       0.0038
    Quadrupole Moments (Debye-Ang)
        XX    -119.2460     XY      -0.6917     YY    -141.9037
        XZ       1.9839     YZ      -4.0563     ZZ     -89.8826

 Total job time:  57.70s(wall), 102.01s(cpu)
        *  Thank you very much for using Q-Chem.  Have a nice day.  *
