 Gaussian 16, Revision A.03,
 Gaussian 16:  ES64L-G16RevA.03 25-Dec-2016

 ----------------------------------------------------------------------
 #P UB3LYP/6-311++G(d,p) nosym opt freq SCRF=(PCM,Solvent=n,n-DiMethylF
 ormamide)
 ----------------------------------------------------------------------

 -------
 Radical
 -------
 Symbolic Z-matrix:
 Charge = -1 Multiplicity = 2

 SCF Done:  E(UB3LYP) =  -614.066697166     A.U. after   19 cycles
 SCF Done:  E(UB3LYP) =  -614.066955373     A.U. after   15 cycles
 SCF Done:  E(UB3LYP) =  -614.066988546     A.U. after   14 cycles
 SCF Done:  E(UB3LYP) =  -614.066988632     A.U. after   12 cycles
 SCF Done:  E(UB3LYP) =  -614.066989876     A.U. after   10 cycles
 Optimization completed.
    -- Stationary point found.
 Normal termination of Gaussian 16 at Sun Feb 11 01:08:09 2024.

 ----------------------------------------------------------------------
 #P Geom=AllCheck Guess=TCheck SCRF=Check GenChk UB3LYP/6-311++G(d,p) F
 req
 ----------------------------------------------------------------------

 Structure from the checkpoint file:  "243-rad.chk"
 -------
 Radical
 -------
 Charge = -1 Multiplicity = 2

                          Input orientation:
 ---------------------------------------------------------------------
 Center     Atomic      Atomic             Coordinates (Angstroms)
 Number     Number       Type             X           Y           Z
 ---------------------------------------------------------------------
      1          6           0        3.735264   -1.038788   -0.323032
      2          6           0        2.444260   -0.294651   -0.080350
      3          6           0        2.456951    1.103679    0.128714
      4          6           0        1.282697    1.797043    0.352687
      5          6           0        0.037923    1.136434    0.379075
      6          6           0       -1.203828    1.884826    0.619482
      7          8           0       -1.200722    3.139800    0.812708
      8          6           0       -2.412389    1.115247    0.623550
      9          6           0       -2.465473   -0.250926    0.418767
     10          6           0       -3.777697   -0.989147    0.436589
     11          6           0       -1.260551   -1.011751    0.180589
     12          8           0       -1.290601   -2.265747   -0.011392
     13          6           0        0.008050   -0.266515    0.168919
     14          6           0        1.222205   -0.949691   -0.055898
     15          1           0        4.250056   -0.659067   -1.211644
     16          1           0        4.424665   -0.921142    0.519413
     17          1           0        3.557454   -2.106266   -0.466755
     18          1           0        3.403231    1.636394    0.112581
     19          1           0        1.297868    2.868894    0.512102
     20          1           0       -3.332859    1.665738    0.801220
     21          1           0       -3.783934   -1.768123    1.206014
     22          1           0       -4.608685   -0.307277    0.628798
     23          1           0       -3.960351   -1.497281   -0.516036
     24          1           0        1.176466   -2.021684   -0.212161
 ---------------------------------------------------------------------

 SCF Done:  E(UB3LYP) =  -614.066989876     A.U. after    1 cycles

 Alpha  occ. eigenvalues --  -19.07265 -19.07208 -10.21782 -10.21600 -10.18006
 Alpha  occ. eigenvalues --  -10.17036 -10.17006 -10.16863 -10.16803 -10.16772
 Alpha  occ. eigenvalues --  -10.16406 -10.16296 -10.15643 -10.15533  -0.99358
 Alpha  occ. eigenvalues --   -0.99046  -0.85763  -0.81144  -0.76922  -0.74755
 Alpha  occ. eigenvalues --   -0.71063  -0.67848  -0.65653  -0.60049  -0.58854
 Alpha  occ. eigenvalues --   -0.55320  -0.49980  -0.48654  -0.46702  -0.43875
 Alpha  occ. eigenvalues --   -0.42942  -0.42686  -0.41864  -0.41657  -0.40716
 Alpha  occ. eigenvalues --   -0.39165  -0.38533  -0.38030  -0.38011  -0.36761
 Alpha  occ. eigenvalues --   -0.36515  -0.34252  -0.33694  -0.33184  -0.26827
 Alpha  occ. eigenvalues --   -0.25236  -0.24096  -0.23959  -0.23431  -0.15035
 Alpha virt. eigenvalues --   -0.02975  -0.01358  -0.00360   0.00516   0.01338
 Alpha virt. eigenvalues --    0.02467   0.02683   0.03549   0.03954   0.04366
 Alpha virt. eigenvalues --    0.04629   0.05116   0.05550   0.06299   0.06606

  Beta  occ. eigenvalues --  -19.06629 -19.06598 -10.21629 -10.21416 -10.17977
  Beta  occ. eigenvalues --  -10.16991 -10.16855 -10.16841 -10.16761 -10.16744
  Beta  occ. eigenvalues --  -10.16389 -10.16299 -10.15655 -10.15404  -0.98254
  Beta  occ. eigenvalues --   -0.97939  -0.85585  -0.80646  -0.76778  -0.74604
  Beta  occ. eigenvalues --   -0.70703  -0.67710  -0.64907  -0.59932  -0.58548
  Beta  occ. eigenvalues --   -0.55031  -0.49764  -0.48409  -0.46447  -0.43775
  Beta  occ. eigenvalues --   -0.42766  -0.42051  -0.41721  -0.41313  -0.40147
  Beta  occ. eigenvalues --   -0.38408  -0.38266  -0.37947  -0.37828  -0.36348
  Beta  occ. eigenvalues --   -0.34316  -0.34097  -0.33053  -0.32684  -0.24644
  Beta  occ. eigenvalues --   -0.23981  -0.23515  -0.23430  -0.22860
  Beta virt. eigenvalues --   -0.08363  -0.02224  -0.00345  -0.00336   0.00521
  Beta virt. eigenvalues --    0.01350   0.02481   0.02691   0.03748   0.04049
  Beta virt. eigenvalues --    0.04381   0.04639   0.05557   0.06357   0.06630

 Mulliken charges and spin densities:
               1          2
     1  C   -0.437187  -0.000634
     2  C    0.516068   0.019452
     3  C   -0.385706   0.026981
     4  C    0.001147   0.018518
     5  C    0.335668   0.029556
     6  C   -0.645607   0.097392
     7  O   -0.512348   0.218222
     8  C   -0.483936   0.094235
     9  C    0.947507   0.107896
    10  C   -0.327399   0.005812
    11  C   -0.625219   0.114793
    12  O   -0.478855   0.236434
    13  C   -0.121712   0.006958
    14  C   -0.360145   0.027086
    15  H    0.160116   0.001509
    16  H    0.160151   0.001518
    17  H    0.167638   0.000056
    18  H    0.181309  -0.002067
    19  H    0.154286  -0.002422
    20  H    0.144273  -0.009395
    21  H    0.163628   0.005573
    22  H    0.153204  -0.000190
    23  H    0.163868   0.005686
    24  H    0.129251  -0.002970
 Sum of Mulliken charges =  -1.00000   1.00000

 Dipole moment (field-independent basis, Debye):
    X=              6.0296    Y=             -2.8106    Z=             -2.0393  Tot=              6.9580
 Quadrupole moment (field-independent basis, Debye-Ang):
   XX=            -85.2719   YY=           -124.9656   ZZ=            -89.5433
   XY=              2.7343   XZ=              1.4030   YZ=             -6.5926

  Exact polarizability: 309.648   3.650 302.793 -18.406  27.455 127.238
 Approx polarizability: 316.878   4.642 352.684 -17.314  32.457 144.522

                      1                      2                      3
                      A                      A                      A
 Frequencies --     67.8064                77.1684               100.1123
 Red. masses --      1.4714                 1.8807                 3.8656
 Frc consts  --      0.0040                 0.0066                 0.0228
 IR Inten    --      6.5495                 8.5993                 2.3255

                      4                      5                      6
                      A                      A                      A
 Frequencies --    124.6801               155.8279               200.1469
 Red. masses --      1.1696                 4.1576                 3.8954
 Frc consts  --      0.0107                 0.0595                 0.0919
 IR Inten    --      0.3036                 3.9053                 5.1600

                      7                      8                      9
                      A                      A                      A
 Frequencies --    207.0860               287.5984               290.1120
 Red. masses --      3.8508                 3.9783                 3.2199
 Frc consts  --      0.0973                 0.1939                 0.1597
 IR Inten    --      0.5407                 2.4392                 2.0841

                     10                     11                     12
                      A                      A                      A
 Frequencies --    336.7908               370.7057               378.6497
 Red. masses --      5.7617                 4.7862                 4.6149
 Frc consts  --      0.3851                 0.3875                 0.3898
 IR Inten    --     18.9578                 7.7224                 0.6220

                     13                     14                     15
                      A                      A                      A
 Frequencies --    420.6266               445.0112               459.3796
 Red. masses --      6.3067                 3.0943                 5.3716
 Frc consts  --      0.6574                 0.3610                 0.6679
 IR Inten    --      4.3761                 4.6004                 8.0878

                     16                     17                     18
                      A                      A                      A
 Frequencies --    505.5500               531.7305               639.8886
 Red. masses --      9.2154                 3.8420                 4.8280
 Frc consts  --      1.3877                 0.6400                 1.1647
 IR Inten    --      3.0566                12.3443                 0.1484

                     19                     20                     21
                      A                      A                      A
 Frequencies --    660.1467               674.2750               703.4066
 Red. masses --      3.0345                 6.1595                 4.3854
 Frc consts  --      0.7791                 1.6499                 1.2784
 IR Inten    --      9.8658                26.3831                 6.8798

                     22                     23                     24
                      A                      A                      A
 Frequencies --    703.6652               742.2906               785.9905
 Red. masses --      4.6274                 5.4427                 4.4449
 Frc consts  --      1.3500                 1.7669                 1.6179
 IR Inten    --      2.1972                29.2966                 0.0106

                     25                     26                     27
                      A                      A                      A
 Frequencies --    835.3816               868.6325               879.9791
 Red. masses --      1.4246                 1.5423                 4.6700
 Frc consts  --      0.5858                 0.6856                 2.1307
 IR Inten    --     63.7543                29.3863                20.1168

                     28                     29                     30
                      A                      A                      A
 Frequencies --    917.5123               975.0049               987.1797
 Red. masses --      1.3737                 2.2203                 1.3325
 Frc consts  --      0.6814                 1.2436                 0.7651
 IR Inten    --      5.5930                35.2124                 0.8880

                     31                     32                     33
                      A                      A                      A
 Frequencies --   1008.8695              1040.1302              1045.4781
 Red. masses --      1.5033                 1.9212                 1.5042
 Frc consts  --      0.9015                 1.2246                 0.9687
 IR Inten    --     28.5880                14.0662                 2.3939

                     34                     35                     36
                      A                      A                      A
 Frequencies --   1059.3594              1105.6943              1139.6584
 Red. masses --      1.5328                 2.8068                 2.2985
 Frc consts  --      1.0135                 2.0218                 1.7589
 IR Inten    --      7.7005                 4.6091                 3.3677

                     37                     38                     39
                      A                      A                      A
 Frequencies --   1156.7286              1211.5002              1234.2003
 Red. masses --      1.7644                 2.1070                 2.3854
 Frc consts  --      1.3910                 1.8220                 2.1409
 IR Inten    --     19.6984                 9.5413               132.8145

                     40                     41                     42
                      A                      A                      A
 Frequencies --   1246.3326              1301.6062              1351.8513
 Red. masses --      3.0810                 1.8108                 8.3327
 Frc consts  --      2.8197                 1.8075                 8.9721
 IR Inten    --     40.7089                 2.7526                 2.5085

                     43                     44                     45
                      A                      A                      A
 Frequencies --   1387.1539              1399.9382              1406.7702
 Red. masses --      2.3091                 1.5250                 1.2558
 Frc consts  --      2.6179                 1.7609                 1.4642
 IR Inten    --     27.0365               116.4932                 1.9114

                     46                     47                     48
                      A                      A                      A
 Frequencies --   1436.8799              1459.6867              1461.7209
 Red. masses --      3.5905                 1.1060                 1.8508
 Frc consts  --      4.3677                 1.3884                 2.3299
 IR Inten    --    252.6811                51.3140               370.5072

                     49                     50                     51
                      A                      A                      A
 Frequencies --   1474.3804              1479.6433              1480.9014
 Red. masses --      1.0432                 2.5733                 1.3199
 Frc consts  --      1.3361                 3.3193                 1.7054
 IR Inten    --     10.3265               148.9459               269.3878

                     52                     53                     54
                      A                      A                      A
 Frequencies --   1496.4409              1515.0326              1551.8991
 Red. masses --      2.5496                 3.8995                 4.3966
 Frc consts  --      3.3639                 5.2735                 6.2387
 IR Inten    --     48.9584               753.0338                17.1422

                     55                     56                     57
                      A                      A                      A
 Frequencies --   1617.3936              1638.4519              3016.0385
 Red. masses --      7.1418                 6.1816                 1.0365
 Frc consts  --     11.0075                 9.7773                 5.5553
 IR Inten    --     32.8146                33.6040                97.7210

                     58                     59                     60
                      A                      A                      A
 Frequencies --   3017.5271              3058.2077              3062.8224
 Red. masses --      1.0376                 1.0992                 1.1002
 Frc consts  --      5.5664                 6.0568                 6.0809
 IR Inten    --     61.6520                38.4275                30.8206

                     61                     62                     63
                      A                      A                      A
 Frequencies --   3096.6406              3100.0490              3139.7913
 Red. masses --      1.1011                 1.1001                 1.0890
 Frc consts  --      6.2211                 6.2292                 6.3252
 IR Inten    --     34.7112                34.1236                53.9138

                     64                     65                     66
                      A                      A                      A
 Frequencies --   3150.9129              3173.9837              3184.3759
 Red. masses --      1.0885                 1.0892                 1.0920
 Frc consts  --      6.3672                 6.4650                 6.5244
 IR Inten    --     27.6850                15.5944                21.7085

 - Thermochemistry -
 -------------------
 Temperature   298.150 Kelvin.  Pressure   1.00000 Atm.
 Atom     1 has atomic number  6 and mass  12.00000

 Molecular mass:   186.06808 amu.
 Principal axes and moments of inertia in atomic units:
                           1         2         3
     Eigenvalues --  1610.869163153.247664741.92119
           X            0.99417   0.04338   0.09873
           Y           -0.02815   0.98817  -0.15074
           Z           -0.10410   0.14708   0.98363
 This molecule is an asymmetric top.
 Rotational symmetry number  1.
 Warning -- assumption of classical behavior for rotation
           may cause significant error
 Rotational temperatures (Kelvin)      0.05377     0.02747     0.01827
 Rotational constants (GHZ):           1.12035     0.57234     0.38059
 Zero-point vibrational energy     484729.2 (Joules/Mol)
                                  115.85305 (Kcal/Mol)
 Warning -- explicit consideration of  17 degrees of freedom as
           vibrations may cause significant error
 Vibrational temperatures:     97.56   111.03   144.04   179.39   224.20
          (Kelvin)            287.97   297.95   413.79   417.41   484.57
                              533.36   544.79   605.19   640.27   660.94
                              727.37   765.04   920.66   949.80   970.13
                             1012.05  1012.42  1067.99  1130.87  1201.93
                             1249.77  1266.09  1320.10  1402.81  1420.33
                             1451.54  1496.52  1504.21  1524.18  1590.85
                             1639.71  1664.27  1743.08  1775.74  1793.19
                             1872.72  1945.01  1995.81  2014.20  2024.03
                             2067.35  2100.16  2103.09  2121.30  2128.88
                             2130.69  2153.04  2179.79  2232.84  2327.07
                             2357.37  4339.41  4341.55  4400.08  4406.72
                             4455.38  4460.28  4517.46  4533.46  4566.65
                             4581.61

 Zero-point correction=                           0.184624 (Hartree/Particle)
 Thermal correction to Energy=                    0.196795
 Thermal correction to Enthalpy=                  0.197739
 Thermal correction to Gibbs Free Energy=         0.145581
 Sum of electronic and zero-point Energies=           -613.882366
 Sum of electronic and thermal Energies=              -613.870195
 Sum of electronic and thermal Enthalpies=            -613.869251
 Sum of electronic and thermal Free Energies=         -613.921409

                     E (Thermal)             CV                S
                      KCal/Mol        Cal/Mol-Kelvin    Cal/Mol-Kelvin
 Total                  123.491             46.747            109.776
 Electronic               0.000              0.000              1.377
 Translational            0.889              2.981             41.569
 Rotational               0.889              2.981             31.555
 Vibrational            121.713             40.785             35.275
 Vibration     1          0.598              1.970              4.216
 Vibration     2          0.599              1.964              3.962
 Vibration     3          0.604              1.949              3.452
 Vibration     4          0.610              1.928              3.027
 Vibration     5          0.620              1.896              2.600
 Vibration     6          0.638              1.840              2.132
 Vibration     7          0.641              1.830              2.069
 Vibration     8          0.685              1.697              1.488
 Vibration     9          0.686              1.692              1.473
 Vibration    10          0.717              1.602              1.227
 Vibration    11          0.743              1.532              1.077
 Vibration    12          0.749              1.516              1.045
 Vibration    13          0.783              1.425              0.890
 Vibration    14          0.804              1.372              0.811
 Vibration    15          0.817              1.340              0.768
 Vibration    16          0.861              1.238              0.644
 Vibration    17          0.887              1.180              0.583

                           ! Non-Optimized Parameters !
 Normal termination of Gaussian 16 at Sun Feb 11 01:39:40 2024.
