 Q-Chem 5.4, Q-Chem, Inc., Pleasanton, CA (2021)
 Q-Chem 5.4.0 for Intel X86 EM64T Linux

User input:
--------------------------------------------------------------
$molecule
-1 2
C                 -0.9400550000      2.0907850000     -0.2181370000
C                 -1.3410870000      2.2042650000      1.1000680000
C                 -0.6839640000      1.4641910000      2.1037800000
C                  0.1258220000      1.2383260000     -0.5791590000
C                  0.7914130000      0.4898770000      0.4338370000
C                  0.3644180000      0.6234380000      1.7665310000
C                  0.5449320000      1.1201330000     -1.9597250000
C                  1.6443590000      0.2228910000     -2.2303740000
C                  2.3048380000     -0.5217950000     -1.2761280000
C                  1.9146070000     -0.4166360000      0.1132870000
O                  0.0216970000      1.7420210000     -2.9420700000
O                  2.4996560000     -1.0676920000      1.0181760000
H                 -1.4298750000      2.6495420000     -1.0076770000
H                 -2.1628820000      2.8639870000      1.3634040000
H                 -0.9997090000      1.5538530000      3.1389490000
H                  0.8882270000      0.0432340000      2.5178060000
O                  1.9862140000      0.1652380000     -3.5507050000
C                  3.4467710000     -1.4353670000     -1.6390720000
C                  4.8275760000     -0.7690020000     -1.4863740000
C                  5.9906930000     -1.7087390000     -1.8217010000
C                  7.3697460000     -1.0563000000     -1.6719750000
C                  8.5379290000     -1.9912460000     -2.0061720000
C                  9.9145980000     -1.3343740000     -1.8527160000
C                 11.0839640000     -2.2673550000     -2.1870860000
C                 12.4576270000     -1.6031160000     -2.0301270000
C                 13.6243890000     -2.5452810000     -2.3696460000
C                 14.9626840000     -1.8490300000     -2.2005140000
Br                16.4967680000     -3.0423890000     -2.6352100000
H                  1.3385770000      0.7851890000     -3.9538450000
H                  3.3271050000     -1.7798290000     -2.6714280000
H                  3.4097890000     -2.3076240000     -0.9784430000
H                  4.9278870000     -0.4139190000     -0.4552120000
H                  4.8719700000      0.1141720000     -2.1349940000
H                  5.8758460000     -2.0773430000     -2.8503980000
H                  5.9374030000     -2.5929980000     -1.1726770000
H                  7.4836200000     -0.6891230000     -0.6437140000
H                  7.4212120000     -0.1696860000     -2.3177330000
H                  8.4251870000     -2.3578990000     -3.0350810000
H                  8.4869840000     -2.8781850000     -1.3609750000
H                 10.0269050000     -0.9685750000     -0.8237660000
H                  9.9648450000     -0.4468340000     -2.4969880000
H                 10.9748110000     -2.6320070000     -3.2164420000
H                 11.0363270000     -3.1546010000     -1.5429710000
H                 12.5678370000     -1.2411300000     -1.0001430000
H                 12.5051400000     -0.7158300000     -2.6740070000
H                 13.5251880000     -2.9013600000     -3.3997510000
H                 13.5875240000     -3.4282400000     -1.7240790000
H                 15.1416930000     -1.5331130000     -1.1745930000
H                 15.0776050000     -0.9982910000     -2.8693990000
$end
$rem
MAX_SCF_CYCLES=200
BASIS  =  6-311++G(d,p)
GUI  =  2
JOB_TYPE  =  SP
METHOD  =  B3LYP
THRESH = 14
SCF_CONVERGENCE = 8
SCF_ALGORITHM = RCA_DIIS
scf_guess = core
SOLVENT_METHOD = PCM
$end
$pcm
theory = CPCM
$end
$solvent
dielectric 37.219
opticaldielectric 1.43
$end

--------------------------------------------------------------

             Standard Nuclear Orientation (Angstroms)
    I     Atom           X                Y                Z
 ----------------------------------------------------------------
    1      C      -0.9400550000     2.0907850000    -0.2181370000
    2      C      -1.3410870000     2.2042650000     1.1000680000
    3      C      -0.6839640000     1.4641910000     2.1037800000
    4      C       0.1258220000     1.2383260000    -0.5791590000
    5      C       0.7914130000     0.4898770000     0.4338370000
    6      C       0.3644180000     0.6234380000     1.7665310000
    7      C       0.5449320000     1.1201330000    -1.9597250000
    8      C       1.6443590000     0.2228910000    -2.2303740000
    9      C       2.3048380000    -0.5217950000    -1.2761280000
   10      C       1.9146070000    -0.4166360000     0.1132870000
   11      O       0.0216970000     1.7420210000    -2.9420700000
   12      O       2.4996560000    -1.0676920000     1.0181760000
   13      H      -1.4298750000     2.6495420000    -1.0076770000
   14      H      -2.1628820000     2.8639870000     1.3634040000
   15      H      -0.9997090000     1.5538530000     3.1389490000
   16      H       0.8882270000     0.0432340000     2.5178060000
   17      O       1.9862140000     0.1652380000    -3.5507050000
   18      C       3.4467710000    -1.4353670000    -1.6390720000
   19      C       4.8275760000    -0.7690020000    -1.4863740000
   20      C       5.9906930000    -1.7087390000    -1.8217010000
   21      C       7.3697460000    -1.0563000000    -1.6719750000
   22      C       8.5379290000    -1.9912460000    -2.0061720000
   23      C       9.9145980000    -1.3343740000    -1.8527160000
   24      C      11.0839640000    -2.2673550000    -2.1870860000
   25      C      12.4576270000    -1.6031160000    -2.0301270000
   26      C      13.6243890000    -2.5452810000    -2.3696460000
   27      C      14.9626840000    -1.8490300000    -2.2005140000
   28      Br     16.4967680000    -3.0423890000    -2.6352100000
   29      H       1.3385770000     0.7851890000    -3.9538450000
   30      H       3.3271050000    -1.7798290000    -2.6714280000
   31      H       3.4097890000    -2.3076240000    -0.9784430000
   32      H       4.9278870000    -0.4139190000    -0.4552120000
   33      H       4.8719700000     0.1141720000    -2.1349940000
   34      H       5.8758460000    -2.0773430000    -2.8503980000
   35      H       5.9374030000    -2.5929980000    -1.1726770000
   36      H       7.4836200000    -0.6891230000    -0.6437140000
   37      H       7.4212120000    -0.1696860000    -2.3177330000
   38      H       8.4251870000    -2.3578990000    -3.0350810000
   39      H       8.4869840000    -2.8781850000    -1.3609750000
   40      H      10.0269050000    -0.9685750000    -0.8237660000
   41      H       9.9648450000    -0.4468340000    -2.4969880000
   42      H      10.9748110000    -2.6320070000    -3.2164420000
   43      H      11.0363270000    -3.1546010000    -1.5429710000
   44      H      12.5678370000    -1.2411300000    -1.0001430000
   45      H      12.5051400000    -0.7158300000    -2.6740070000
   46      H      13.5251880000    -2.9013600000    -3.3997510000
   47      H      13.5875240000    -3.4282400000    -1.7240790000
   48      H      15.1416930000    -1.5331130000    -1.1745930000
   49      H      15.0776050000    -0.9982910000    -2.8693990000
 ----------------------------------------------------------------

   89   -3577.4688915024      9.05E-09 Convergence criterion met
 Total energy in the final basis set = -3577.46889150

                    Orbital Energies (a.u.)
 --------------------------------------------------------------

 Alpha MOs
 -- Occupied --
******** -62.4718 -56.2920 -56.2885 -56.2885 -19.1435 -19.0872 -19.0757
-10.2242 -10.2219 -10.2214 -10.2213 -10.1748 -10.1726 -10.1722 -10.1719
-10.1709 -10.1705 -10.1691 -10.1643 -10.1625 -10.1587 -10.1568 -10.1560
-10.1549 -10.1545 -10.1542 -10.1537  -8.6804  -6.5109  -6.4994  -6.4992
 -2.6220  -2.6188  -2.6185  -2.6094  -2.6094  -1.0635  -1.0013  -0.9971
 -0.8585  -0.8245  -0.8135  -0.8018  -0.7847  -0.7647  -0.7509  -0.7434
 -0.7182  -0.6890  -0.6676  -0.6422  -0.6188  -0.6085  -0.5903  -0.5786
 -0.5710  -0.5693  -0.5663  -0.5367  -0.5044  -0.4884  -0.4842  -0.4736
 -0.4615  -0.4527  -0.4486  -0.4378  -0.4304  -0.4264  -0.4263  -0.4246
 -0.4181  -0.4101  -0.4028  -0.4013  -0.3893  -0.3884  -0.3839  -0.3761
 -0.3738  -0.3622  -0.3599  -0.3534  -0.3444  -0.3424  -0.3404  -0.3370
 -0.3350  -0.3268  -0.3243  -0.3186  -0.3169  -0.3143  -0.3028  -0.2830
 -0.2818  -0.2677  -0.2613  -0.2579  -0.2412  -0.2276  -0.1519

 Beta MOs
 -- Occupied --
******** -62.4718 -56.2920 -56.2885 -56.2885 -19.1430 -19.0810 -19.0705
-10.2228 -10.2213 -10.2206 -10.2188 -10.1746 -10.1722 -10.1718 -10.1715
-10.1701 -10.1700 -10.1693 -10.1643 -10.1617 -10.1587 -10.1569 -10.1560
-10.1549 -10.1544 -10.1542 -10.1537  -8.6804  -6.5109  -6.4994  -6.4992
 -2.6220  -2.6188  -2.6185  -2.6094  -2.6094  -1.0613  -0.9922  -0.9866
 -0.8561  -0.8245  -0.8114  -0.8009  -0.7837  -0.7636  -0.7487  -0.7426
 -0.7174  -0.6865  -0.6614  -0.6409  -0.6174  -0.6071  -0.5893  -0.5780
 -0.5703  -0.5688  -0.5648  -0.5349  -0.5021  -0.4883  -0.4819  -0.4729
 -0.4603  -0.4519  -0.4482  -0.4312  -0.4296  -0.4256  -0.4243  -0.4215
 -0.4140  -0.4078  -0.4003  -0.3991  -0.3881  -0.3834  -0.3780  -0.3744
 -0.3690  -0.3616  -0.3536  -0.3496  -0.3423  -0.3386  -0.3366  -0.3338
 -0.3287  -0.3264  -0.3236  -0.3185  -0.3166  -0.3141  -0.3021  -0.2830
 -0.2818  -0.2559  -0.2509  -0.2483  -0.2363  -0.2190

          Ground-State Mulliken Net Atomic Charges

     Atom                 Charge (a.u.)    Spin (a.u.)
  --------------------------------------------------------
      1 C                    -0.001078       0.074248
      2 C                    -0.390970      -0.000800
      3 C                    -0.467136       0.071343
      4 C                     0.512422      -0.003959
      5 C                    -0.111284       0.057855
      6 C                     0.061930       0.004625
      7 C                    -0.888437       0.170801
      8 C                    -0.599418       0.058783
      9 C                     1.990614       0.053394
     10 C                    -0.638380       0.082711
     11 O                    -0.541416       0.226010
     12 O                    -0.481255       0.193783
     13 H                     0.174009      -0.004103
     14 H                     0.199342      -0.000663
     15 H                     0.194551      -0.005044
     16 H                     0.173979      -0.000377
     17 O                    -0.297842       0.016411
     18 C                    -0.436159       0.012633
     19 C                    -0.857857      -0.000382
     20 C                    -0.325579       0.000286
     21 C                    -0.021905      -0.005315
     22 C                     0.032870      -0.001363
     23 C                     0.026822      -0.000121
     24 C                    -0.120688       0.000390
     25 C                    -0.335140       0.000022
     26 C                    -0.420956       0.000018
     27 C                    -0.609860      -0.000014
     28 Br                   -0.229206       0.000001
     29 H                     0.302649      -0.003536
     30 H                     0.220197      -0.000543
     31 H                     0.201762       0.002557
     32 H                     0.177309      -0.001607
     33 H                     0.170693       0.002001
     34 H                     0.120227      -0.000359
     35 H                     0.122740       0.000431
     36 H                     0.132210      -0.000048
     37 H                     0.131861      -0.000057
     38 H                     0.137175      -0.000009
     39 H                     0.137367       0.000002
     40 H                     0.136848       0.000005
     41 H                     0.136728      -0.000004
     42 H                     0.138759      -0.000011
     43 H                     0.138380       0.000005
     44 H                     0.145022      -0.000002
     45 H                     0.144600       0.000001
     46 H                     0.151342       0.000001
     47 H                     0.151410      -0.000001
     48 H                     0.205385      -0.000001
     49 H                     0.205363       0.000001
  --------------------------------------------------------
  Sum of atomic charges =    -1.000000

                    Cartesian Multipole Moments
 -----------------------------------------------------------------
    Charge (ESU x 10^10)
                -4.8032
    Dipole Moment (Debye)
         X      -9.7340      Y       0.8687      Z       5.4995
       Tot      11.2139
    Quadrupole Moments (Debye-Ang)
        XX    -266.1374     XY      37.5957     YY    -181.5766
        XZ      13.1762     YZ       6.2395     ZZ    -187.5428

 Total job time:  3107.13s(wall), 19471.02s(cpu)
        *  Thank you very much for using Q-Chem.  Have a nice day.  *
