 Gaussian 16, Revision A.03,
 Gaussian 16:  ES64L-G16RevA.03 25-Dec-2016

 ----------------------------------------------------------------------
 #P UB3LYP/6-311++G(d,p) nosym opt freq SCRF=(PCM,Solvent=n,n-DiMethylF
 ormamide)
 ----------------------------------------------------------------------

 -------
 Reduced
 -------
 Symbolic Z-matrix:
 Charge = -2 Multiplicity = 1

 SCF Done:  E(UB3LYP) =  -532.345992702     A.U. after   14 cycles
 SCF Done:  E(UB3LYP) =  -532.346513651     A.U. after   12 cycles
 SCF Done:  E(UB3LYP) =  -532.346620965     A.U. after   11 cycles
 SCF Done:  E(UB3LYP) =  -532.346632998     A.U. after   11 cycles
 SCF Done:  E(UB3LYP) =  -532.346633435     A.U. after    9 cycles
 Optimization completed.
    -- Stationary point found.
 Normal termination of Gaussian 16 at Sat Feb 10 12:45:26 2024.

 ----------------------------------------------------------------------
 #P Geom=AllCheck Guess=TCheck SCRF=Check GenChk UB3LYP/6-311++G(d,p) F
 req
 ----------------------------------------------------------------------

 Structure from the checkpoint file:  "111-an.chk"
 -------
 Reduced
 -------
 Charge = -2 Multiplicity = 1

                          Input orientation:
 ---------------------------------------------------------------------
 Center     Atomic      Atomic             Coordinates (Angstroms)
 Number     Number       Type             X           Y           Z
 ---------------------------------------------------------------------
      1          8           0       -2.718785   -0.192554    0.448572
      2          6           0       -1.350235   -0.062645    0.226210
      3          6           0       -0.714734    1.178076    0.267420
      4          6           0        0.679729    1.283610    0.039292
      5          8           0        1.396129    2.401632    0.049522
      6          6           0        1.350242    0.062637   -0.226209
      7          6           0        0.714738   -1.178075   -0.267437
      8          6           0       -0.679727   -1.283616   -0.039274
      9          8           0       -1.396126   -2.401635   -0.049592
     10          8           0        2.718786    0.192565   -0.448567
     11          1           0       -2.822650   -1.166097    0.350710
     12          1           0       -1.292265    2.075905    0.475752
     13          1           0        1.292254   -2.075908   -0.475794
     14          1           0        2.822644    1.166105   -0.350606
 ---------------------------------------------------------------------

 SCF Done:  E(UB3LYP) =  -532.346633435     A.U. after    1 cycles

 Alpha  occ. eigenvalues --  -19.10813 -19.10813 -19.02239 -19.02238 -10.17181
 Alpha  occ. eigenvalues --  -10.17180 -10.16521 -10.16520 -10.12337 -10.12336
 Alpha  occ. eigenvalues --   -1.01681  -1.01534  -0.91655  -0.91526  -0.77812
 Alpha  occ. eigenvalues --   -0.69240  -0.64252  -0.56656  -0.54904  -0.50231
 Alpha  occ. eigenvalues --   -0.45039  -0.43671  -0.41518  -0.39869  -0.38768
 Alpha  occ. eigenvalues --   -0.35802  -0.35748  -0.34446  -0.33922  -0.30538
 Alpha  occ. eigenvalues --   -0.29859  -0.29584  -0.21784  -0.21184  -0.20722
 Alpha  occ. eigenvalues --   -0.18580  -0.11660
 Alpha virt. eigenvalues --    0.00475   0.01783   0.02024   0.03135   0.03595
 Alpha virt. eigenvalues --    0.05783   0.06542   0.07122   0.08210   0.08676
 Alpha virt. eigenvalues --    0.08851   0.09123   0.10033   0.12699   0.12759

  Beta  occ. eigenvalues --  -19.10813 -19.10813 -19.02239 -19.02238 -10.17181
  Beta  occ. eigenvalues --  -10.17180 -10.16521 -10.16520 -10.12337 -10.12336
  Beta  occ. eigenvalues --   -1.01681  -1.01534  -0.91655  -0.91526  -0.77812
  Beta  occ. eigenvalues --   -0.69240  -0.64252  -0.56656  -0.54904  -0.50231
  Beta  occ. eigenvalues --   -0.45039  -0.43671  -0.41518  -0.39869  -0.38768
  Beta  occ. eigenvalues --   -0.35802  -0.35748  -0.34446  -0.33922  -0.30538
  Beta  occ. eigenvalues --   -0.29859  -0.29584  -0.21784  -0.21184  -0.20722
  Beta  occ. eigenvalues --   -0.18580  -0.11660
  Beta virt. eigenvalues --    0.00475   0.01783   0.02024   0.03135   0.03595
  Beta virt. eigenvalues --    0.05783   0.06542   0.07122   0.08210   0.08676
  Beta virt. eigenvalues --    0.08851   0.09123   0.10033   0.12699   0.12759

 Mulliken charges and spin densities:
               1          2
     1  O   -0.369586  -0.000000
     2  C   -0.214515   0.000000
     3  C    0.203661  -0.000000
     4  C   -0.272357   0.000000
     5  O   -0.769403  -0.000000
     6  C   -0.214529  -0.000000
     7  C    0.203674   0.000000
     8  C   -0.272358  -0.000000
     9  O   -0.769407   0.000000
    10  O   -0.369585   0.000000
    11  H    0.267393   0.000000
    12  H    0.154809  -0.000000
    13  H    0.154809   0.000000
    14  H    0.267395  -0.000000
 Sum of Mulliken charges =  -2.00000   0.00000

 Dipole moment (field-independent basis, Debye):
    X=              0.0000    Y=              0.0000    Z=              0.0004  Tot=              0.0004
 Quadrupole moment (field-independent basis, Debye-Ang):
   XX=            -93.5609   YY=           -106.5833   ZZ=            -67.0877
   XY=            -18.0532   XZ=              2.4885   YZ=             -1.7647

  Exact polarizability: 173.504  22.175 177.822 -12.652   7.457  88.155
 Approx polarizability: 198.411  25.364 198.620 -15.740   8.861  93.707

                      1                      2                      3
                      A                      A                      A
 Frequencies --    139.5899               184.9569               288.0950
 Red. masses --     14.1030                 7.9709                 6.1809
 Frc consts  --      0.1619                 0.1607                 0.3023
 IR Inten    --     10.7778                 0.4286                 0.0000

                      4                      5                      6
                      A                      A                      A
 Frequencies --    294.3345               297.3314               350.4126
 Red. masses --      5.3572                 6.4425                 8.2028
 Frc consts  --      0.2734                 0.3356                 0.5934
 IR Inten    --     75.2458                 0.0000                 0.0000

                      7                      8                      9
                      A                      A                      A
 Frequencies --    367.7071               427.3063               445.4989
 Red. masses --     12.0408                 2.7024                 9.8782
 Frc consts  --      0.9592                 0.2907                 1.1551
 IR Inten    --      3.8456                23.0704                 0.0000

                     10                     11                     12
                      A                      A                      A
 Frequencies --    503.1492               649.2617               654.4165
 Red. masses --     11.0408                 1.1260                 1.0946
 Frc consts  --      1.6468                 0.2797                 0.2762
 IR Inten    --      0.0000                 0.0001               247.8789

                     13                     14                     15
                      A                      A                      A
 Frequencies --    671.5012               687.7815               697.5499
 Red. masses --      4.3178                 3.4484                 9.6886
 Frc consts  --      1.1471                 0.9611                 2.7775
 IR Inten    --      0.0000                 0.0000                 0.8987

                     16                     17                     18
                      A                      A                      A
 Frequencies --    717.7754               754.5416               780.7461
 Red. masses --      9.0593                 7.6603                 1.4942
 Frc consts  --      2.7499                 2.5696                 0.5366
 IR Inten    --    102.9932                 0.0000                 0.0000

                     19                     20                     21
                      A                      A                      A
 Frequencies --    815.6352               862.8254              1105.8110
 Red. masses --      1.4792                 3.1286                11.6855
 Frc consts  --      0.5798                 1.3723                 8.4190
 IR Inten    --    133.6543               433.0589                 0.0000

                     22                     23                     24
                      A                      A                      A
 Frequencies --   1127.7633              1178.5056              1192.2961
 Red. masses --      2.8771                 2.3367                 1.2387
 Frc consts  --      2.1560                 1.9122                 1.0375
 IR Inten    --   1191.4107               277.6701                 0.0000

                     25                     26                     27
                      A                      A                      A
 Frequencies --   1206.2745              1286.8788              1355.7053
 Red. masses --      5.1695                 2.0502                 3.1908
 Frc consts  --      4.4319                 2.0004                 3.4553
 IR Inten    --    151.5092                 0.0000               452.9472

                     28                     29                     30
                      A                      A                      A
 Frequencies --   1390.7590              1450.9749              1504.7556
 Red. masses --      3.3365                 2.5804                 3.4329
 Frc consts  --      3.8023                 3.2007                 4.5797
 IR Inten    --      0.0000              1293.9267               276.5627

                     31                     32                     33
                      A                      A                      A
 Frequencies --   1557.4288              1644.1417              3129.7886
 Red. masses --      5.2922                 6.0564                 1.0887
 Frc consts  --      7.5632                 9.6459                 6.2831
 IR Inten    --      0.0000                 0.0000               121.8471

                     34                     35                     36
                      A                      A                      A
 Frequencies --   3132.8544              3446.9124              3449.3356
 Red. masses --      1.0891                 1.0640                 1.0640
 Frc consts  --      6.2981                 7.4485                 7.4589
 IR Inten    --      0.0000               581.3438                 0.2147

 - Thermochemistry -
 -------------------
 Temperature   298.150 Kelvin.  Pressure   1.00000 Atm.
 Atom     1 has atomic number  8 and mass  15.99491

 Molecular mass:   140.01096 amu.
 Principal axes and moments of inertia in atomic units:
                           1         2         3
     Eigenvalues --   694.505431682.463752376.96880
           X            0.84271  -0.51089   0.16980
           Y            0.53216   0.83824  -0.11902
           Z           -0.08152   0.19066   0.97826
 This molecule is an asymmetric top.
 Rotational symmetry number  1.
 Warning -- assumption of classical behavior for rotation
           may cause significant error
 Rotational temperatures (Kelvin)      0.12471     0.05148     0.03644
 Rotational constants (GHZ):           2.59860     1.07268     0.75926
 Zero-point vibrational energy     237761.4 (Joules/Mol)
                                   56.82634 (Kcal/Mol)
 Warning -- explicit consideration of  10 degrees of freedom as
           vibrations may cause significant error
 Vibrational temperatures:    200.84   266.11   414.50   423.48   427.79
          (Kelvin)            504.17   529.05   614.80   640.97   723.92
                              934.14   941.56   966.14   989.56  1003.62
                             1032.72  1085.62  1123.32  1173.52  1241.41
                             1591.02  1622.60  1695.61  1715.45  1735.56
                             1851.53  1950.56  2000.99  2087.63  2165.01
                             2240.79  2365.55  4503.07  4507.48  4959.34
                             4962.82

 Zero-point correction=                           0.090559 (Hartree/Particle)
 Thermal correction to Energy=                    0.098586
 Thermal correction to Enthalpy=                  0.099530
 Thermal correction to Gibbs Free Energy=         0.058031
 Sum of electronic and zero-point Energies=           -532.256075
 Sum of electronic and thermal Energies=              -532.248048
 Sum of electronic and thermal Enthalpies=            -532.247104
 Sum of electronic and thermal Free Energies=         -532.288603

                     E (Thermal)             CV                S
                      KCal/Mol        Cal/Mol-Kelvin    Cal/Mol-Kelvin
 Total                   61.863             31.555             87.342
 Electronic               0.000              0.000              0.000
 Translational            0.889              2.981             40.721
 Rotational               0.889              2.981             29.409
 Vibrational             60.086             25.593             17.212
 Vibration     1          0.615              1.914              2.809
 Vibration     2          0.631              1.860              2.278
 Vibration     3          0.685              1.696              1.485
 Vibration     4          0.689              1.684              1.449
 Vibration     5          0.691              1.679              1.432
 Vibration     6          0.727              1.574              1.164
 Vibration     7          0.740              1.539              1.089
 Vibration     8          0.789              1.411              0.867
 Vibration     9          0.805              1.371              0.810
 Vibration    10          0.858              1.243              0.650

 Optimization completed.
    -- Stationary point found.
 Normal termination of Gaussian 16 at Sat Feb 10 12:48:55 2024.
