 Q-Chem 5.4, Q-Chem, Inc., Pleasanton, CA (2021)
 Q-Chem 5.4.0 for Intel X86 EM64T Linux

User input:
--------------------------------------------------------------
$molecule
-1 2
C                 -1.3533690000     -2.0334760000      1.1592440000
C                 -1.4144770000     -1.9979140000     -0.2829270000
C                 -0.7795380000     -1.0342550000     -1.0211770000
C                  0.0005960000      0.0207520000     -0.4067030000
C                  0.0632210000     -0.0131460000      1.0422860000
C                 -0.5704190000     -0.9753120000      1.7833520000
O                 -1.9355480000     -2.9187640000      1.8570770000
O                  0.5881130000      0.9120620000     -1.0852000000
C                 -0.5296350000     -1.0448390000      3.2841200000
O                  0.2596700000      0.0287380000      3.8250730000
C                  0.4041330000      0.1194430000      5.1640360000
C                 -0.1629680000     -0.7640340000      6.0942470000
C                  1.1874480000      1.1906000000      5.6274300000
C                  1.3967750000      1.3712800000      6.9869440000
C                  0.0581610000     -0.5670760000      7.4591630000
C                  0.8335360000      0.4930840000      7.9186230000
H                 -1.9957050000     -2.7822580000     -0.7606030000
H                 -0.8390500000     -1.0267290000     -2.1062100000
H                  0.6414120000      0.7665830000      1.5251300000
H                 -0.1092580000     -2.0061550000      3.6030710000
H                 -1.5473630000     -0.9922500000      3.6891450000
H                 -0.7693960000     -1.5956500000      5.7633570000
H                  1.6176940000      1.8631280000      4.8947030000
H                  2.0047680000      2.2044380000      7.3247140000
H                 -0.3872940000     -1.2590980000      8.1667510000
H                  0.9984220000      0.6361370000      8.9806210000
$end
$rem
MAX_SCF_CYCLES=200
BASIS  =  6-311++G(d,p)
GUI  =  2
JOB_TYPE  =  SP
METHOD  =  B3LYP
SOLVENT_METHOD = PCM
$end
$pcm
theory = CPCM
$end
$solvent
dielectric 37.219
opticaldielectric 1.43
$end

--------------------------------------------------------------

             Standard Nuclear Orientation (Angstroms)
    I     Atom           X                Y                Z
 ----------------------------------------------------------------
    1      C      -1.3533690000    -2.0334760000     1.1592440000
    2      C      -1.4144770000    -1.9979140000    -0.2829270000
    3      C      -0.7795380000    -1.0342550000    -1.0211770000
    4      C       0.0005960000     0.0207520000    -0.4067030000
    5      C       0.0632210000    -0.0131460000     1.0422860000
    6      C      -0.5704190000    -0.9753120000     1.7833520000
    7      O      -1.9355480000    -2.9187640000     1.8570770000
    8      O       0.5881130000     0.9120620000    -1.0852000000
    9      C      -0.5296350000    -1.0448390000     3.2841200000
   10      O       0.2596700000     0.0287380000     3.8250730000
   11      C       0.4041330000     0.1194430000     5.1640360000
   12      C      -0.1629680000    -0.7640340000     6.0942470000
   13      C       1.1874480000     1.1906000000     5.6274300000
   14      C       1.3967750000     1.3712800000     6.9869440000
   15      C       0.0581610000    -0.5670760000     7.4591630000
   16      C       0.8335360000     0.4930840000     7.9186230000
   17      H      -1.9957050000    -2.7822580000    -0.7606030000
   18      H      -0.8390500000    -1.0267290000    -2.1062100000
   19      H       0.6414120000     0.7665830000     1.5251300000
   20      H      -0.1092580000    -2.0061550000     3.6030710000
   21      H      -1.5473630000    -0.9922500000     3.6891450000
   22      H      -0.7693960000    -1.5956500000     5.7633570000
   23      H       1.6176940000     1.8631280000     4.8947030000
   24      H       2.0047680000     2.2044380000     7.3247140000
   25      H      -0.3872940000    -1.2590980000     8.1667510000
   26      H       0.9984220000     0.6361370000     8.9806210000
 ----------------------------------------------------------------

    8    -727.3994817877      8.21e-06  Convergence criterion met
 Total energy in the final basis set =     -727.3994817877

                    Orbital Energies (a.u.)
 --------------------------------------------------------------

 Alpha MOs
 -- Occupied --
-19.1570 -19.0818 -19.0801 -10.2390 -10.2268 -10.2231 -10.2224 -10.1779
-10.1773 -10.1771 -10.1733 -10.1716 -10.1690 -10.1649 -10.1640 -10.1625
 -1.0751  -1.0023  -0.9996  -0.8571  -0.8288  -0.7780  -0.7518  -0.7384
 -0.7029  -0.6721  -0.6172  -0.6092  -0.5797  -0.5614  -0.5385  -0.4939
 -0.4822  -0.4792  -0.4670  -0.4632  -0.4464  -0.4372  -0.4235  -0.4138
 -0.4111  -0.4057  -0.3870  -0.3837  -0.3733  -0.3673  -0.3635  -0.3587
 -0.3303  -0.3298  -0.2843  -0.2617  -0.2560  -0.2478  -0.2416  -0.2289
 -0.1660

 Beta MOs
 -- Occupied --
-19.1570 -19.0753 -19.0733 -10.2390 -10.2269 -10.2213 -10.2209 -10.1773
-10.1771 -10.1768 -10.1733 -10.1716 -10.1690 -10.1638 -10.1627 -10.1616
 -1.0751  -0.9907  -0.9875  -0.8570  -0.8232  -0.7758  -0.7517  -0.7373
 -0.6989  -0.6640  -0.6160  -0.6079  -0.5776  -0.5579  -0.5378  -0.4935
 -0.4804  -0.4780  -0.4645  -0.4605  -0.4456  -0.4346  -0.4232  -0.4130
 -0.3998  -0.3981  -0.3808  -0.3769  -0.3667  -0.3625  -0.3565  -0.3480
 -0.3296  -0.3279  -0.2613  -0.2522  -0.2480  -0.2416  -0.2357  -0.2288

          Ground-State Mulliken Net Atomic Charges

     Atom                 Charge (a.u.)    Spin (a.u.)
  --------------------------------------------------------
      1 C                    -1.080835       0.034443
      2 C                     0.180242       0.124327
      3 C                     0.049260       0.098012
      4 C                    -0.392735       0.152738
      5 C                    -0.447270       0.028551
      6 C                     0.637475       0.094194
      7 O                    -0.502781       0.242813
      8 O                    -0.522133       0.240268
      9 C                    -0.133347      -0.002261
     10 O                    -0.130479       0.000109
     11 C                     0.419311      -0.002423
     12 C                     0.014205      -0.000747
     13 C                    -0.148791       0.000784
     14 C                    -0.276981       0.000459
     15 C                    -0.336502      -0.000092
     16 C                    -0.405710      -0.000242
     17 H                     0.198519      -0.007643
     18 H                     0.203126      -0.007929
     19 H                     0.188729      -0.007253
     20 H                     0.239861       0.006036
     21 H                     0.240062       0.006035
     22 H                     0.191486      -0.000191
     23 H                     0.194032       0.000025
     24 H                     0.214452      -0.000011
     25 H                     0.224835      -0.000006
     26 H                     0.181967       0.000005
  --------------------------------------------------------
  Sum of atomic charges =    -1.000000

                    Cartesian Multipole Moments
 -----------------------------------------------------------------
    Charge (ESU x 10^10)
                -4.8032
    Dipole Moment (Debye)
         X       2.0296      Y       3.1336      Z      -2.1201
       Tot       4.2935
    Quadrupole Moments (Debye-Ang)
        XX    -107.6805     XY     -11.1037     YY    -117.3528
        XZ       9.0307     YZ      13.2290     ZZ    -104.9354

 Total job time:  40.12s(wall), 302.00s(cpu)
        *  Thank you very much for using Q-Chem.  Have a nice day.  *
