 Gaussian 16, Revision A.03,
 Gaussian 16:  ES64L-G16RevA.03 25-Dec-2016

 --------------------------------------
 #P UB3LYP/6-311++G(d,p) nosym opt freq
 --------------------------------------

 -------
 Radical
 -------
 Symbolic Z-matrix:
 Charge = -1 Multiplicity = 2

 SCF Done:  E(UB3LYP) =  -727.314382168     A.U. after   23 cycles
 SCF Done:  E(UB3LYP) =  -727.314382276     A.U. after   11 cycles
 Optimization completed.
    -- Stationary point found.
 Normal termination of Gaussian 16 at Wed Jan 10 04:59:14 2024.

 ----------------------------------------------------------------------
 #P Geom=AllCheck Guess=TCheck SCRF=Check GenChk UB3LYP/6-311++G(d,p) F
 req
 ----------------------------------------------------------------------

 Structure from the checkpoint file:  "065-rad.chk"
 -------
 Radical
 -------
 Charge = -1 Multiplicity = 2

                          Input orientation:
 ---------------------------------------------------------------------
 Center     Atomic      Atomic             Coordinates (Angstroms)
 Number     Number       Type             X           Y           Z
 ---------------------------------------------------------------------
      1          6           0       -1.353369   -2.033476    1.159244
      2          6           0       -1.414477   -1.997914   -0.282927
      3          6           0       -0.779538   -1.034255   -1.021177
      4          6           0        0.000596    0.020752   -0.406703
      5          6           0        0.063221   -0.013146    1.042286
      6          6           0       -0.570419   -0.975312    1.783352
      7          8           0       -1.935548   -2.918764    1.857077
      8          8           0        0.588113    0.912062   -1.085200
      9          6           0       -0.529635   -1.044839    3.284120
     10          8           0        0.259670    0.028738    3.825073
     11          6           0        0.404133    0.119443    5.164036
     12          6           0       -0.162968   -0.764034    6.094247
     13          6           0        1.187448    1.190600    5.627430
     14          6           0        1.396775    1.371280    6.986944
     15          6           0        0.058161   -0.567076    7.459163
     16          6           0        0.833536    0.493084    7.918623
     17          1           0       -1.995705   -2.782258   -0.760603
     18          1           0       -0.839050   -1.026729   -2.106210
     19          1           0        0.641412    0.766583    1.525130
     20          1           0       -0.109258   -2.006155    3.603071
     21          1           0       -1.547363   -0.992250    3.689145
     22          1           0       -0.769396   -1.595650    5.763357
     23          1           0        1.617694    1.863128    4.894703
     24          1           0        2.004768    2.204438    7.324714
     25          1           0       -0.387294   -1.259098    8.166751
     26          1           0        0.998422    0.636137    8.980621
 ---------------------------------------------------------------------

 SCF Done:  E(UB3LYP) =  -727.314382276     A.U. after    1 cycles

 Alpha  occ. eigenvalues --  -19.05546 -18.93969 -18.93648 -10.15066 -10.11535
 Alpha  occ. eigenvalues --  -10.09815 -10.09791 -10.09032 -10.08878 -10.08783
 Alpha  occ. eigenvalues --  -10.08477 -10.08131 -10.04532 -10.03210 -10.03125
 Alpha  occ. eigenvalues --  -10.03021  -0.97340  -0.86028  -0.85514  -0.77232
 Alpha  occ. eigenvalues --   -0.69919  -0.67178  -0.66583  -0.63202  -0.58304
 Alpha  occ. eigenvalues --   -0.54522  -0.52834  -0.50911  -0.46792  -0.44402
 Alpha  occ. eigenvalues --   -0.43114  -0.40152  -0.38670  -0.37157  -0.36419
 Alpha  occ. eigenvalues --   -0.34493  -0.33446  -0.33125  -0.31202  -0.29823
 Alpha  occ. eigenvalues --   -0.29565  -0.28853  -0.27312  -0.26616  -0.26305
 Alpha  occ. eigenvalues --   -0.24488  -0.23987  -0.22844  -0.22675  -0.22414
 Alpha  occ. eigenvalues --   -0.17752  -0.14456  -0.13863  -0.12505  -0.10443
 Alpha  occ. eigenvalues --   -0.09784  -0.02576
 Alpha virt. eigenvalues --    0.05953   0.06525   0.07735   0.08021   0.08921
 Alpha virt. eigenvalues --    0.10359   0.11050   0.11266   0.11647   0.12693
 Alpha virt. eigenvalues --    0.12866   0.13441   0.14443   0.14653   0.15307

  Beta  occ. eigenvalues --  -19.05547 -18.93272 -18.92866 -10.15066 -10.11545
  Beta  occ. eigenvalues --  -10.09815 -10.09790 -10.09033 -10.08878 -10.08783
  Beta  occ. eigenvalues --  -10.08339 -10.08050 -10.04441 -10.03112 -10.02986
  Beta  occ. eigenvalues --  -10.02892  -0.97343  -0.84816  -0.84155  -0.77229
  Beta  occ. eigenvalues --   -0.69480  -0.67091  -0.66452  -0.63022  -0.58062
  Beta  occ. eigenvalues --   -0.53765  -0.52702  -0.50738  -0.46575  -0.44247
  Beta  occ. eigenvalues --   -0.42805  -0.40105  -0.38620  -0.37098  -0.36393
  Beta  occ. eigenvalues --   -0.34473  -0.33040  -0.32934  -0.30936  -0.29664
  Beta  occ. eigenvalues --   -0.29444  -0.28839  -0.27268  -0.25575  -0.25167
  Beta  occ. eigenvalues --   -0.24221  -0.23131  -0.22600  -0.22173  -0.20154
  Beta  occ. eigenvalues --   -0.17747  -0.13853  -0.11683  -0.10861  -0.09784
  Beta  occ. eigenvalues --   -0.09069
  Beta virt. eigenvalues --    0.04766   0.05952   0.06547   0.07733   0.08026
  Beta virt. eigenvalues --    0.08920   0.10370   0.11056   0.11270   0.12067
  Beta virt. eigenvalues --    0.12713   0.13442   0.13782   0.14463   0.14755

 Mulliken charges and spin densities:
               1          2
     1  C   -1.252287   0.010854
     2  C    0.251681   0.121273
     3  C    0.167314   0.110778
     4  C   -0.668717   0.106215
     5  C   -0.305246   0.061491
     6  C    0.706710   0.077766
     7  O   -0.409051   0.255514
     8  O   -0.403893   0.277143
     9  C   -0.133875  -0.004802
    10  O   -0.073502  -0.000105
    11  C    0.421174  -0.003281
    12  C    0.065578  -0.000224
    13  C   -0.124289   0.000840
    14  C   -0.202989   0.000675
    15  C   -0.334605   0.000102
    16  C   -0.348465  -0.000320
    17  H    0.144119  -0.007785
    18  H    0.149297  -0.008900
    19  H    0.162484  -0.009482
    20  H    0.213071   0.006232
    21  H    0.213092   0.006236
    22  H    0.162983  -0.000209
    23  H    0.158345   0.000017
    24  H    0.154085  -0.000025
    25  H    0.166794  -0.000019
    26  H    0.120193   0.000015
 Sum of Mulliken charges =  -1.00000   1.00000

 Dipole moment (field-independent basis, Debye):
    X=              2.0623    Y=              3.3614    Z=             -4.2858  Tot=              5.8241
 Quadrupole moment (field-independent basis, Debye-Ang):
   XX=           -108.3225   YY=           -117.7715   ZZ=           -126.7003
   XY=            -11.3576   XZ=              5.9319   YZ=             10.6921

  Exact polarizability: 133.697  51.911 171.321   2.886  -8.841 248.916
 Approx polarizability: 218.260  99.854 294.880 -22.020 -47.430 339.351

                      1                      2                      3
                      A                      A                      A
 Frequencies --     24.0322                33.8990                65.5371
 Red. masses --      4.0146                 5.4754                 6.4073
 Frc consts  --      0.0014                 0.0037                 0.0162
 IR Inten    --      0.2096                 0.0487                 0.0393

                      4                      5                      6
                      A                      A                      A
 Frequencies --     92.0690               129.2110               182.4672
 Red. masses --      4.1334                 6.8105                 7.0107
 Frc consts  --      0.0206                 0.0670                 0.1375
 IR Inten    --      0.0020                15.7230                 1.4618

                      7                      8                      9
                      A                      A                      A
 Frequencies --    200.5399               230.9157               232.8946
 Red. masses --      2.8768                 7.4467                 5.2683
 Frc consts  --      0.0682                 0.2339                 0.1684
 IR Inten    --      1.2391                 5.5805                 0.0549

                     10                     11                     12
                      A                      A                      A
 Frequencies --    322.2906               404.6646               413.7863
 Red. masses --      5.7409                 9.9075                 3.2129
 Frc consts  --      0.3513                 0.9559                 0.3241
 IR Inten    --      0.2506                13.6763                 1.6298

                     13                     14                     15
                      A                      A                      A
 Frequencies --    421.4514               448.6202               473.4210
 Red. masses --      3.1137                 5.5246                10.0868
 Frc consts  --      0.3259                 0.6551                 1.3320
 IR Inten    --      0.1621                 4.8166                 0.0907

                     16                     17                     18
                      A                      A                      A
 Frequencies --    515.9737               518.1074               586.1134
 Red. masses --      2.7491                 6.3697                 2.2415
 Frc consts  --      0.4312                 1.0074                 0.4537
 IR Inten    --     10.8256                 0.2932                 3.2797

                     19                     20                     21
                      A                      A                      A
 Frequencies --    591.7546               618.4597               629.2752
 Red. masses --      5.3570                 6.4655                 6.3940
 Frc consts  --      1.1052                 1.4571                 1.4918
 IR Inten    --      0.1472                 4.6300                 0.7580

                     22                     23                     24
                      A                      A                      A
 Frequencies --    698.1119               742.7594               748.7864
 Red. masses --      2.1087                 4.9559                 5.8059
 Frc consts  --      0.6055                 1.6109                 1.9179
 IR Inten    --     28.3896                 0.0046                14.8655

                     25                     26                     27
                      A                      A                      A
 Frequencies --    752.3929               807.5681               807.9362
 Red. masses --      1.6963                 1.5885                 5.8216
 Frc consts  --      0.5658                 0.6104                 2.2390
 IR Inten    --     62.1552                18.6073                28.6065

                     28                     29                     30
                      A                      A                      A
 Frequencies --    824.7259               858.6186               879.3468
 Red. masses --      1.2533                 6.4845                 1.5241
 Frc consts  --      0.5022                 2.8166                 0.6944
 IR Inten    --      0.5846                 7.8814                 4.5578

                     31                     32                     33
                      A                      A                      A
 Frequencies --    887.9008               939.8015               941.5463
 Red. masses --      1.5245                 1.2642                 2.6787
 Frc consts  --      0.7081                 0.6578                 1.3991
 IR Inten    --     40.7353                 0.2339                 3.1069

                     34                     35                     36
                      A                      A                      A
 Frequencies --    954.3486               962.7767              1003.3061
 Red. masses --      1.3135                 1.2406                 6.0910
 Frc consts  --      0.7048                 0.6776                 3.6125
 IR Inten    --      0.0089                 0.2008                 6.2781

                     37                     38                     39
                      A                      A                      A
 Frequencies --   1019.7099              1025.6465              1045.4393
 Red. masses --      6.2910                 1.6855                 2.1171
 Frc consts  --      3.8541                 1.0447                 1.3633
 IR Inten    --    110.0625                 0.5413                43.6865

                     40                     41                     42
                      A                      A                      A
 Frequencies --   1094.2306              1102.5685              1146.3455
 Red. masses --      1.8047                 1.5664                 2.1584
 Frc consts  --      1.2731                 1.1219                 1.6711
 IR Inten    --      1.1538                13.1358                27.0015

                     43                     44                     45
                      A                      A                      A
 Frequencies --   1172.8802              1192.3047              1212.8201
 Red. masses --      1.1002                 1.1592                 2.7996
 Frc consts  --      0.8917                 0.9709                 2.4263
 IR Inten    --      3.3975                26.3718                13.5787

                     46                     47                     48
                      A                      A                      A
 Frequencies --   1239.5139              1245.0331              1284.1816
 Red. masses --      1.0649                 1.5621                 4.2862
 Frc consts  --      0.9640                 1.4267                 4.1646
 IR Inten    --      2.1641                14.7227               394.3622

                     49                     50                     51
                      A                      A                      A
 Frequencies --   1325.8200              1335.0262              1357.5077
 Red. masses --      2.3289                 2.0815                 2.0383
 Frc consts  --      2.4120                 2.1858                 2.2131
 IR Inten    --     26.0344                45.9962                28.9624

                     52                     53                     54
                      A                      A                      A
 Frequencies --   1398.0340              1444.9482              1481.5957
 Red. masses --      1.7465                 4.0357                 2.0564
 Frc consts  --      2.0112                 4.9645                 2.6596
 IR Inten    --     41.4688                27.6097                 7.3177

                     55                     56                     57
                      A                      A                      A
 Frequencies --   1484.2737              1489.1676              1522.6827
 Red. masses --      2.6662                 1.8634                 3.7250
 Frc consts  --      3.4608                 2.4347                 5.0886
 IR Inten    --      8.4006                 3.8345               411.6602

                     58                     59                     60
                      A                      A                      A
 Frequencies --   1525.7674              1531.7668              1613.9751
 Red. masses --      3.5149                 3.7363                 5.7792
 Frc consts  --      4.8211                 5.1651                 8.8697
 IR Inten    --    257.7041                 9.3912                36.0961

                     61                     62                     63
                      A                      A                      A
 Frequencies --   1639.1124              1649.4833              3000.4609
 Red. masses --      5.6810                 6.9985                 1.0551
 Frc consts  --      8.9927                11.2189                 5.5964
 IR Inten    --    137.5719                 4.0226                24.5377

                     64                     65                     66
                      A                      A                      A
 Frequencies --   3029.7128              3131.7661              3148.9158
 Red. masses --      1.1064                 1.0850                 1.0845
 Frc consts  --      5.9835                 6.2702                 6.3359
 IR Inten    --     26.7257                21.3010                 2.3288

                     67                     68                     69
                      A                      A                      A
 Frequencies --   3154.1143              3157.2420              3176.5311
 Red. masses --      1.0945                 1.0894                 1.0941
 Frc consts  --      6.4154                 6.3983                 6.5047
 IR Inten    --     50.9107                26.0948                43.2736

                     70                     71                     72
                      A                      A                      A
 Frequencies --   3177.2777              3188.6001              3210.8488
 Red. masses --      1.0891                 1.0943                 1.0917
 Frc consts  --      6.4780                 6.5550                 6.6309
 IR Inten    --      7.3437                 7.3721                 2.7866

 - Thermochemistry -
 -------------------
 Temperature   298.150 Kelvin.  Pressure   1.00000 Atm.
 Atom     1 has atomic number  6 and mass  12.00000

 Molecular mass:   214.06299 amu.
 Principal axes and moments of inertia in atomic units:
                           1         2         3
     Eigenvalues --  1428.350057458.113358875.29353
           X            0.18289   0.54783   0.81636
           Y            0.17713   0.79841  -0.57547
           Z            0.96705  -0.24985  -0.04898
 This molecule is an asymmetric top.
 Rotational symmetry number  1.
 Warning -- assumption of classical behavior for rotation
           may cause significant error
 Rotational temperatures (Kelvin)      0.06064     0.01161     0.00976
 Rotational constants (GHZ):           1.26351     0.24198     0.20334
 Zero-point vibrational energy     513800.4 (Joules/Mol)
                                  122.80124 (Kcal/Mol)
 Warning -- explicit consideration of  20 degrees of freedom as
           vibrations may cause significant error
 Vibrational temperatures:     34.58    48.77    94.29   132.47   185.91
          (Kelvin)            262.53   288.53   332.24   335.08   463.70
                              582.22   595.35   606.37   645.46   681.15
                              742.37   745.44   843.29   851.40   889.83
                              905.39  1004.43  1068.67  1077.34  1082.53
                             1161.91  1162.44  1186.60  1235.36  1265.18
                             1277.49  1352.16  1354.68  1373.09  1385.22
                             1443.53  1467.14  1475.68  1504.15  1574.35
                             1586.35  1649.34  1687.51  1715.46  1744.98
                             1783.38  1791.32  1847.65  1907.56  1920.80
                             1953.15  2011.46  2078.96  2131.69  2135.54
                             2142.58  2190.80  2195.24  2203.87  2322.15
                             2358.32  2373.24  4316.99  4359.08  4505.91
                             4530.59  4538.07  4542.57  4570.32  4571.39
                             4587.68  4619.70

 Zero-point correction=                           0.195696 (Hartree/Particle)
 Thermal correction to Energy=                    0.208894
 Thermal correction to Enthalpy=                  0.209838
 Thermal correction to Gibbs Free Energy=         0.153186
 Sum of electronic and zero-point Energies=           -727.118686
 Sum of electronic and thermal Energies=              -727.105488
 Sum of electronic and thermal Enthalpies=            -727.104544
 Sum of electronic and thermal Free Energies=         -727.161196

                     E (Thermal)             CV                S
                      KCal/Mol        Cal/Mol-Kelvin    Cal/Mol-Kelvin
 Total                  131.083             51.009            119.234
 Electronic               0.000              0.000              1.377
 Translational            0.889              2.981             41.987
 Rotational               0.889              2.981             32.914
 Vibrational            129.305             45.047             42.956
 Vibration     1          0.593              1.985              6.270
 Vibration     2          0.594              1.983              5.587
 Vibration     3          0.597              1.971              4.283
 Vibration     4          0.602              1.955              3.616
 Vibration     5          0.612              1.924              2.958
 Vibration     6          0.630              1.864              2.303
 Vibration     7          0.638              1.839              2.128
 Vibration     8          0.653              1.794              1.872
 Vibration     9          0.654              1.791              1.857
 Vibration    10          0.707              1.631              1.298
 Vibration    11          0.770              1.460              0.946
 Vibration    12          0.777              1.440              0.913
 Vibration    13          0.784              1.424              0.887
 Vibration    14          0.808              1.364              0.800
 Vibration    15          0.830              1.309              0.728
 Vibration    16          0.871              1.215              0.619
 Vibration    17          0.873              1.210              0.614
 Vibration    18          0.943              1.061              0.474
 Vibration    19          0.949              1.049              0.464
 Vibration    20          0.978              0.993              0.419

 Optimization completed.
    -- Stationary point found.
 Normal termination of Gaussian 16 at Wed Jan 10 05:51:57 2024.
