 Q-Chem 5.4, Q-Chem, Inc., Pleasanton, CA (2021)
 Q-Chem 5.4.0 for Intel X86 EM64T Linux

User input:
--------------------------------------------------------------
$molecule
0 1
C                 -1.6410730000      2.7982170000      0.0731320000
C                 -2.9008730000      2.2142340000      0.0886570000
C                 -3.0219700000      0.8284630000      0.0691220000
C                 -0.5084040000      1.9866020000      0.0381800000
C                 -0.6247830000      0.5824780000      0.0183140000
C                 -1.9064130000     -0.0181840000      0.0337800000
C                  0.8277690000      2.6554030000      0.0224320000
C                  2.0581660000      1.8136230000     -0.0142810000
C                  1.9537240000      0.4643600000     -0.0309500000
C                  0.6248170000     -0.2275350000     -0.0184580000
O                  0.9095560000      3.8750180000      0.0395720000
O                  0.6050700000     -1.4511530000     -0.0391890000
C                  3.3721400000      2.5512270000     -0.0299380000
C                  3.1364330000     -0.4605680000     -0.0669320000
C                 -2.1451750000     -1.5076400000      0.0146710000
H                 -1.5109100000      3.8726110000      0.0874440000
H                 -3.7896810000      2.8345790000      0.1159310000
H                 -4.0101140000      0.3811900000      0.0815190000
H                  3.1960570000      3.6251050000     -0.0179210000
H                  3.9530990000      2.3045250000     -0.9230440000
H                  3.9818540000      2.2905660000      0.8398900000
H                  4.0805180000      0.0798330000     -0.0516940000
H                  3.1013550000     -1.0878290000     -0.9622900000
H                  3.1062350000     -1.1494020000      0.7815670000
H                 -1.6771990000     -2.0018620000      0.8681740000
H                 -1.7124830000     -1.9736420000     -0.8725850000
H                 -3.2179960000     -1.7104200000      0.0331750000
$end
$rem
MAX_SCF_CYCLES=200
BASIS  =  6-311++G(d,p)
GUI  =  2
JOB_TYPE  =  SP
METHOD  =  B3LYP
SOLVENT_METHOD = COSMO
$end
$solvent
dielectric 37.219
opticaldielectric 1.43
$end

--------------------------------------------------------------

             Standard Nuclear Orientation (Angstroms)
    I     Atom           X                Y                Z
 ----------------------------------------------------------------
    1      C      -1.3777348710    -2.0856137613    -0.0006411225
    2      C      -2.7284507220    -1.7632167899    -0.0009456340
    3      C      -3.1218036955    -0.4287953172    -0.0005775864
    4      C      -0.4282369789    -1.0651564679    -0.0001126913
    5      C      -0.8206030618     0.2881918573     0.0002106813
    6      C      -2.1960208097     0.6226100146     0.0001270675
    7      C       1.0141579176    -1.4555381885     0.0002587891
    8      C       2.0534698759    -0.3861230026     0.0001967870
    9      C       1.6836378048     0.9157663165    -0.0020549314
   10      C       0.2438322550     1.3302815090     0.0003303874
   11      O       1.3360539794    -2.6348712729     0.0004652365
   12      O      -0.0180030416     2.5258978713     0.0024563707
   13      C       3.4877616924    -0.8483310814     0.0019722056
   14      C       2.6597049780     2.0572033964    -0.0032185443
   15      C      -2.7252655378     2.0353206287     0.0007281787
   16      H      -1.0372035322    -3.1129929959    -0.0007921226
   17      H      -3.4768019098    -2.5477686888    -0.0014638362
   18      H      -4.1791226482    -0.1864898605    -0.0008688329
   19      H       3.5281100944    -1.9358378717     0.0100082211
   20      H       4.0222579190    -0.4744690562     0.8797845624
   21      H       4.0197968109    -0.4886296782    -0.8833806063
   22      H       3.6918898884     1.7143781656    -0.0282604382
   23      H       2.5150120669     2.6819964555     0.8828121386
   24      H       2.4800069974     2.7101296523    -0.8615603713
   25      H      -2.3782207806     2.5961375223    -0.8691963244
   26      H      -2.3796786595     2.5946070445     0.8721476271
   27      H      -3.8171468303     2.0211318411    -0.0002443955
 ----------------------------------------------------------------

    9    -653.2420837376      3.04e-06  Convergence criterion met
 Total energy in the final basis set =     -653.2420837376
    5    -653.2537935949      2.44e-06  Convergence criterion met
 Total energy in the final basis set =     -653.2537935949

                    Orbital Energies (a.u.)
 --------------------------------------------------------------

 Alpha MOs
 -- Occupied --
-19.1310 -19.1280 -10.2794 -10.2781 -10.2094 -10.2085 -10.2082 -10.2045
-10.2034 -10.1922 -10.1903 -10.1892 -10.1697 -10.1682 -10.1655  -1.0656
 -1.0625  -0.8870  -0.8481  -0.7930  -0.7835  -0.7466  -0.7077  -0.6936
 -0.6680  -0.6177  -0.6107  -0.5671  -0.5438  -0.5161  -0.4966  -0.4694
 -0.4626  -0.4616  -0.4594  -0.4307  -0.4264  -0.4236  -0.4154  -0.4104
 -0.4067  -0.3934  -0.3920  -0.3907  -0.3807  -0.3665  -0.3654  -0.3624
 -0.2881  -0.2853  -0.2685  -0.2680  -0.2654

          Ground-State Mulliken Net Atomic Charges

     Atom                 Charge (a.u.)
  ----------------------------------------
      1 C                     0.060839
      2 C                    -0.347739
      3 C                    -0.564023
      4 C                     0.474262
      5 C                     1.035762
      6 C                     0.698509
      7 C                    -1.237429
      8 C                     0.179310
      9 C                     0.728109
     10 C                    -1.355466
     11 O                    -0.292094
     12 O                    -0.250525
     13 C                    -0.527166
     14 C                    -0.388472
     15 C                    -0.505756
     16 H                     0.195200
     17 H                     0.237217
     18 H                     0.168489
     19 H                     0.202095
     20 H                     0.191182
     21 H                     0.191258
     22 H                     0.182696
     23 H                     0.199741
     24 H                     0.195728
     25 H                     0.177831
     26 H                     0.177776
     27 H                     0.172668
  ----------------------------------------
  Sum of atomic charges =     0.000000

                    Cartesian Multipole Moments
 -----------------------------------------------------------------
    Charge (ESU x 10^10)
                 0.0000
    Dipole Moment (Debye)
         X      -1.1022      Y       0.6488      Z      -0.0028
       Tot       1.2790
    Quadrupole Moments (Debye-Ang)
        XX     -68.6960     XY       8.8676     YY    -101.6488
        XZ       0.0118     YZ      -0.0061     ZZ     -88.9840

 Total job time:  44.12s(wall), 327.95s(cpu)
        *  Thank you very much for using Q-Chem.  Have a nice day.  *
