 Gaussian 16, Revision A.03,
 Gaussian 16:  ES64L-G16RevA.03 25-Dec-2016

 --------------------------------------
 #P UB3LYP/6-311++G(d,p) nosym opt freq
 --------------------------------------

 --------
 Oxidized
 --------
 Symbolic Z-matrix:
 Charge =  0 Multiplicity = 1

 SCF Done:  E(UB3LYP) =  -653.238332669     A.U. after   15 cycles
 SCF Done:  E(UB3LYP) =  -653.238333632     A.U. after    9 cycles
 SCF Done:  E(UB3LYP) =  -653.228658768     A.U. after   14 cycles
 SCF Done:  E(UB3LYP) =  -653.238565774     A.U. after   14 cycles
 SCF Done:  E(UB3LYP) =  -653.128544652     A.U. after   17 cycles
 SCF Done:  E(UB3LYP) =  -653.238889746     A.U. after   14 cycles
 SCF Done:  E(UB3LYP) =  -653.239697859     A.U. after   13 cycles
 SCF Done:  E(UB3LYP) =  -653.239747151     A.U. after   14 cycles
 SCF Done:  E(UB3LYP) =  -653.241025610     A.U. after   13 cycles
 SCF Done:  E(UB3LYP) =  -653.241466298     A.U. after   13 cycles
 SCF Done:  E(UB3LYP) =  -653.241748818     A.U. after   13 cycles
 SCF Done:  E(UB3LYP) =  -653.241824363     A.U. after   12 cycles
 SCF Done:  E(UB3LYP) =  -653.241835272     A.U. after   12 cycles
 SCF Done:  E(UB3LYP) =  -653.241839658     A.U. after   12 cycles
 SCF Done:  E(UB3LYP) =  -653.241841463     A.U. after   11 cycles
 SCF Done:  E(UB3LYP) =  -653.241842736     A.U. after   10 cycles
 SCF Done:  E(UB3LYP) =  -653.241843646     A.U. after   10 cycles
 SCF Done:  E(UB3LYP) =  -653.241844412     A.U. after   10 cycles
 SCF Done:  E(UB3LYP) =  -653.241844586     A.U. after    9 cycles
 Optimization completed.
    -- Stationary point found.
 Normal termination of Gaussian 16 at Mon Jan 15 17:42:32 2024.

 ----------------------------------------------------------------------
 #P Geom=AllCheck Guess=TCheck SCRF=Check GenChk UB3LYP/6-311++G(d,p) F
 req
 ----------------------------------------------------------------------

 Structure from the checkpoint file:  "255.chk"
 --------
 Oxidized
 --------
 Charge =  0 Multiplicity = 1

                          Input orientation:
 ---------------------------------------------------------------------
 Center     Atomic      Atomic             Coordinates (Angstroms)
 Number     Number       Type             X           Y           Z
 ---------------------------------------------------------------------
      1          6           0       -1.641073    2.798217    0.073132
      2          6           0       -2.900873    2.214234    0.088657
      3          6           0       -3.021970    0.828463    0.069122
      4          6           0       -0.508404    1.986602    0.038180
      5          6           0       -0.624783    0.582478    0.018314
      6          6           0       -1.906413   -0.018184    0.033780
      7          6           0        0.827769    2.655403    0.022432
      8          6           0        2.058166    1.813623   -0.014281
      9          6           0        1.953724    0.464360   -0.030950
     10          6           0        0.624817   -0.227535   -0.018458
     11          8           0        0.909556    3.875018    0.039572
     12          8           0        0.605070   -1.451153   -0.039189
     13          6           0        3.372140    2.551227   -0.029938
     14          6           0        3.136433   -0.460568   -0.066932
     15          6           0       -2.145175   -1.507640    0.014671
     16          1           0       -1.510910    3.872611    0.087444
     17          1           0       -3.789681    2.834579    0.115931
     18          1           0       -4.010114    0.381190    0.081519
     19          1           0        3.196057    3.625105   -0.017921
     20          1           0        3.953099    2.304525   -0.923044
     21          1           0        3.981854    2.290566    0.839890
     22          1           0        4.080518    0.079833   -0.051694
     23          1           0        3.101355   -1.087829   -0.962290
     24          1           0        3.106235   -1.149402    0.781567
     25          1           0       -1.677199   -2.001862    0.868174
     26          1           0       -1.712483   -1.973642   -0.872585
     27          1           0       -3.217996   -1.710420    0.033175
 ---------------------------------------------------------------------

 SCF Done:  E(UB3LYP) =  -653.241844586     A.U. after    1 cycles

 Alpha  occ. eigenvalues --  -19.12549 -19.12450 -10.27534 -10.27474 -10.21156
 Alpha  occ. eigenvalues --  -10.21120 -10.21046 -10.20606 -10.20449 -10.19761
 Alpha  occ. eigenvalues --  -10.19470 -10.19268 -10.17735 -10.17551 -10.17053
 Alpha  occ. eigenvalues --   -1.05980  -1.05781  -0.88894  -0.85105  -0.79575
 Alpha  occ. eigenvalues --   -0.78703  -0.75110  -0.71131  -0.69786  -0.67028
 Alpha  occ. eigenvalues --   -0.62156  -0.61376  -0.56786  -0.54526  -0.51886
 Alpha  occ. eigenvalues --   -0.49683  -0.47446  -0.46435  -0.46093  -0.45143
 Alpha  occ. eigenvalues --   -0.43416  -0.42919  -0.42562  -0.41967  -0.41436
 Alpha  occ. eigenvalues --   -0.41034  -0.39903  -0.39640  -0.39344  -0.38454
 Alpha  occ. eigenvalues --   -0.36942  -0.36710  -0.36565  -0.28791  -0.27960
 Alpha  occ. eigenvalues --   -0.27220  -0.26688  -0.26456
 Alpha virt. eigenvalues --   -0.11757  -0.05057  -0.03030  -0.01223  -0.00554
 Alpha virt. eigenvalues --    0.00691   0.01763   0.01905   0.02228   0.02674
 Alpha virt. eigenvalues --    0.03400   0.03812   0.04220   0.04608   0.05195

  Beta  occ. eigenvalues --  -19.12549 -19.12450 -10.27534 -10.27474 -10.21156
  Beta  occ. eigenvalues --  -10.21120 -10.21046 -10.20606 -10.20449 -10.19761
  Beta  occ. eigenvalues --  -10.19470 -10.19268 -10.17735 -10.17551 -10.17053
  Beta  occ. eigenvalues --   -1.05980  -1.05781  -0.88894  -0.85105  -0.79575
  Beta  occ. eigenvalues --   -0.78703  -0.75110  -0.71131  -0.69786  -0.67028
  Beta  occ. eigenvalues --   -0.62156  -0.61376  -0.56786  -0.54526  -0.51886
  Beta  occ. eigenvalues --   -0.49683  -0.47446  -0.46435  -0.46093  -0.45143
  Beta  occ. eigenvalues --   -0.43416  -0.42919  -0.42562  -0.41967  -0.41436
  Beta  occ. eigenvalues --   -0.41034  -0.39903  -0.39640  -0.39344  -0.38454
  Beta  occ. eigenvalues --   -0.36942  -0.36710  -0.36565  -0.28791  -0.27960
  Beta  occ. eigenvalues --   -0.27220  -0.26688  -0.26456
  Beta virt. eigenvalues --   -0.11757  -0.05057  -0.03030  -0.01223  -0.00554
  Beta virt. eigenvalues --    0.00691   0.01763   0.01905   0.02228   0.02674
  Beta virt. eigenvalues --    0.03400   0.03812   0.04220   0.04608   0.05195

 Mulliken charges and spin densities:
               1          2
     1  C    0.028105  -0.000000
     2  C   -0.258185   0.000000
     3  C   -0.542658  -0.000000
     4  C    0.506596   0.000000
     5  C    0.991200  -0.000000
     6  C    0.692786   0.000000
     7  C   -1.359350   0.000000
     8  C    0.235817   0.000000
     9  C    0.755143  -0.000000
    10  C   -1.427573   0.000000
    11  O   -0.208497   0.000000
    12  O   -0.180968  -0.000000
    13  C   -0.502300  -0.000000
    14  C   -0.333956   0.000000
    15  C   -0.460161   0.000000
    16  H    0.182145  -0.000000
    17  H    0.188759   0.000000
    18  H    0.116997  -0.000000
    19  H    0.217424  -0.000000
    20  H    0.165392   0.000000
    21  H    0.165140   0.000000
    22  H    0.161322   0.000000
    23  H    0.188069   0.000000
    24  H    0.186145   0.000000
    25  H    0.173295  -0.000000
    26  H    0.173451  -0.000000
    27  H    0.145863  -0.000000
 Sum of Mulliken charges =  -0.00000   0.00000

 Dipole moment (field-independent basis, Debye):
    X=             -0.5686    Y=             -0.5918    Z=              0.0037  Tot=              0.8207
 Quadrupole moment (field-independent basis, Debye-Ang):
   XX=            -72.5966   YY=           -101.4497   ZZ=            -89.1236
   XY=             -1.9923   XZ=             -0.3545   YZ=             -0.1578

  Exact polarizability: 198.938   3.571 193.646  -2.140   1.638  86.929
 Approx polarizability: 279.278   3.078 365.966  -2.692   3.557 140.217

                      1                      2                      3
                      A                      A                      A
 Frequencies --     29.8123                41.1378                65.0350
 Red. masses --      1.6671                 2.2307                 1.9846
 Frc consts  --      0.0009                 0.0022                 0.0049
 IR Inten    --      2.6754                 4.5102                 0.5017

                      4                      5                      6
                      A                      A                      A
 Frequencies --     75.9523               107.9879               168.6732
 Red. masses --      1.5871                 2.2376                 5.1206
 Frc consts  --      0.0054                 0.0154                 0.0858
 IR Inten    --      0.0243                 0.0496                 0.5999

                      7                      8                      9
                      A                      A                      A
 Frequencies --    206.4211               229.7476               237.9254
 Red. masses --      1.7143                 1.4824                 3.6853
 Frc consts  --      0.0430                 0.0461                 0.1229
 IR Inten    --      1.4299                 0.0144                 0.6943

                     10                     11                     12
                      A                      A                      A
 Frequencies --    289.2316               328.5426               342.6082
 Red. masses --      3.7158                 2.7268                 3.8602
 Frc consts  --      0.1831                 0.1734                 0.2670
 IR Inten    --      0.3944                 0.0547                 0.8264

                     13                     14                     15
                      A                      A                      A
 Frequencies --    365.7949               394.7027               420.6171
 Red. masses --      4.8995                 7.5587                 4.4523
 Frc consts  --      0.3863                 0.6938                 0.4641
 IR Inten    --      0.0059                 1.7148                 0.0344

                     16                     17                     18
                      A                      A                      A
 Frequencies --    426.4433               439.0188               501.0495
 Red. masses --      7.2476                 4.3438                 4.1960
 Frc consts  --      0.7765                 0.4933                 0.6206
 IR Inten    --     23.4527                 8.1491                 1.6335

                     19                     20                     21
                      A                      A                      A
 Frequencies --    501.3524               520.5215               563.1340
 Red. masses --      5.5714                 3.7401                 5.0839
 Frc consts  --      0.8251                 0.5971                 0.9499
 IR Inten    --      1.1466                 1.2262                 0.8649

                     22                     23                     24
                      A                      A                      A
 Frequencies --    625.4995               698.1528               701.2055
 Red. masses --      5.8407                 4.2793                 3.9656
 Frc consts  --      1.3464                 1.2289                 1.1488
 IR Inten    --      2.5573                 2.2725                 6.5119

                     25                     26                     27
                      A                      A                      A
 Frequencies --    738.0903               790.2689               798.8105
 Red. masses --      3.8157                 3.5428                 3.9586
 Frc consts  --      1.2248                 1.3036                 1.4883
 IR Inten    --     28.9481                 6.1760                 2.0896

                     28                     29                     30
                      A                      A                      A
 Frequencies --    817.5048               850.2589               942.0361
 Red. masses --      1.7368                 4.3873                 2.5583
 Frc consts  --      0.6839                 1.8687                 1.3376
 IR Inten    --     16.4532                23.3588                 3.6539

                     31                     32                     33
                      A                      A                      A
 Frequencies --    945.4439               971.1198              1012.1337
 Red. masses --      1.3377                 4.0576                 1.3365
 Frc consts  --      0.7045                 2.2546                 0.8066
 IR Inten    --      0.5124                 6.9807                 0.3374

                     34                     35                     36
                      A                      A                      A
 Frequencies --   1023.3298              1027.5559              1052.0813
 Red. masses --      1.4663                 1.4722                 2.3931
 Frc consts  --      0.9047                 0.9159                 1.5607
 IR Inten    --     17.8365                 0.4275                43.8793

                     37                     38                     39
                      A                      A                      A
 Frequencies --   1056.9172              1057.6433              1109.8814
 Red. masses --      1.5599                 1.5681                 2.0128
 Frc consts  --      1.0266                 1.0335                 1.4609
 IR Inten    --      1.5329                 0.9915                12.5260

                     40                     41                     42
                      A                      A                      A
 Frequencies --   1121.4547              1179.3701              1192.0102
 Red. masses --      2.2837                 2.5218                 1.2077
 Frc consts  --      1.6922                 2.0666                 1.0111
 IR Inten    --     17.3491                 2.0678                 1.1921

                     43                     44                     45
                      A                      A                      A
 Frequencies --   1232.0044              1265.1352              1290.8427
 Red. masses --      5.5686                 2.0373                 5.5143
 Frc consts  --      4.9799                 1.9212                 5.4137
 IR Inten    --     23.8003                 1.3820               289.5735

                     46                     47                     48
                      A                      A                      A
 Frequencies --   1336.3520              1350.3900              1404.8364
 Red. masses --      4.0636                 6.7785                 1.2844
 Frc consts  --      4.2756                 7.2828                 1.4935
 IR Inten    --     44.6076                32.9429                19.0320

                     49                     50                     51
                      A                      A                      A
 Frequencies --   1414.8730              1420.2988              1456.0203
 Red. masses --      1.2637                 1.2248                 2.2680
 Frc consts  --      1.4905                 1.4557                 2.8329
 IR Inten    --     24.3652                 6.3398                20.4097

                     52                     53                     54
                      A                      A                      A
 Frequencies --   1469.1379              1472.4712              1475.1120
 Red. masses --      1.1089                 1.0440                 1.0442
 Frc consts  --      1.4102                 1.3336                 1.3387
 IR Inten    --      3.4893                11.3692                 9.1298

                     55                     56                     57
                      A                      A                      A
 Frequencies --   1485.7135              1491.2498              1497.1364
 Red. masses --      1.6510                 1.1381                 1.5803
 Frc consts  --      2.1472                 1.4912                 2.0869
 IR Inten    --      3.5186                16.4698                 7.1794

                     58                     59                     60
                      A                      A                      A
 Frequencies --   1505.0966              1606.5584              1624.4299
 Red. masses --      1.0441                 6.0827                 6.1134
 Frc consts  --      1.3936                 9.2500                 9.5046
 IR Inten    --      5.0272                26.4844                42.4503

                     61                     62                     63
                      A                      A                      A
 Frequencies --   1672.9752              1700.6265              1706.9715
 Red. masses --      8.2711                11.4657                12.1574
 Frc consts  --     13.6394                19.5375                20.8710
 IR Inten    --     58.1199                73.2944               327.5425

                     64                     65                     66
                      A                      A                      A
 Frequencies --   3032.6497              3040.6086              3041.2968
 Red. masses --      1.0399                 1.0357                 1.0394
 Frc consts  --      5.6351                 5.6415                 5.6643
 IR Inten    --     14.9428                19.5199                 8.7188

                     67                     68                     69
                      A                      A                      A
 Frequencies --   3080.5798              3084.7571              3101.0397
 Red. masses --      1.0999                 1.0981                 1.0989
 Frc consts  --      6.1500                 6.1565                 6.2265
 IR Inten    --     15.6910                 2.7840                 6.9689

                     70                     71                     72
                      A                      A                      A
 Frequencies --   3108.9018              3140.2977              3144.7887
 Red. masses --      1.1032                 1.0972                 1.0990
 Frc consts  --      6.2822                 6.3749                 6.4034
 IR Inten    --     24.3349                 8.0004                 9.9703

                     73                     74                     75
                      A                      A                      A
 Frequencies --   3163.5432              3181.0079              3206.0182
 Red. masses --      1.0875                 1.0932                 1.0933
 Frc consts  --      6.4123                 6.5174                 6.6212
 IR Inten    --      7.7895                16.1650                 4.1902

 - Thermochemistry -
 -------------------
 Temperature   298.150 Kelvin.  Pressure   1.00000 Atm.
 Atom     1 has atomic number  6 and mass  12.00000

 Molecular mass:   200.08373 amu.
 Principal axes and moments of inertia in atomic units:
                           1         2         3
     Eigenvalues --  1971.489873129.785765068.21213
           X            0.97878  -0.20400   0.01927
           Y            0.20431   0.97878  -0.01553
           Z           -0.01569   0.01913   0.99969
 This molecule is an asymmetric top.
 Rotational symmetry number  1.
 Warning -- assumption of classical behavior for rotation
           may cause significant error
 Rotational temperatures (Kelvin)      0.04393     0.02767     0.01709
 Rotational constants (GHZ):           0.91542     0.57663     0.35609
 Zero-point vibrational energy     563262.9 (Joules/Mol)
                                  134.62306 (Kcal/Mol)
 Warning -- explicit consideration of  21 degrees of freedom as
           vibrations may cause significant error
 Vibrational temperatures:     42.89    59.19    93.57   109.28   155.37
          (Kelvin)            242.68   296.99   330.56   342.32   416.14
                              472.70   492.94   526.30   567.89   605.17
                              613.56   631.65   720.90   721.33   748.91
                              810.22   899.95  1004.49  1008.88  1061.95
                             1137.02  1149.31  1176.21  1223.33  1355.38
                             1360.28  1397.22  1456.23  1472.34  1478.42
                             1513.71  1520.67  1521.71  1596.87  1613.52
                             1696.85  1715.04  1772.58  1820.25  1857.23
                             1922.71  1942.91  2021.25  2035.69  2043.49
                             2094.89  2113.76  2118.56  2122.36  2137.61
                             2145.58  2154.05  2165.50  2311.48  2337.19
                             2407.04  2446.82  2455.95  4363.31  4374.76
                             4375.75  4432.27  4438.28  4461.70  4473.02
                             4518.19  4524.65  4551.63  4576.76  4612.75

 Zero-point correction=                           0.214535 (Hartree/Particle)
 Thermal correction to Energy=                    0.228428
 Thermal correction to Enthalpy=                  0.229372
 Thermal correction to Gibbs Free Energy=         0.172859
 Sum of electronic and zero-point Energies=           -653.027309
 Sum of electronic and thermal Energies=              -653.013417
 Sum of electronic and thermal Enthalpies=            -653.012473
 Sum of electronic and thermal Free Energies=         -653.068985

                     E (Thermal)             CV                S
                      KCal/Mol        Cal/Mol-Kelvin    Cal/Mol-Kelvin
 Total                  143.341             52.165            118.941
 Electronic               0.000              0.000              0.000
 Translational            0.889              2.981             41.785
 Rotational               0.889              2.981             31.814
 Vibrational            141.563             46.204             45.341
 Vibration     1          0.594              1.984              5.842
 Vibration     2          0.594              1.981              5.204
 Vibration     3          0.597              1.971              4.298
 Vibration     4          0.599              1.965              3.993
 Vibration     5          0.606              1.943              3.305
 Vibration     6          0.625              1.881              2.450
 Vibration     7          0.641              1.831              2.075
 Vibration     8          0.652              1.796              1.881
 Vibration     9          0.656              1.783              1.818
 Vibration    10          0.686              1.694              1.478
 Vibration    11          0.712              1.618              1.267
 Vibration    12          0.722              1.590              1.200
 Vibration    13          0.739              1.543              1.097
 Vibration    14          0.762              1.481              0.982
 Vibration    15          0.783              1.425              0.890
 Vibration    16          0.788              1.413              0.870
 Vibration    17          0.799              1.385              0.830
 Vibration    18          0.856              1.248              0.656
 Vibration    19          0.857              1.247              0.655
 Vibration    20          0.876              1.205              0.609
 Vibration    21          0.919              1.111              0.518

                           ! Non-Optimized Parameters !
 Normal termination of Gaussian 16 at Mon Jan 15 18:02:21 2024.
