 Q-Chem 5.4, Q-Chem, Inc., Pleasanton, CA (2021)
 Q-Chem 5.4.0 for Intel X86 EM64T Linux

User input:
--------------------------------------------------------------
$molecule
0 1
C                 -1.8432880000      3.1500440000      0.2574010000
C                 -2.9766550000      2.4344540000     -0.1160300000
C                 -2.8633900000      1.0947690000     -0.4922290000
C                 -0.5953930000      2.5221150000      0.2529290000
C                 -0.4782910000      1.1743230000     -0.1246210000
C                 -1.6195810000      0.4660240000     -0.4963800000
C                  0.6148840000      3.2663980000      0.6453280000
C                  1.9231650000      2.5501130000      0.6183980000
C                  2.0595420000      1.2475420000      0.2683890000
C                  0.8577540000      0.4857760000     -0.1310090000
O                  0.6155730000      4.4418750000      0.9931210000
O                  0.9396670000     -0.6894670000     -0.4598220000
H                 -1.9058590000      4.1900330000      0.5535170000
H                 -3.9466890000      2.9179030000     -0.1144550000
H                 -3.7476250000      0.5389780000     -0.7829820000
H                 -1.5141130000     -0.5724400000     -0.7847630000
C                  3.3939310000      0.5539530000      0.2404850000
O                  2.9678070000      3.3115090000      0.9817140000
C                  4.0595390000      0.6043370000     -1.1485700000
H                  3.2451370000     -0.4893280000      0.5270720000
H                  4.0516660000      1.0192940000      0.9778050000
H                  2.6002810000      4.1900210000      1.1963020000
H                  3.4324690000      0.1179830000     -1.8989010000
H                  5.0217820000      0.0861080000     -1.1255750000
H                  4.2385250000      1.6359320000     -1.4616840000
$end
$rem
MAX_SCF_CYCLES=200
BASIS  =  6-311++G(d,p)
GUI  =  2
JOB_TYPE  =  SP
METHOD  =  B3LYP
SOLVENT_METHOD = COSMO
$end
$solvent
dielectric 37.219
opticaldielectric 1.43
$end

--------------------------------------------------------------

             Standard Nuclear Orientation (Angstroms)
    I     Atom           X                Y                Z
 ----------------------------------------------------------------
    1      C       2.6049500510    -1.0321853011    -0.1637216358
    2      C       3.6292959680    -0.0913902548    -0.2044725833
    3      C       3.3316057346     1.2689387665    -0.1044924561
    4      C       1.2811376930    -0.6086616927    -0.0233458801
    5      C       0.9785182718     0.7591705674     0.0779287486
    6      C       2.0117209233     1.6936368190     0.0366953038
    7      C       0.1845347846    -1.5926331204     0.0210034902
    8      C      -1.2113171888    -1.0870472896     0.1671843271
    9      C      -1.5268783968     0.2267277326     0.2776945580
   10      C      -0.4410838026     1.2282712661     0.2322935912
   11      O       0.3465197161    -2.8053041975    -0.0557842937
   12      O      -0.6849689844     2.4234593530     0.3221228323
   13      H       2.8109090112    -2.0928919408    -0.2389497349
   14      H       4.6577023275    -0.4156192036    -0.3137764068
   15      H       4.1311315355     2.0004036397    -0.1365877981
   16      H       1.7634446699     2.7446981311     0.1162236209
   17      C      -2.9453727167     0.7081976789     0.4137051925
   18      O      -2.1412904575    -2.0554093563     0.1877736495
   19      C      -3.5857087345     1.0577849400    -0.9437943033
   20      H      -2.9473764027     1.5969117215     1.0484416289
   21      H      -3.5371058294    -0.0650725248     0.9083803126
   22      H      -1.6554925833    -2.8984129619     0.1087037371
   23      H      -3.0271854339     1.8511281573    -1.4452041856
   24      H      -4.6115040880     1.4067920277    -0.7990890750
   25      H      -3.6150209210     0.1852358886    -1.6011097206
 ----------------------------------------------------------------

    9    -689.1732945095      7.38e-06  Convergence criterion met
 Total energy in the final basis set =     -689.1732945095
    5    -689.1869465448      2.36e-06  Convergence criterion met
 Total energy in the final basis set =     -689.1869465448

                    Orbital Energies (a.u.)
 --------------------------------------------------------------

 Alpha MOs
 -- Occupied --
-19.1784 -19.1504 -19.1305 -10.2945 -10.2819 -10.2675 -10.2105 -10.2093
-10.2034 -10.2003 -10.1982 -10.1966 -10.1964 -10.1774 -10.1613  -1.1088
 -1.0680  -1.0644  -0.8924  -0.8430  -0.7925  -0.7796  -0.7486  -0.6970
 -0.6611  -0.6465  -0.6085  -0.6022  -0.5736  -0.5427  -0.5187  -0.4971
 -0.4792  -0.4725  -0.4690  -0.4559  -0.4519  -0.4407  -0.4279  -0.4244
 -0.4122  -0.4071  -0.3857  -0.3791  -0.3769  -0.3706  -0.3592  -0.3478
 -0.3044  -0.2902  -0.2806  -0.2800  -0.2578

          Ground-State Mulliken Net Atomic Charges

     Atom                 Charge (a.u.)
  ----------------------------------------
      1 C                    -0.024557
      2 C                    -0.310503
      3 C                    -0.458976
      4 C                     1.065051
      5 C                    -0.107366
      6 C                     0.185862
      7 C                    -0.964700
      8 C                    -0.529308
      9 C                     1.510966
     10 C                    -0.872649
     11 O                    -0.325764
     12 O                    -0.302315
     13 H                     0.198730
     14 H                     0.233242
     15 H                     0.224802
     16 H                     0.205140
     17 C                    -0.066634
     18 O                    -0.238802
     19 C                    -0.634853
     20 H                     0.193898
     21 H                     0.203428
     22 H                     0.325731
     23 H                     0.170161
     24 H                     0.154543
     25 H                     0.164875
  ----------------------------------------
  Sum of atomic charges =     0.000000

                    Cartesian Multipole Moments
 -----------------------------------------------------------------
    Charge (ESU x 10^10)
                 0.0000
    Dipole Moment (Debye)
         X       3.1010      Y      -0.8184      Z      -0.4068
       Tot       3.2328
    Quadrupole Moments (Debye-Ang)
        XX     -71.1276     XY       5.1172     YY     -97.0133
        XZ      -0.7502     YZ      -1.0840     ZZ     -88.7769

 Total job time:  40.27s(wall), 304.83s(cpu)
        *  Thank you very much for using Q-Chem.  Have a nice day.  *
