 Gaussian 16, Revision A.03,
 Gaussian 16:  ES64L-G16RevA.03 25-Dec-2016

 ----------------------------------------------------------------------
 #P UB3LYP/6-311++G(d,p) nosym opt freq SCRF=(PCM,Solvent=n,n-DiMethylF
 ormamide)
 ----------------------------------------------------------------------

 -------
 Radical
 -------
 Symbolic Z-matrix:
 Charge = -1 Multiplicity = 2

 SCF Done:  E(UB3LYP) =  -652.381906183     A.U. after   19 cycles
 SCF Done:  E(UB3LYP) =  -652.381339399     A.U. after   19 cycles
 SCF Done:  E(UB3LYP) =  -652.381602189     A.U. after   17 cycles
 SCF Done:  E(UB3LYP) =  -652.382281220     A.U. after   12 cycles
 SCF Done:  E(UB3LYP) =  -652.382374755     A.U. after   17 cycles
 SCF Done:  E(UB3LYP) =  -652.382772454     A.U. after   16 cycles
 SCF Done:  E(UB3LYP) =  -652.382934297     A.U. after   15 cycles
 SCF Done:  E(UB3LYP) =  -652.383009936     A.U. after   16 cycles
 SCF Done:  E(UB3LYP) =  -652.383050621     A.U. after   15 cycles
 SCF Done:  E(UB3LYP) =  -652.383067288     A.U. after   14 cycles
 SCF Done:  E(UB3LYP) =  -652.383071197     A.U. after   12 cycles
 SCF Done:  E(UB3LYP) =  -652.383072104     A.U. after   12 cycles
 SCF Done:  E(UB3LYP) =  -652.383072526     A.U. after   12 cycles
 SCF Done:  E(UB3LYP) =  -652.383073202     A.U. after   13 cycles
 SCF Done:  E(UB3LYP) =  -652.383073693     A.U. after   13 cycles
 SCF Done:  E(UB3LYP) =  -652.383073808     A.U. after   10 cycles
 SCF Done:  E(UB3LYP) =  -652.383073960     A.U. after   13 cycles
 SCF Done:  E(UB3LYP) =  -652.383074011     A.U. after   12 cycles
 SCF Done:  E(UB3LYP) =  -652.383074013     A.U. after    9 cycles
 Optimization completed.
    -- Stationary point found.
 Normal termination of Gaussian 16 at Sat Feb 10 12:36:04 2024.

 ----------------------------------------------------------------------
 #P Geom=AllCheck Guess=TCheck SCRF=Check GenChk UB3LYP/6-311++G(d,p) F
 req
 ----------------------------------------------------------------------

 Structure from the checkpoint file:  "061-rad.chk"
 -------
 Radical
 -------
 Charge = -1 Multiplicity = 2

                          Input orientation:
 ---------------------------------------------------------------------
 Center     Atomic      Atomic             Coordinates (Angstroms)
 Number     Number       Type             X           Y           Z
 ---------------------------------------------------------------------
      1          6           0       -0.051030   -0.419141    2.245756
      2          6           0       -0.496694   -1.035630    1.015366
      3          6           0       -0.196949   -0.505264   -0.208587
      4          6           0        0.573870    0.708683   -0.362352
      5          6           0        1.004908    1.344538    0.871871
      6          6           0        0.726609    0.789386    2.098149
      7          8           0       -0.322183   -0.908733    3.386570
      8          8           0        0.882837    1.173814   -1.501492
      9          1           0       -1.077307   -1.949564    1.098243
     10          1           0       -0.526944   -0.992306   -1.121507
     11          6           0        1.828125    2.603196    0.814202
     12          6           0        1.209283    3.948370    0.362346
     13          6           0       -0.291619    3.853469    0.044518
     14          6           0        1.419406    4.947821    1.524112
     15          6           0        1.982320    4.436622   -0.882025
     16          8           0        2.989584    2.572964    1.191675
     17          1           0       -0.480150    3.183031   -0.794393
     18          1           0       -0.667895    4.845600   -0.222074
     19          1           0       -0.864024    3.502016    0.907113
     20          1           0        0.886039    4.628703    2.424655
     21          1           0        1.033019    5.929148    1.234764
     22          1           0        2.478031    5.049140    1.768286
     23          1           0        1.852606    3.741642   -1.714052
     24          1           0        3.048816    4.528687   -0.665268
     25          1           0        1.606451    5.418166   -1.185820
     26          1           0        1.078508    1.264262    3.009280
 ---------------------------------------------------------------------

 SCF Done:  E(UB3LYP) =  -652.383074013     A.U. after    1 cycles

 Alpha  occ. eigenvalues --  -19.11951 -19.08199 -19.08157 -10.26512 -10.22792
 Alpha  occ. eigenvalues --  -10.22391 -10.19035 -10.17899 -10.17219 -10.16897
 Alpha  occ. eigenvalues --  -10.16828 -10.15877 -10.15587 -10.15256  -1.05123
 Alpha  occ. eigenvalues --   -1.00232  -0.99830  -0.83232  -0.81540  -0.75978
 Alpha  occ. eigenvalues --   -0.69463  -0.68575  -0.68226  -0.64153  -0.59610
 Alpha  occ. eigenvalues --   -0.57900  -0.50963  -0.48378  -0.47931  -0.46900
 Alpha  occ. eigenvalues --   -0.45682  -0.44029  -0.43393  -0.42333  -0.41439
 Alpha  occ. eigenvalues --   -0.40904  -0.40459  -0.38645  -0.38115  -0.37479
 Alpha  occ. eigenvalues --   -0.37148  -0.36937  -0.36505  -0.36001  -0.33022
 Alpha  occ. eigenvalues --   -0.32713  -0.28613  -0.26924  -0.25853  -0.24734
 Alpha  occ. eigenvalues --   -0.23813  -0.16965
 Alpha virt. eigenvalues --   -0.03949  -0.01232  -0.00137   0.00852   0.01411
 Alpha virt. eigenvalues --    0.01831   0.02555   0.02867   0.02916   0.04066
 Alpha virt. eigenvalues --    0.04501   0.04882   0.05173   0.05619   0.06515

  Beta  occ. eigenvalues --  -19.11936 -19.07498 -19.07416 -10.26519 -10.22659
  Beta  occ. eigenvalues --  -10.22269 -10.19033 -10.17788 -10.17085 -10.16798
  Beta  occ. eigenvalues --  -10.16727 -10.15878 -10.15587 -10.15257  -1.05089
  Beta  occ. eigenvalues --   -0.99010  -0.98523  -0.82681  -0.81442  -0.75703
  Beta  occ. eigenvalues --   -0.68800  -0.68560  -0.67900  -0.63845  -0.59304
  Beta  occ. eigenvalues --   -0.57607  -0.50746  -0.48176  -0.47759  -0.46573
  Beta  occ. eigenvalues --   -0.45533  -0.43965  -0.43247  -0.42271  -0.40811
  Beta  occ. eigenvalues --   -0.40195  -0.39503  -0.38119  -0.37679  -0.36987
  Beta  occ. eigenvalues --   -0.36798  -0.36516  -0.36212  -0.34419  -0.33006
  Beta  occ. eigenvalues --   -0.32662  -0.26525  -0.25400  -0.24955  -0.24062
  Beta  occ. eigenvalues --   -0.23302
  Beta virt. eigenvalues --   -0.09648  -0.03539  -0.00469   0.00318   0.00876
  Beta virt. eigenvalues --    0.01437   0.02046   0.02843   0.02894   0.03786
  Beta virt. eigenvalues --    0.04146   0.04650   0.05161   0.05450   0.05718

 Mulliken charges and spin densities:
               1          2
     1  C   -0.541519   0.125561
     2  C    0.142804   0.073554
     3  C   -0.045648   0.102256
     4  C   -0.962414   0.050759
     5  C    1.426318   0.094626
     6  C   -0.054458   0.043725
     7  O   -0.496444   0.259350
     8  O   -0.439734   0.254897
     9  H    0.194599  -0.006130
    10  H    0.195220  -0.007114
    11  C   -0.729020   0.007373
    12  C    0.745752   0.002689
    13  C   -0.668044   0.002128
    14  C   -0.562379  -0.000414
    15  C   -0.563635   0.005145
    16  O   -0.273448   0.002231
    17  H    0.146052  -0.000486
    18  H    0.156797   0.000013
    19  H    0.135908  -0.000097
    20  H    0.153590  -0.000353
    21  H    0.154889   0.000463
    22  H    0.171250   0.000076
    23  H    0.177269  -0.002328
    24  H    0.155471   0.000314
    25  H    0.154413   0.000387
    26  H    0.226413  -0.008625
 Sum of Mulliken charges =  -1.00000   1.00000

 Dipole moment (field-independent basis, Debye):
    X=             -5.1140    Y=             -0.9117    Z=             -5.9397  Tot=              7.8908
 Quadrupole moment (field-independent basis, Debye-Ang):
   XX=           -105.0257   YY=            -88.7894   ZZ=           -124.1845
   XY=            -10.7102   XZ=              1.3350   YZ=             10.8976

  Exact polarizability: 171.157  42.449 218.335 -14.864 -38.986 265.848
 Approx polarizability: 188.978  40.106 221.117 -18.144 -46.236 306.023

                      1                      2                      3
                      A                      A                      A
 Frequencies --     22.9129                39.0012                86.3240
 Red. masses --      3.9813                 4.2474                 4.2589
 Frc consts  --      0.0012                 0.0038                 0.0187
 IR Inten    --      2.7739                 1.5919                 5.2366

                      4                      5                      6
                      A                      A                      A
 Frequencies --    127.1665               142.7668               210.5204
 Red. masses --     10.1095                 8.5617                 1.2753
 Frc consts  --      0.0963                 0.1028                 0.0333
 IR Inten    --     15.9109                11.0377                 1.5169

                      7                      8                      9
                      A                      A                      A
 Frequencies --    225.3111               243.0631               255.2220
 Red. masses --      4.1927                 1.6323                 2.1708
 Frc consts  --      0.1254                 0.0568                 0.0833
 IR Inten    --      1.5443                 3.2397                 6.7313

                     10                     11                     12
                      A                      A                      A
 Frequencies --    270.8333               289.9446               310.5891
 Red. masses --      1.2679                 1.2106                 6.3066
 Frc consts  --      0.0548                 0.0600                 0.3584
 IR Inten    --      1.4323                 1.2494                 0.9089

                     13                     14                     15
                      A                      A                      A
 Frequencies --    348.3252               359.4580               375.6139
 Red. masses --      4.4935                 2.6112                 2.2843
 Frc consts  --      0.3212                 0.1988                 0.1899
 IR Inten    --      0.6727                 4.5514                 0.9199

                     16                     17                     18
                      A                      A                      A
 Frequencies --    409.3154               421.7878               480.9615
 Red. masses --      4.3356                 4.4250                 8.1429
 Frc consts  --      0.4280                 0.4638                 1.1098
 IR Inten    --     12.8741                 9.0683                 0.1361

                     19                     20                     21
                      A                      A                      A
 Frequencies --    488.3446               529.9799               590.5554
 Red. masses --      4.0647                 3.5362                 3.5583
 Frc consts  --      0.5711                 0.5852                 0.7312
 IR Inten    --      0.7293                18.3403                 5.2673

                     22                     23                     24
                      A                      A                      A
 Frequencies --    636.5908               667.1190               742.1960
 Red. masses --      4.2510                 6.2203                 5.8424
 Frc consts  --      1.0150                 1.6310                 1.8962
 IR Inten    --      6.0186                 1.7739                15.3587

                     25                     26                     27
                      A                      A                      A
 Frequencies --    761.0104               799.2997               829.3747
 Red. masses --      3.2579                 2.8380                 2.3943
 Frc consts  --      1.1116                 1.0683                 0.9703
 IR Inten    --     11.9158                18.3335                46.3854

                     28                     29                     30
                      A                      A                      A
 Frequencies --    835.6271               868.7690               894.2926
 Red. masses --      4.9758                 3.5364                 1.7632
 Frc consts  --      2.0471                 1.5726                 0.8308
 IR Inten    --     69.7747                87.0557                38.2726

                     31                     32                     33
                      A                      A                      A
 Frequencies --    933.4648               942.7998               963.8183
 Red. masses --      1.8135                 1.6405                 1.1992
 Frc consts  --      0.9310                 0.8591                 0.6563
 IR Inten    --      5.0446                 2.5433                 0.0640

                     34                     35                     36
                      A                      A                      A
 Frequencies --    967.1131               983.4935              1036.1578
 Red. masses --      1.2913                 2.6866                 1.4514
 Frc consts  --      0.7116                 1.5311                 0.9181
 IR Inten    --      1.8501               135.3604                 0.8875

                     37                     38                     39
                      A                      A                      A
 Frequencies --   1046.9647              1098.8600              1159.2720
 Red. masses --      1.4426                 2.0555                 2.0217
 Frc consts  --      0.9316                 1.4624                 1.6008
 IR Inten    --      6.4136                10.0184               110.0062

                     40                     41                     42
                      A                      A                      A
 Frequencies --   1212.1689              1218.7461              1244.4677
 Red. masses --      2.5208                 2.5688                 3.0578
 Frc consts  --      2.1823                 2.2481                 2.7902
 IR Inten    --      2.3804                 1.0872                21.1141

                     43                     44                     45
                      A                      A                      A
 Frequencies --   1255.4440              1266.3710              1348.7675
 Red. masses --      1.7777                 2.7173                 2.2088
 Frc consts  --      1.6509                 2.5675                 2.3674
 IR Inten    --     13.5987                17.5345                39.7365

                     46                     47                     48
                      A                      A                      A
 Frequencies --   1379.2633              1388.1972              1414.7834
 Red. masses --      1.2067                 1.2171                 1.2336
 Frc consts  --      1.3525                 1.3819                 1.4548
 IR Inten    --     17.2614                17.3250                22.4357

                     49                     50                     51
                      A                      A                      A
 Frequencies --   1430.8457              1469.9884              1471.2276
 Red. masses --      5.3824                 5.0275                 1.1230
 Frc consts  --      6.4925                 6.4007                 1.4322
 IR Inten    --    193.2746                22.8254                 1.5711

                     52                     53                     54
                      A                      A                      A
 Frequencies --   1482.9353              1485.1464              1489.1776
 Red. masses --      1.0469                 1.0468                 1.1483
 Frc consts  --      1.3564                 1.3604                 1.5004
 IR Inten    --      2.2618                 0.9522                85.3269

                     55                     56                     57
                      A                      A                      A
 Frequencies --   1497.5407              1502.3917              1508.5632
 Red. masses --      1.1293                 4.7988                 3.5150
 Frc consts  --      1.4922                 6.3819                 4.7131
 IR Inten    --    173.2859               122.6196               941.0926

                     58                     59                     60
                      A                      A                      A
 Frequencies --   1514.2617              1638.0691              1701.2086
 Red. masses --      1.0643                 6.8209                12.4641
 Frc consts  --      1.4379                10.7834                21.2534
 IR Inten    --     29.9844                 1.1453               380.5584

                     61                     62                     63
                      A                      A                      A
 Frequencies --   3021.7893              3024.2805              3030.2445
 Red. masses --      1.0352                 1.0357                 1.0371
 Frc consts  --      5.5692                 5.5815                 5.6109
 IR Inten    --     36.6436                47.6162                57.5558

                     64                     65                     66
                      A                      A                      A
 Frequencies --   3081.3697              3084.9648              3092.0111
 Red. masses --      1.1020                 1.1012                 1.1003
 Frc consts  --      6.1645                 6.1746                 6.1982
 IR Inten    --      0.7396               102.8442                42.6182

                     67                     68                     69
                      A                      A                      A
 Frequencies --   3108.3998              3110.3806              3117.5371
 Red. masses --      1.1018                 1.1022                 1.1003
 Frc consts  --      6.2723                 6.2828                 6.3008
 IR Inten    --     16.8755                43.0476                24.9863

                     70                     71                     72
                      A                      A                      A
 Frequencies --   3147.1715              3155.4611              3166.1018
 Red. masses --      1.0860                 1.0900                 1.0953
 Frc consts  --      6.3376                 6.3942                 6.4690
 IR Inten    --     30.0554                23.9194                28.5218

 - Thermochemistry -
 -------------------
 Temperature   298.150 Kelvin.  Pressure   1.00000 Atm.
 Atom     1 has atomic number  6 and mass  12.00000

 Molecular mass:   192.07864 amu.
 Principal axes and moments of inertia in atomic units:
                           1         2         3
     Eigenvalues --  1483.002053770.527884393.95435
           X            0.32569   0.15451   0.93277
           Y            0.90169   0.24598  -0.35559
           Z           -0.28438   0.95688  -0.05921
 This molecule is an asymmetric top.
 Rotational symmetry number  1.
 Warning -- assumption of classical behavior for rotation
           may cause significant error
 Rotational temperatures (Kelvin)      0.05840     0.02297     0.01971
 Rotational constants (GHZ):           1.21695     0.47864     0.41073
 Zero-point vibrational energy     535050.7 (Joules/Mol)
                                  127.88019 (Kcal/Mol)
 Warning -- explicit consideration of  21 degrees of freedom as
           vibrations may cause significant error
 Vibrational temperatures:     32.97    56.11   124.20   182.96   205.41
          (Kelvin)            302.89   324.17   349.71   367.21   389.67
                              417.17   446.87   501.16   517.18   540.42
                              588.91   606.86   692.00   702.62   762.52
                              849.68   915.91   959.84  1067.85  1094.92
                             1150.01  1193.29  1202.28  1249.96  1286.69
                             1343.05  1356.48  1386.72  1391.46  1415.03
                             1490.80  1506.35  1581.01  1667.93  1744.04
                             1753.50  1790.51  1806.30  1822.03  1940.58
                             1984.45  1997.31  2035.56  2058.67  2114.99
                             2116.77  2133.61  2136.79  2142.59  2154.63
                             2161.61  2170.49  2178.68  2356.82  2447.66
                             4347.68  4351.27  4359.85  4433.40  4438.58
                             4448.71  4472.29  4475.14  4485.44  4528.08
                             4540.00  4555.31

 Zero-point correction=                           0.203790 (Hartree/Particle)
 Thermal correction to Energy=                    0.217565
 Thermal correction to Enthalpy=                  0.218509
 Thermal correction to Gibbs Free Energy=         0.162164
 Sum of electronic and zero-point Energies=           -652.179284
 Sum of electronic and thermal Energies=              -652.165509
 Sum of electronic and thermal Enthalpies=            -652.164565
 Sum of electronic and thermal Free Energies=         -652.220910

                     E (Thermal)             CV                S
                      KCal/Mol        Cal/Mol-Kelvin    Cal/Mol-Kelvin
 Total                  136.524             52.043            118.588
 Electronic               0.000              0.000              1.377
 Translational            0.889              2.981             41.664
 Rotational               0.889              2.981             31.575
 Vibrational            134.747             46.081             43.972
 Vibration     1          0.593              1.985              6.364
 Vibration     2          0.594              1.981              5.309
 Vibration     3          0.601              1.959              3.742
 Vibration     4          0.611              1.926              2.988
 Vibration     5          0.616              1.910              2.766
 Vibration     6          0.643              1.825              2.039
 Vibration     7          0.650              1.802              1.916
 Vibration     8          0.659              1.774              1.780
 Vibration     9          0.666              1.754              1.694
 Vibration    10          0.675              1.727              1.591
 Vibration    11          0.686              1.692              1.474
 Vibration    12          0.699              1.654              1.359
 Vibration    13          0.726              1.579              1.174
 Vibration    14          0.734              1.556              1.124
 Vibration    15          0.746              1.522              1.057
 Vibration    16          0.774              1.450              0.929
 Vibration    17          0.784              1.423              0.886
 Vibration    18          0.837              1.292              0.707
 Vibration    19          0.844              1.276              0.688
 Vibration    20          0.885              1.184              0.587
 Vibration    21          0.948              1.052              0.466

 Optimization completed.
    -- Stationary point found.
 Normal termination of Gaussian 16 at Sat Feb 10 13:21:59 2024.
