 Q-Chem 5.4, Q-Chem, Inc., Pleasanton, CA (2021)
 Q-Chem 5.4.0 for Intel X86 EM64T Linux

User input:
--------------------------------------------------------------
$molecule
-1 2
C                 -2.0235500000      3.0394340000     -0.2451900000
C                 -2.9662510000      2.4982000000      0.6090560000
C                 -2.6691320000      1.3288680000      1.3380850000
C                 -0.7571280000      2.4352840000     -0.4012720000
C                 -0.4548690000      1.2537430000      0.3349120000
C                 -1.4307870000      0.7236620000      1.1967830000
C                  0.2291170000      3.0023260000     -1.2962960000
C                  1.4956950000      2.3131910000     -1.3884050000
C                  1.8186810000      1.1653760000     -0.6959120000
C                  0.8554400000      0.5800540000      0.2116760000
O                  0.0640150000      4.0520820000     -2.0008160000
O                  1.1124030000     -0.4612620000      0.8708460000
H                 -2.2286620000      3.9377800000     -0.8165320000
H                 -3.9366460000      2.9737520000      0.7193040000
H                 -3.4101900000      0.9043390000      2.0088750000
H                 -1.1748810000     -0.1756870000      1.7455380000
O                  2.3749430000      2.9056570000     -2.2480880000
H                  1.8523870000      3.6710470000     -2.5755970000
C                  3.1656890000      0.5050570000     -0.8451710000
C                  4.1618690000      0.9280380000      0.2536580000
C                  5.5095560000      0.1831400000      0.2296130000
C                  6.3347810000      0.5141940000      1.4819440000
C                  6.3236710000      0.4750260000     -1.0397140000
H                  3.5729360000      0.7409020000     -1.8316140000
H                  3.0231430000     -0.5788610000     -0.7791150000
H                  3.6822160000      0.7536930000      1.2219300000
H                  4.3454940000      2.0080430000      0.1783330000
H                  5.2902300000     -0.8936990000      0.2498620000
H                  7.2813490000     -0.0382030000      1.4978630000
H                  5.7836190000      0.2669120000      2.3942150000
H                  6.5734460000      1.5837240000      1.5181560000
H                  7.2762920000     -0.0668880000     -1.0321870000
H                  6.5479600000      1.5453730000     -1.1166560000
H                  5.7830450000      0.1866430000     -1.9440720000
$end

$rem
BASIS  =  6-311++G(d,p)
GUI  =  2
JOB_TYPE  =  SP
METHOD  =  B3LYP
SCF_CONVERGENCE  = 8
SOLVENT_METHOD = sm12
$end

$smx
solvent dimethylformamide
charges CM5
$end

--------------------------------------------------------------

             Standard Nuclear Orientation (Angstroms)
    I     Atom           X                Y                Z
 ----------------------------------------------------------------
    1      C      -2.0235500000     3.0394340000    -0.2451900000
    2      C      -2.9662510000     2.4982000000     0.6090560000
    3      C      -2.6691320000     1.3288680000     1.3380850000
    4      C      -0.7571280000     2.4352840000    -0.4012720000
    5      C      -0.4548690000     1.2537430000     0.3349120000
    6      C      -1.4307870000     0.7236620000     1.1967830000
    7      C       0.2291170000     3.0023260000    -1.2962960000
    8      C       1.4956950000     2.3131910000    -1.3884050000
    9      C       1.8186810000     1.1653760000    -0.6959120000
   10      C       0.8554400000     0.5800540000     0.2116760000
   11      O       0.0640150000     4.0520820000    -2.0008160000
   12      O       1.1124030000    -0.4612620000     0.8708460000
   13      H      -2.2286620000     3.9377800000    -0.8165320000
   14      H      -3.9366460000     2.9737520000     0.7193040000
   15      H      -3.4101900000     0.9043390000     2.0088750000
   16      H      -1.1748810000    -0.1756870000     1.7455380000
   17      O       2.3749430000     2.9056570000    -2.2480880000
   18      H       1.8523870000     3.6710470000    -2.5755970000
   19      C       3.1656890000     0.5050570000    -0.8451710000
   20      C       4.1618690000     0.9280380000     0.2536580000
   21      C       5.5095560000     0.1831400000     0.2296130000
   22      C       6.3347810000     0.5141940000     1.4819440000
   23      C       6.3236710000     0.4750260000    -1.0397140000
   24      H       3.5729360000     0.7409020000    -1.8316140000
   25      H       3.0231430000    -0.5788610000    -0.7791150000
   26      H       3.6822160000     0.7536930000     1.2219300000
   27      H       4.3454940000     2.0080430000     0.1783330000
   28      H       5.2902300000    -0.8936990000     0.2498620000
   29      H       7.2813490000    -0.0382030000     1.4978630000
   30      H       5.7836190000     0.2669120000     2.3942150000
   31      H       6.5734460000     1.5837240000     1.5181560000
   32      H       7.2762920000    -0.0668880000    -1.0321870000
   33      H       6.5479600000     1.5453730000    -1.1166560000
   34      H       5.7830450000     0.1866430000    -1.9440720000
 ----------------------------------------------------------------

   18    -807.2172409468      7.63e-09  Convergence criterion met
 Total energy in the final basis set =     -807.3020294531

                    Orbital Energies (a.u.)
 --------------------------------------------------------------

 Alpha MOs
 -- Occupied --
-19.1446 -19.0864 -19.0736 -10.2244 -10.2242 -10.2220 -10.1820 -10.1807
-10.1807 -10.1792 -10.1785 -10.1778 -10.1749 -10.1659 -10.1656 -10.1635
-10.1590 -10.1587  -1.0643  -0.9987  -0.9958  -0.8643  -0.8220  -0.8037
 -0.7638  -0.7576  -0.7192  -0.6854  -0.6755  -0.6422  -0.6206  -0.5936
 -0.5744  -0.5607  -0.5418  -0.5084  -0.4883  -0.4718  -0.4619  -0.4594
 -0.4455  -0.4353  -0.4323  -0.4250  -0.4198  -0.4121  -0.3950  -0.3908
 -0.3885  -0.3859  -0.3812  -0.3738  -0.3601  -0.3539  -0.3477  -0.3445
 -0.3424  -0.3275  -0.3237  -0.3206  -0.2711  -0.2641  -0.2590  -0.2385
 -0.2314  -0.1525

 Beta MOs
 -- Occupied --
-19.1442 -19.0797 -19.0680 -10.2234 -10.2233 -10.2194 -10.1820 -10.1804
-10.1798 -10.1787 -10.1783 -10.1771 -10.1749 -10.1658 -10.1649 -10.1634
-10.1590 -10.1587  -1.0622  -0.9891  -0.9845  -0.8620  -0.8206  -0.8011
 -0.7618  -0.7556  -0.7177  -0.6854  -0.6676  -0.6406  -0.6188  -0.5914
 -0.5719  -0.5606  -0.5402  -0.5062  -0.4860  -0.4703  -0.4610  -0.4587
 -0.4434  -0.4341  -0.4277  -0.4198  -0.4167  -0.4074  -0.3922  -0.3883
 -0.3853  -0.3811  -0.3792  -0.3668  -0.3575  -0.3478  -0.3459  -0.3401
 -0.3289  -0.3259  -0.3228  -0.3199  -0.2570  -0.2531  -0.2508  -0.2332
 -0.2213

          Ground-State Mulliken Net Atomic Charges

     Atom                 Charge (a.u.)    Spin (a.u.)
  --------------------------------------------------------
      1 C                     0.215566       0.075277
      2 C                     0.866508       0.001710
      3 C                     0.868314       0.076068
      4 C                    -0.775906       0.002664
      5 C                    -1.106074       0.075227
      6 C                    -0.185530      -0.000684
      7 C                    -1.556366       0.140310
      8 C                    -0.622201       0.058620
      9 C                     1.571524       0.048066
     10 C                    -2.222144       0.050131
     11 O                    -0.370858       0.248753
     12 O                    -0.290230       0.209769
     13 H                     0.169900      -0.004005
     14 H                     0.358855      -0.000685
     15 H                     0.340733      -0.005300
     16 H                     0.140900      -0.000242
     17 O                    -0.134482       0.015930
     18 H                     0.294323      -0.004047
     19 C                     0.230285       0.005583
     20 C                    -0.814095       0.003655
     21 C                     0.784612       0.001778
     22 C                    -0.029822      -0.001163
     23 C                    -0.301962      -0.000274
     24 H                     0.172632      -0.001366
     25 H                     0.121218       0.002833
     26 H                     0.008861      -0.002259
     27 H                     0.068149       0.002780
     28 H                     0.114150       0.000669
     29 H                     0.267069      -0.000056
     30 H                     0.138170       0.000039
     31 H                     0.145170      -0.000008
     32 H                     0.258911       0.000327
     33 H                     0.112295      -0.000047
     34 H                     0.161521      -0.000053
  --------------------------------------------------------
  Sum of atomic charges =    -1.000000

                    Cartesian Multipole Moments
 -----------------------------------------------------------------
    Charge (ESU x 10^10)
                -4.8032
    Dipole Moment (Debye)
         X      -3.5262      Y      -8.1791      Z       2.4679
       Tot       9.2424
    Quadrupole Moments (Debye-Ang)
        XX    -125.9394     XY      -1.8421     YY    -146.8180
        XZ       0.3000     YZ      15.5762     ZZ    -124.8533

 Total job time:  1258.20s(wall), 9349.13s(cpu)
        *  Thank you very much for using Q-Chem.  Have a nice day.  *
