 Gaussian 16, Revision A.03,
 Gaussian 16:  ES64L-G16RevA.03 25-Dec-2016

 --------------------------------------
 #P UB3LYP/6-311++G(d,p) nosym opt freq
 --------------------------------------

 -------
 Radical
 -------
 Symbolic Z-matrix:
 Charge = -1 Multiplicity = 2

 SCF Done:  E(UB3LYP) =  -807.220301482     A.U. after   24 cycles
 SCF Done:  E(UB3LYP) =  -807.220303091     A.U. after   14 cycles
 SCF Done:  E(UB3LYP) =  -807.220303614     A.U. after   12 cycles
 SCF Done:  E(UB3LYP) =  -807.220303925     A.U. after   12 cycles
 SCF Done:  E(UB3LYP) =  -807.220304113     A.U. after   10 cycles
 SCF Done:  E(UB3LYP) =  -807.220304214     A.U. after   10 cycles
 Optimization completed.
    -- Stationary point found.
 Normal termination of Gaussian 16 at Mon Jan  8 02:02:01 2024.

 ----------------------------------------------------------------------
 #P Geom=AllCheck Guess=TCheck SCRF=Check GenChk UB3LYP/6-311++G(d,p) F
 req
 ----------------------------------------------------------------------

 Structure from the checkpoint file:  "289-rad.chk"
 -------
 Radical
 -------
 Charge = -1 Multiplicity = 2

                          Input orientation:
 ---------------------------------------------------------------------
 Center     Atomic      Atomic             Coordinates (Angstroms)
 Number     Number       Type             X           Y           Z
 ---------------------------------------------------------------------
      1          6           0       -2.023550    3.039434   -0.245190
      2          6           0       -2.966251    2.498200    0.609056
      3          6           0       -2.669132    1.328868    1.338085
      4          6           0       -0.757128    2.435284   -0.401272
      5          6           0       -0.454869    1.253743    0.334912
      6          6           0       -1.430787    0.723662    1.196783
      7          6           0        0.229117    3.002326   -1.296296
      8          6           0        1.495695    2.313191   -1.388405
      9          6           0        1.818681    1.165376   -0.695912
     10          6           0        0.855440    0.580054    0.211676
     11          8           0        0.064015    4.052082   -2.000816
     12          8           0        1.112403   -0.461262    0.870846
     13          1           0       -2.228662    3.937780   -0.816532
     14          1           0       -3.936646    2.973752    0.719304
     15          1           0       -3.410190    0.904339    2.008875
     16          1           0       -1.174881   -0.175687    1.745538
     17          8           0        2.374943    2.905657   -2.248088
     18          1           0        1.852387    3.671047   -2.575597
     19          6           0        3.165689    0.505057   -0.845171
     20          6           0        4.161869    0.928038    0.253658
     21          6           0        5.509556    0.183140    0.229613
     22          6           0        6.334781    0.514194    1.481944
     23          6           0        6.323671    0.475026   -1.039714
     24          1           0        3.572936    0.740902   -1.831614
     25          1           0        3.023143   -0.578861   -0.779115
     26          1           0        3.682216    0.753693    1.221930
     27          1           0        4.345494    2.008043    0.178333
     28          1           0        5.290230   -0.893699    0.249862
     29          1           0        7.281349   -0.038203    1.497863
     30          1           0        5.783619    0.266912    2.394215
     31          1           0        6.573446    1.583724    1.518156
     32          1           0        7.276292   -0.066888   -1.032187
     33          1           0        6.547960    1.545373   -1.116656
     34          1           0        5.783045    0.186643   -1.944072
 ---------------------------------------------------------------------

 SCF Done:  E(UB3LYP) =  -807.220304214     A.U. after    2 cycles

 Alpha  occ. eigenvalues --  -19.01740 -18.95524 -18.94229 -10.09513 -10.09380
 Alpha  occ. eigenvalues --  -10.09132 -10.07682 -10.06994 -10.06697 -10.05754
 Alpha  occ. eigenvalues --  -10.05579 -10.05150 -10.05065 -10.05037 -10.04966
 Alpha  occ. eigenvalues --  -10.04808 -10.04413 -10.03721  -0.93665  -0.86746
 Alpha  occ. eigenvalues --   -0.86493  -0.73648  -0.71418  -0.68320  -0.64290
 Alpha  occ. eigenvalues --   -0.62966  -0.59998  -0.59452  -0.55075  -0.52292
 Alpha  occ. eigenvalues --   -0.49464  -0.47241  -0.45642  -0.44592  -0.41439
 Alpha  occ. eigenvalues --   -0.38252  -0.36953  -0.35993  -0.34804  -0.34097
 Alpha  occ. eigenvalues --   -0.33284  -0.32085  -0.30689  -0.30564  -0.30429
 Alpha  occ. eigenvalues --   -0.29700  -0.28642  -0.27238  -0.26997  -0.26453
 Alpha  occ. eigenvalues --   -0.26021  -0.25689  -0.24675  -0.23808  -0.23094
 Alpha  occ. eigenvalues --   -0.22189  -0.22044  -0.21778  -0.21018  -0.20701
 Alpha  occ. eigenvalues --   -0.14184  -0.13523  -0.12873  -0.10766  -0.10322
 Alpha  occ. eigenvalues --   -0.02195
 Alpha virt. eigenvalues --    0.06771   0.08307   0.08768   0.08927   0.09439
 Alpha virt. eigenvalues --    0.10196   0.10347   0.11230   0.11511   0.11941
 Alpha virt. eigenvalues --    0.12117   0.12506   0.12992   0.13583   0.14508

  Beta  occ. eigenvalues --  -19.01699 -18.94853 -18.93669 -10.09419 -10.09282
  Beta  occ. eigenvalues --  -10.08868 -10.07681 -10.06994 -10.06697 -10.05750
  Beta  occ. eigenvalues --  -10.05479 -10.05110 -10.05057 -10.05009 -10.05002
  Beta  occ. eigenvalues --  -10.04677 -10.04421 -10.03639  -0.93469  -0.85785
  Beta  occ. eigenvalues --   -0.85363  -0.73420  -0.71397  -0.67981  -0.64070
  Beta  occ. eigenvalues --   -0.62772  -0.59869  -0.59445  -0.54370  -0.52034
  Beta  occ. eigenvalues --   -0.49297  -0.47020  -0.45588  -0.44352  -0.41284
  Beta  occ. eigenvalues --   -0.38043  -0.36916  -0.35777  -0.34728  -0.33977
  Beta  occ. eigenvalues --   -0.33194  -0.32005  -0.30597  -0.30494  -0.29695
  Beta  occ. eigenvalues --   -0.29339  -0.28199  -0.27026  -0.26653  -0.26278
  Beta  occ. eigenvalues --   -0.25555  -0.25172  -0.24297  -0.23537  -0.22674
  Beta  occ. eigenvalues --   -0.21973  -0.21437  -0.20951  -0.20523  -0.19932
  Beta  occ. eigenvalues --   -0.12849  -0.12274  -0.12100  -0.10223  -0.09284
  Beta virt. eigenvalues --    0.04362   0.06774   0.08299   0.08769   0.09435
  Beta virt. eigenvalues --    0.09565   0.10192   0.10356   0.11520   0.11922
  Beta virt. eigenvalues --    0.12081   0.12389   0.12527   0.12994   0.13582

 Mulliken charges and spin densities:
               1          2
     1  C    0.114504   0.068119
     2  C   -0.331860   0.001777
     3  C   -0.364277   0.080677
     4  C    0.338621   0.008400
     5  C    0.115112   0.082043
     6  C    0.114203  -0.008723
     7  C   -1.138687   0.143412
     8  C   -0.713616   0.058157
     9  C    2.324401   0.052406
    10  C   -1.067714   0.047157
    11  O   -0.448219   0.246565
    12  O   -0.358321   0.209124
    13  H    0.157207  -0.003770
    14  H    0.122958  -0.000782
    15  H    0.120583  -0.005955
    16  H    0.157878   0.000165
    17  O   -0.248502   0.014881
    18  H    0.264587  -0.004351
    19  C   -0.301413   0.005032
    20  C   -0.668409   0.001443
    21  C    0.446058   0.003159
    22  C   -0.621524  -0.001802
    23  C   -0.638675  -0.000500
    24  H    0.201617  -0.001416
    25  H    0.201707   0.002812
    26  H    0.170894  -0.002423
    27  H    0.144168   0.002855
    28  H    0.130130   0.000966
    29  H    0.122807   0.000051
    30  H    0.133875  -0.000030
    31  H    0.127646   0.000066
    32  H    0.118893   0.000515
    33  H    0.132977   0.000008
    34  H    0.140392  -0.000040
 Sum of Mulliken charges =  -1.00000   1.00000

 Dipole moment (field-independent basis, Debye):
    X=             -3.7136    Y=             -8.1966    Z=              2.1574  Tot=              9.2536
 Quadrupole moment (field-independent basis, Debye-Ang):
   XX=           -136.2682   YY=           -146.8872   ZZ=           -125.4764
   XY=             -0.5569   XZ=              1.0240   YZ=             15.2501

  Exact polarizability: 279.265 -31.383 194.850 -31.646 -43.281 177.714
 Approx polarizability: 367.259 -38.443 349.302 -51.413 -97.407 291.808

                      1                      2                      3
                      A                      A                      A
 Frequencies --     24.1069                34.8212                42.5667
 Red. masses --      3.5864                 3.2348                 4.8206
 Frc consts  --      0.0012                 0.0023                 0.0051
 IR Inten    --      0.4582                 0.4702                 1.5711

                      4                      5                      6
                      A                      A                      A
 Frequencies --     95.1329               108.6672               126.7000
 Red. masses --      7.1455                 2.2132                 4.2239
 Frc consts  --      0.0381                 0.0154                 0.0399
 IR Inten    --      4.1212                 0.5766                 0.6642

                      7                      8                      9
                      A                      A                      A
 Frequencies --    160.5875               182.5107               196.2773
 Red. masses --      6.5383                 4.1771                 4.5389
 Frc consts  --      0.0993                 0.0820                 0.1030
 IR Inten    --      0.4952                 0.6777                 0.7307

                     10                     11                     12
                      A                      A                      A
 Frequencies --    222.3983               247.4277               252.0005
 Red. masses --      1.0619                 1.2231                 3.0010
 Frc consts  --      0.0309                 0.0441                 0.1123
 IR Inten    --      0.1503                 0.4326                 2.4781

                     13                     14                     15
                      A                      A                      A
 Frequencies --    289.0874               310.9139               347.3854
 Red. masses --      2.9981                 3.9985                 4.9376
 Frc consts  --      0.1476                 0.2277                 0.3511
 IR Inten    --      1.9610                 0.0960                 9.4214

                     16                     17                     18
                      A                      A                      A
 Frequencies --    376.5388               381.6044               395.0772
 Red. masses --      7.5904                 3.5312                 2.6839
 Frc consts  --      0.6341                 0.3030                 0.2468
 IR Inten    --     11.3116                 1.0885                 2.8792

                     19                     20                     21
                      A                      A                      A
 Frequencies --    417.8619               430.7502               444.1188
 Red. masses --      3.2721                 8.4186                 3.3106
 Frc consts  --      0.3366                 0.9203                 0.3847
 IR Inten    --      0.6164                 1.1724                 1.3239

                     22                     23                     24
                      A                      A                      A
 Frequencies --    463.6618               483.3136               531.6701
 Red. masses --      3.2543                 5.8895                 7.1415
 Frc consts  --      0.4122                 0.8106                 1.1894
 IR Inten    --      3.5766                 4.2120                 1.4209

                     25                     26                     27
                      A                      A                      A
 Frequencies --    567.8475               643.1762               676.2239
 Red. masses --      5.2376                 6.1658                 5.8826
 Frc consts  --      0.9950                 1.5028                 1.5849
 IR Inten    --      1.2836                19.8611                 3.1213

                     28                     29                     30
                      A                      A                      A
 Frequencies --    698.2936               704.8692               708.2435
 Red. masses --      3.2591                 3.3320                 5.2115
 Frc consts  --      0.9363                 0.9754                 1.5402
 IR Inten    --      3.0511                18.0894                 2.1991

                     31                     32                     33
                      A                      A                      A
 Frequencies --    734.1395               758.1210               762.4521
 Red. masses --      1.1154                 2.6356                 1.5552
 Frc consts  --      0.3542                 0.8925                 0.5327
 IR Inten    --    121.9681                 5.0960                 4.8146

                     34                     35                     36
                      A                      A                      A
 Frequencies --    780.1272               825.2050               861.9434
 Red. masses --      2.5484                 2.8752                 1.3874
 Frc consts  --      0.9138                 1.1536                 0.6073
 IR Inten    --      7.4636                 1.7835                 0.0610

                     37                     38                     39
                      A                      A                      A
 Frequencies --    871.7285               924.5390               938.7399
 Red. masses --      2.9599                 1.2365                 1.9632
 Frc consts  --      1.3252                 0.6227                 1.0193
 IR Inten    --     18.4016                 1.8604                 7.0306

                     40                     41                     42
                      A                      A                      A
 Frequencies --    950.1923               959.0882               969.3259
 Red. masses --      4.5968                 1.4409                 1.3132
 Frc consts  --      2.4453                 0.7809                 0.7270
 IR Inten    --     18.1088                 0.5116                 1.4061

                     43                     44                     45
                      A                      A                      A
 Frequencies --    978.2249               982.0729              1026.7779
 Red. masses --      1.2939                 2.0718                 3.3310
 Frc consts  --      0.7295                 1.1773                 2.0691
 IR Inten    --      1.0249                 2.0655                18.6952

                     46                     47                     48
                      A                      A                      A
 Frequencies --   1038.5719              1059.4363              1106.8616
 Red. masses --      2.0922                 2.9668                 2.0835
 Frc consts  --      1.3296                 1.9620                 1.5039
 IR Inten    --     13.1967                42.4914                 4.4416

                     49                     50                     51
                      A                      A                      A
 Frequencies --   1128.6623              1139.8039              1150.7183
 Red. masses --      2.1258                 2.0034                 1.3078
 Frc consts  --      1.5955                 1.5335                 1.0203
 IR Inten    --     21.9024                16.3265                 0.7180

                     52                     53                     54
                      A                      A                      A
 Frequencies --   1186.0558              1195.1831              1205.0557
 Red. masses --      1.7516                 2.7565                 2.2722
 Frc consts  --      1.4518                 2.3199                 1.9441
 IR Inten    --      7.0841                10.8782                19.0199

                     55                     56                     57
                      A                      A                      A
 Frequencies --   1235.0505              1258.4824              1287.2124
 Red. masses --      1.8728                 2.1994                 1.6640
 Frc consts  --      1.6831                 2.0524                 1.6244
 IR Inten    --      3.7417                53.9168                 5.8218

                     58                     59                     60
                      A                      A                      A
 Frequencies --   1293.0145              1329.6825              1342.1608
 Red. masses --      1.6183                 1.2135                 1.7772
 Frc consts  --      1.5941                 1.2641                 1.8862
 IR Inten    --     20.6530                23.4042                34.9198

                     61                     62                     63
                      A                      A                      A
 Frequencies --   1351.7393              1357.4790              1364.8696
 Red. masses --      3.3317                 2.0460                 1.3537
 Frc consts  --      3.5868                 2.2214                 1.4858
 IR Inten    --     13.5458                59.6221                 2.0768

                     64                     65                     66
                      A                      A                      A
 Frequencies --   1380.9353              1392.5597              1411.4602
 Red. masses --      1.4574                 1.2662                 1.2395
 Frc consts  --      1.6374                 1.4467                 1.4549
 IR Inten    --      2.5166                12.8615                 9.2802

                     67                     68                     69
                      A                      A                      A
 Frequencies --   1436.6900              1461.1962              1465.2966
 Red. masses --      2.4187                 1.4518                 2.2624
 Frc consts  --      2.9415                 1.8263                 2.8620
 IR Inten    --    347.1842                46.6403                23.0690

                     70                     71                     72
                      A                      A                      A
 Frequencies --   1481.9018              1485.7305              1489.3814
 Red. masses --      1.2945                 1.7372                 1.0792
 Frc consts  --      1.6749                 2.2593                 1.4105
 IR Inten    --     21.1563                54.6264                 1.4664

                     73                     74                     75
                      A                      A                      A
 Frequencies --   1495.2697              1500.8233              1509.7936
 Red. masses --      1.0803                 1.0532                 1.0515
 Frc consts  --      1.4231                 1.3977                 1.4122
 IR Inten    --      7.0208                 2.8829                 9.3251

                     76                     77                     78
                      A                      A                      A
 Frequencies --   1524.7882              1540.4000              1578.3465
 Red. masses --      5.6129                 5.7796                 5.4035
 Frc consts  --      7.6888                 8.0800                 7.9310
 IR Inten    --    413.2486                70.8400                19.0582

                     79                     80                     81
                      A                      A                      A
 Frequencies --   1621.6081              1639.9937              2980.0679
 Red. masses --      5.8311                 6.1884                 1.0810
 Frc consts  --      9.0343                 9.8064                 5.6562
 IR Inten    --     13.3760                 8.1214                 7.8900

                     82                     83                     84
                      A                      A                      A
 Frequencies --   2998.1461              3000.7501              3007.4667
 Red. masses --      1.0429                 1.0527                 1.0436
 Frc consts  --      5.5231                 5.5850                 5.5613
 IR Inten    --     23.4543                26.0024                89.5119

                     85                     86                     87
                      A                      A                      A
 Frequencies --   3025.2248              3050.0492              3051.2421
 Red. masses --      1.0605                 1.0958                 1.1013
 Frc consts  --      5.7183                 6.0062                 6.0411
 IR Inten    --     56.7545                 3.7649                 2.4356

                     88                     89                     90
                      A                      A                      A
 Frequencies --   3059.3908              3072.2676              3078.2370
 Red. masses --      1.1003                 1.1007                 1.1017
 Frc consts  --      6.0680                 6.1210                 6.1505
 IR Inten    --    131.7035                16.8269                55.6947

                     91                     92                     93
                      A                      A                      A
 Frequencies --   3090.7020              3132.9592              3152.2345
 Red. masses --      1.0969                 1.0845                 1.0909
 Frc consts  --      6.1737                 6.2720                 6.3866
 IR Inten    --     35.0561                15.6320                48.6933

                     94                     95                     96
                      A                      A                      A
 Frequencies --   3179.1364              3182.0470              3482.1490
 Red. masses --      1.0915                 1.0929                 1.0635
 Frc consts  --      6.4997                 6.5201                 7.5978
 IR Inten    --     14.2090                26.0287               103.9026

 - Thermochemistry -
 -------------------
 Temperature   298.150 Kelvin.  Pressure   1.00000 Atm.
 Atom     1 has atomic number  6 and mass  12.00000

 Molecular mass:   244.10994 amu.
 Principal axes and moments of inertia in atomic units:
                           1         2         3
     Eigenvalues --  2234.700907825.691109518.95901
           X            0.97236  -0.14475   0.18319
           Y           -0.23253  -0.67093   0.70412
           Z           -0.02099   0.72725   0.68605
 This molecule is an asymmetric top.
 Rotational symmetry number  1.
 Warning -- assumption of classical behavior for rotation
           may cause significant error
 Rotational temperatures (Kelvin)      0.03876     0.01107     0.00910
 Rotational constants (GHZ):           0.80760     0.23062     0.18959
 Zero-point vibrational energy     722991.8 (Joules/Mol)
                                  172.79920 (Kcal/Mol)
 Warning -- explicit consideration of  25 degrees of freedom as
           vibrations may cause significant error
 Vibrational temperatures:     34.68    50.10    61.24   136.88   156.35
          (Kelvin)            182.29   231.05   262.59   282.40   319.98
                              355.99   362.57   415.93   447.34   499.81
                              541.76   549.04   568.43   601.21   619.75
                              638.99   667.11   695.38   764.95   817.01
                              925.39   972.94  1004.69  1014.15  1019.00
                             1056.26  1090.77  1097.00  1122.43  1187.29
                             1240.14  1254.22  1330.21  1350.64  1367.11
                             1379.91  1394.64  1407.45  1412.98  1477.30
                             1494.27  1524.29  1592.53  1623.89  1639.92
                             1655.63  1706.47  1719.60  1733.81  1776.96
                             1810.68  1852.01  1860.36  1913.12  1931.07
                             1944.85  1953.11  1963.74  1986.86  2003.58
                             2030.78  2067.08  2102.34  2108.23  2132.13
                             2137.63  2142.89  2151.36  2159.35  2172.26
                             2193.83  2216.29  2270.89  2333.13  2359.59
                             4287.65  4313.66  4317.41  4327.07  4352.62
                             4388.34  4390.06  4401.78  4420.31  4428.90
                             4446.83  4507.63  4535.36  4574.07  4578.26
                             5010.04

 Zero-point correction=                           0.275373 (Hartree/Particle)
 Thermal correction to Energy=                    0.292009
 Thermal correction to Enthalpy=                  0.292953
 Thermal correction to Gibbs Free Energy=         0.229504
 Sum of electronic and zero-point Energies=           -806.944931
 Sum of electronic and thermal Energies=              -806.928295
 Sum of electronic and thermal Enthalpies=            -806.927351
 Sum of electronic and thermal Free Energies=         -806.990800

                     E (Thermal)             CV                S
                      KCal/Mol        Cal/Mol-Kelvin    Cal/Mol-Kelvin
 Total                  183.238             64.333            133.539
 Electronic               0.000              0.000              1.377
 Translational            0.889              2.981             42.378
 Rotational               0.889              2.981             33.476
 Vibrational            181.461             58.371             56.307
 Vibration     1          0.593              1.985              6.263
 Vibration     2          0.594              1.983              5.534
 Vibration     3          0.595              1.980              5.136
 Vibration     4          0.603              1.953              3.552
 Vibration     5          0.606              1.942              3.293
 Vibration     6          0.611              1.926              2.996
 Vibration     7          0.622              1.891              2.543
 Vibration     8          0.630              1.864              2.303
 Vibration     9          0.636              1.845              2.168
 Vibration    10          0.648              1.807              1.939
 Vibration    11          0.661              1.767              1.749
 Vibration    12          0.664              1.759              1.717
 Vibration    13          0.686              1.694              1.479
 Vibration    14          0.700              1.653              1.357
 Vibration    15          0.725              1.581              1.178
 Vibration    16          0.747              1.520              1.053
 Vibration    17          0.751              1.509              1.033
 Vibration    18          0.762              1.481              0.981
 Vibration    19          0.781              1.431              0.899
 Vibration    20          0.792              1.403              0.856
 Vibration    21          0.804              1.374              0.814
 Vibration    22          0.821              1.331              0.756
 Vibration    23          0.839              1.287              0.701
 Vibration    24          0.887              1.180              0.583
 Vibration    25          0.924              1.101              0.508

 Optimization completed.
    -- Stationary point found.
 Normal termination of Gaussian 16 at Mon Jan  8 03:26:53 2024.
