 Q-Chem 5.4, Q-Chem, Inc., Pleasanton, CA (2021)
 Q-Chem 5.4.0 for Intel X86 EM64T Linux

User input:
--------------------------------------------------------------
$molecule
0 1
O                 -2.7338800000     -2.5401090000      0.5391060000
C                 -2.5589750000     -1.2207930000      0.3975860000
C                 -3.7169080000     -0.4109910000      0.4075950000
C                 -3.6263620000      0.9509920000      0.2683990000
C                 -2.3725490000      1.5833040000      0.1110210000
O                 -2.3711230000      2.9154060000     -0.0184430000
C                 -1.2035190000      0.8015970000      0.0974120000
C                  0.0955900000      1.4387250000     -0.0639690000
O                  0.1790860000      2.6935750000     -0.1921840000
C                  1.2977990000      0.6177080000     -0.0763050000
C                  2.5588150000      1.2208070000     -0.2314100000
O                  2.7334800000      2.5401910000     -0.3729260000
C                  3.7168530000      0.4111410000     -0.2414160000
C                  3.6264430000     -0.9508730000     -0.1022280000
C                  2.3726810000     -1.5833520000      0.0551380000
O                  2.3714040000     -2.9154400000      0.1845800000
C                  1.2035310000     -0.8017320000      0.0687460000
C                 -0.0955730000     -1.4388850000      0.2301160000
O                 -0.1788720000     -2.6937810000      0.3583810000
C                 -1.2978480000     -0.6178530000      0.2424690000
H                 -1.8399040000     -2.9577780000      0.5112750000
H                 -4.6760690000     -0.8997610000      0.5284610000
H                 -4.5114910000      1.5754840000      0.2754980000
H                 -1.4306180000      3.1979450000     -0.1179110000
H                  1.8395040000      2.9578580000     -0.3451270000
H                  4.6759470000      0.9000300000     -0.3622740000
H                  4.5116430000     -1.5752620000     -0.1093280000
H                  1.4309150000     -3.1981510000      0.2840270000
$end

$rem
BASIS  =  6-311++G(d,p)
GUI  =  2
JOB_TYPE  =  SP
METHOD  =  B3LYP
SCF_CONVERGENCE  = 8
SOLVENT_METHOD = sm12
$end

$smx
solvent dimethylformamide
charges CM5
$end

--------------------------------------------------------------

             Standard Nuclear Orientation (Angstroms)
    I     Atom           X                Y                Z
 ----------------------------------------------------------------
    1      O      -2.7338800000    -2.5401090000     0.5391060000
    2      C      -2.5589750000    -1.2207930000     0.3975860000
    3      C      -3.7169080000    -0.4109910000     0.4075950000
    4      C      -3.6263620000     0.9509920000     0.2683990000
    5      C      -2.3725490000     1.5833040000     0.1110210000
    6      O      -2.3711230000     2.9154060000    -0.0184430000
    7      C      -1.2035190000     0.8015970000     0.0974120000
    8      C       0.0955900000     1.4387250000    -0.0639690000
    9      O       0.1790860000     2.6935750000    -0.1921840000
   10      C       1.2977990000     0.6177080000    -0.0763050000
   11      C       2.5588150000     1.2208070000    -0.2314100000
   12      O       2.7334800000     2.5401910000    -0.3729260000
   13      C       3.7168530000     0.4111410000    -0.2414160000
   14      C       3.6264430000    -0.9508730000    -0.1022280000
   15      C       2.3726810000    -1.5833520000     0.0551380000
   16      O       2.3714040000    -2.9154400000     0.1845800000
   17      C       1.2035310000    -0.8017320000     0.0687460000
   18      C      -0.0955730000    -1.4388850000     0.2301160000
   19      O      -0.1788720000    -2.6937810000     0.3583810000
   20      C      -1.2978480000    -0.6178530000     0.2424690000
   21      H      -1.8399040000    -2.9577780000     0.5112750000
   22      H      -4.6760690000    -0.8997610000     0.5284610000
   23      H      -4.5114910000     1.5754840000     0.2754980000
   24      H      -1.4306180000     3.1979450000    -0.1179110000
   25      H       1.8395040000     2.9578580000    -0.3451270000
   26      H       4.6759470000     0.9000300000    -0.3622740000
   27      H       4.5116430000    -1.5752620000    -0.1093280000
   28      H       1.4309150000    -3.1981510000     0.2840270000
 ----------------------------------------------------------------

   14    -989.9861883764      1.89e-09  Convergence criterion met
 Total energy in the final basis set =     -990.0145427821

                    Orbital Energies (a.u.)
 --------------------------------------------------------------

 Alpha MOs
 -- Occupied --
-19.1668 -19.1668 -19.1668 -19.1668 -19.1470 -19.1469 -10.2947 -10.2947
-10.2720 -10.2720 -10.2720 -10.2720 -10.2163 -10.2162 -10.2158 -10.2158
-10.2073 -10.2073 -10.2066 -10.2066  -1.1013  -1.0994  -1.0893  -1.0880
 -1.0599  -1.0588  -0.9004  -0.8810  -0.8281  -0.7882  -0.7813  -0.7650
 -0.7121  -0.6876  -0.6795  -0.6431  -0.6306  -0.5920  -0.5681  -0.5616
 -0.5574  -0.5522  -0.5491  -0.5059  -0.4945  -0.4823  -0.4749  -0.4732
 -0.4685  -0.4502  -0.4469  -0.4443  -0.4409  -0.4371  -0.4343  -0.4224
 -0.4127  -0.4009  -0.3979  -0.3978  -0.3831  -0.3813  -0.3428  -0.3337
 -0.3097  -0.3012  -0.2908  -0.2879  -0.2499  -0.2293

          Ground-State Mulliken Net Atomic Charges

     Atom                 Charge (a.u.)
  ----------------------------------------
      1 O                    -0.334196
      2 C                    -0.601425
      3 C                     0.601688
      4 C                     0.601336
      5 C                    -0.601272
      6 O                    -0.334200
      7 C                     0.184525
      8 C                    -0.581215
      9 O                    -0.415691
     10 C                     0.182984
     11 C                    -0.601183
     12 O                    -0.334393
     13 C                     0.601378
     14 C                     0.601369
     15 C                    -0.601508
     16 O                    -0.334110
     17 C                     0.184352
     18 C                    -0.581160
     19 O                    -0.415644
     20 C                     0.183260
     21 H                     0.338554
     22 H                     0.310079
     23 H                     0.310190
     24 H                     0.338709
     25 H                     0.338658
     26 H                     0.310055
     27 H                     0.310203
     28 H                     0.338659
  ----------------------------------------
  Sum of atomic charges =     0.000000

                    Cartesian Multipole Moments
 -----------------------------------------------------------------
    Charge (ESU x 10^10)
                 0.0000
    Dipole Moment (Debye)
         X      -0.0008      Y      -0.0003      Z      -0.0000
       Tot       0.0008
    Quadrupole Moments (Debye-Ang)
        XX     -99.0172     XY      -2.1163     YY    -128.9829
        XZ      -1.0471     YZ       1.4717     ZZ    -115.5373

 Total job time:  658.61s(wall), 4999.38s(cpu)
        *  Thank you very much for using Q-Chem.  Have a nice day.  *
