 Gaussian 16, Revision A.03,
 Gaussian 16:  ES64L-G16RevA.03 25-Dec-2016

 --------------------------------------
 #P UB3LYP/6-311++G(d,p) nosym opt freq
 --------------------------------------

 -------
 Radical
 -------
 Symbolic Z-matrix:
 Charge = -1 Multiplicity = 2

 SCF Done:  E(UB3LYP) =  -1010.95612155     A.U. after   25 cycles
 SCF Done:  E(UB3LYP) =  -1010.96603540     A.U. after   20 cycles
 SCF Done:  E(UB3LYP) =  -1010.96735725     A.U. after   23 cycles
 SCF Done:  E(UB3LYP) =  -1010.96771315     A.U. after   22 cycles
 SCF Done:  E(UB3LYP) =  -1010.96746857     A.U. after   22 cycles
 SCF Done:  E(UB3LYP) =  -1010.96816634     A.U. after   19 cycles
 SCF Done:  E(UB3LYP) =  -1010.96833037     A.U. after   20 cycles
 SCF Done:  E(UB3LYP) =  -1010.96838573     A.U. after   17 cycles
 SCF Done:  E(UB3LYP) =  -1010.96839705     A.U. after   16 cycles
 SCF Done:  E(UB3LYP) =  -1010.96839924     A.U. after   15 cycles
 SCF Done:  E(UB3LYP) =  -1010.96840021     A.U. after   14 cycles
 SCF Done:  E(UB3LYP) =  -1010.96840028     A.U. after   12 cycles
 Optimization completed.
    -- Stationary point found.
 Normal termination of Gaussian 16 at Wed Dec 20 02:29:51 2023.

 ----------------------------------------------------------------------
 #P Geom=AllCheck Guess=TCheck SCRF=Check GenChk UB3LYP/6-311++G(d,p) F
 req
 ----------------------------------------------------------------------

 Structure from the checkpoint file:  "102-rad.chk"
 -------
 Radical
 -------
 Charge = -1 Multiplicity = 2

                          Input orientation:
 ---------------------------------------------------------------------
 Center     Atomic      Atomic             Coordinates (Angstroms)
 Number     Number       Type             X           Y           Z
 ---------------------------------------------------------------------
      1          6           0        1.896121    3.521479    3.868937
      2          6           0        2.958428    3.589253    2.877445
      3          6           0        3.431524    2.498854    2.205785
      4          6           0        2.902567    1.165874    2.423198
      5          6           0        1.357966    2.178009    4.080994
      6          6           0        1.835928    1.080635    3.397927
      7          8           0        1.483697    4.541389    4.472684
      8          8           0        3.334069    0.151927    1.804739
      9         16           0        0.135727    1.919434    5.365337
     10          6           0       -1.372904    2.626379    4.731468
     11          6           0       -2.476831    2.664702    5.596951
     12          6           0       -1.519188    3.110917    3.427055
     13          6           0       -2.744552    3.618998    3.002912
     14          6           0       -3.699075    3.168806    5.163279
     15          6           0       -3.843618    3.650907    3.861405
     16          1           0        3.369638    4.579293    2.700571
     17          1           0        4.230881    2.592536    1.475618
     18          1           0        1.415337    0.096868    3.576799
     19          1           0       -2.371017    2.301420    6.614170
     20          1           0       -0.671836    3.094105    2.753800
     21          1           0       -2.837211    3.995818    1.989163
     22          1           0       -4.540752    3.190040    5.848780
     23          1           0       -4.794549    4.049368    3.524472
 ---------------------------------------------------------------------

 SCF Done:  E(UB3LYP) =  -1010.96840028     A.U. after    1 cycles

 Alpha  occ. eigenvalues --  -88.73547 -18.94757 -18.94754 -10.10434 -10.09811
 Alpha  occ. eigenvalues --  -10.09241 -10.08372 -10.08057 -10.07877 -10.07813
 Alpha  occ. eigenvalues --  -10.07285 -10.07204 -10.04757 -10.04416 -10.04342
 Alpha  occ. eigenvalues --   -7.82134  -5.78533  -5.78123  -5.77547  -0.87274
 Alpha  occ. eigenvalues --   -0.86698  -0.76535  -0.71128  -0.67923  -0.65271
 Alpha  occ. eigenvalues --   -0.63592  -0.58580  -0.55150  -0.51272  -0.49661
 Alpha  occ. eigenvalues --   -0.46962  -0.44106  -0.41373  -0.36319  -0.35806
 Alpha  occ. eigenvalues --   -0.35058  -0.34212  -0.32893  -0.32431  -0.30854
 Alpha  occ. eigenvalues --   -0.28121  -0.27875  -0.27639  -0.27006  -0.25336
 Alpha  occ. eigenvalues --   -0.24829  -0.24497  -0.24004  -0.21448  -0.18854
 Alpha  occ. eigenvalues --   -0.16139  -0.15501  -0.14210  -0.11300  -0.10892
 Alpha  occ. eigenvalues --   -0.10047  -0.03679
 Alpha virt. eigenvalues --    0.06838   0.08079   0.08451   0.08556   0.09699
 Alpha virt. eigenvalues --    0.09967   0.10321   0.11351   0.11907   0.12455
 Alpha virt. eigenvalues --    0.13472   0.14246   0.14807   0.15477   0.15563

  Beta  occ. eigenvalues --  -88.73549 -18.94056 -18.93950 -10.10423 -10.09736
  Beta  occ. eigenvalues --  -10.09162 -10.08372 -10.08057 -10.07877 -10.07812
  Beta  occ. eigenvalues --  -10.07201 -10.07170 -10.04568 -10.04319 -10.04250
  Beta  occ. eigenvalues --   -7.82135  -5.78537  -5.78128  -5.77547  -0.86076
  Beta  occ. eigenvalues --   -0.85305  -0.76522  -0.70662  -0.67711  -0.65266
  Beta  occ. eigenvalues --   -0.63403  -0.58255  -0.54296  -0.51251  -0.49559
  Beta  occ. eigenvalues --   -0.46585  -0.43846  -0.41270  -0.36262  -0.35785
  Beta  occ. eigenvalues --   -0.34846  -0.33800  -0.32869  -0.32235  -0.30643
  Beta  occ. eigenvalues --   -0.27875  -0.27448  -0.26493  -0.26341  -0.25190
  Beta  occ. eigenvalues --   -0.24392  -0.23855  -0.21713  -0.21021  -0.18804
  Beta  occ. eigenvalues --   -0.16081  -0.13434  -0.11981  -0.10672  -0.10303
  Beta  occ. eigenvalues --   -0.09736
  Beta virt. eigenvalues --    0.03643   0.06846   0.08101   0.08505   0.08558
  Beta virt. eigenvalues --    0.09708   0.10223   0.11204   0.11386   0.12092
  Beta virt. eigenvalues --    0.12521   0.13757   0.14334   0.14921   0.15575

 Mulliken charges and spin densities:
               1          2
     1  C   -0.810214   0.029811
     2  C   -0.040093   0.090314
     3  C    0.202208   0.063418
     4  C   -0.859044   0.094831
     5  C    1.481412   0.090853
     6  C   -0.165658   0.109600
     7  O   -0.343465   0.254946
     8  O   -0.399626   0.284956
     9  S   -0.502417  -0.003930
    10  C    0.609293   0.003782
    11  C   -0.358762   0.000339
    12  C   -0.058158   0.004318
    13  C   -0.279016  -0.003706
    14  C   -0.436722  -0.000533
    15  C   -0.305978   0.001667
    16  H    0.164577  -0.007712
    17  H    0.152604  -0.005576
    18  H    0.196073  -0.011322
    19  H    0.152259   0.000354
    20  H    0.179129   0.003416
    21  H    0.163169  -0.000029
    22  H    0.137976   0.000186
    23  H    0.120451   0.000017
 Sum of Mulliken charges =  -1.00000   1.00000

 Dipole moment (field-independent basis, Debye):
    X=             -8.0915    Y=            -10.7502    Z=            -17.0565  Tot=             21.7248
 Quadrupole moment (field-independent basis, Debye-Ang):
   XX=           -128.7215   YY=           -147.2515   ZZ=           -168.8609
   XY=             -8.3809   XZ=            -19.2152   YZ=            -53.6768

  Exact polarizability: 236.784 -34.082 174.289 -44.842  11.099 169.071
 Approx polarizability: 319.631 -59.102 308.784 -57.382  28.179 288.197

                      1                      2                      3
                      A                      A                      A
 Frequencies --     24.5570                29.0793                63.3092
 Red. masses --      8.4444                 4.2593                 5.2007
 Frc consts  --      0.0030                 0.0021                 0.0123
 IR Inten    --      0.5431                 0.0239                 0.5256

                      4                      5                      6
                      A                      A                      A
 Frequencies --    114.5891               167.1629               196.2244
 Red. masses --      8.6355                 4.9954                 5.8975
 Frc consts  --      0.0668                 0.0822                 0.1338
 IR Inten    --     11.7940                 0.0669                 0.6057

                      7                      8                      9
                      A                      A                      A
 Frequencies --    226.0709               242.7166               321.2323
 Red. masses --     13.4072                 6.1196                 6.2408
 Frc consts  --      0.4037                 0.2124                 0.3794
 IR Inten    --      1.2478                 1.4667                 0.5520

                     10                     11                     12
                      A                      A                      A
 Frequencies --    376.6654               405.6290               411.5134
 Red. masses --      8.1073                 6.6232                 2.9936
 Frc consts  --      0.6777                 0.6421                 0.2987
 IR Inten    --     10.2519                 2.6182                 0.4126

                     13                     14                     15
                      A                      A                      A
 Frequencies --    437.6991               461.9040               478.7684
 Red. masses --      9.5142                 4.1969                 3.5978
 Frc consts  --      1.0739                 0.5276                 0.4859
 IR Inten    --      0.9190                 4.3020                 8.2089

                     16                     17                     18
                      A                      A                      A
 Frequencies --    485.3287               560.0443               606.2269
 Red. masses --      7.8949                 4.9101                 3.0058
 Frc consts  --      1.0956                 0.9074                 0.6509
 IR Inten    --      2.0734                 1.0727                 2.2363

                     19                     20                     21
                      A                      A                      A
 Frequencies --    631.3381               666.9927               697.8062
 Red. masses --      6.4258                 7.7685                 2.0791
 Frc consts  --      1.5090                 2.0363                 0.5965
 IR Inten    --      0.8161                 0.6751                25.1069

                     22                     23                     24
                      A                      A                      A
 Frequencies --    704.4972               735.6386               744.5044
 Red. masses --      6.4991                 1.6854                 3.5634
 Frc consts  --      1.9005                 0.5374                 1.1637
 IR Inten    --     15.6198                47.4009                 0.8428

                     25                     26                     27
                      A                      A                      A
 Frequencies --    809.6918               822.8736               836.4157
 Red. masses --      5.5556                 1.8267                 1.2616
 Frc consts  --      2.1460                 0.7288                 0.5200
 IR Inten    --     41.2758                22.0288                 0.1905

                     28                     29                     30
                      A                      A                      A
 Frequencies --    874.7861               885.9664               888.8239
 Red. masses --      6.1586                 1.5997                 1.3990
 Frc consts  --      2.7767                 0.7398                 0.6512
 IR Inten    --      2.3909                27.3823                 2.2174

                     31                     32                     33
                      A                      A                      A
 Frequencies --    959.5555               960.4523               978.6805
 Red. masses --      1.3040                 1.2769                 1.2953
 Frc consts  --      0.7074                 0.6940                 0.7310
 IR Inten    --      0.0553                 0.0328                 0.3599

                     34                     35                     36
                      A                      A                      A
 Frequencies --    997.1826              1009.5216              1043.2339
 Red. masses --      3.3145                 6.2385                 2.7228
 Frc consts  --      1.9419                 3.7459                 1.7460
 IR Inten    --     45.4801                 3.3766                24.0694

                     37                     38                     39
                      A                      A                      A
 Frequencies --   1094.4734              1098.2255              1099.8391
 Red. masses --      2.1452                 1.8760                 1.9555
 Frc consts  --      1.5140                 1.3331                 1.3937
 IR Inten    --     12.3453                15.0777                 9.9110

                     40                     41                     42
                      A                      A                      A
 Frequencies --   1173.7159              1195.0607              1200.3071
 Red. masses --      1.0979                 1.9247                 1.1559
 Frc consts  --      0.8911                 1.6196                 0.9812
 IR Inten    --      0.4089                19.6023                 0.7686

                     43                     44                     45
                      A                      A                      A
 Frequencies --   1237.2434              1313.5453              1331.9677
 Red. masses --      1.6506                 3.3158                 2.1771
 Frc consts  --      1.4887                 3.3708                 2.2757
 IR Inten    --     18.4044                 5.1751                 4.2767

                     46                     47                     48
                      A                      A                      A
 Frequencies --   1350.2418              1415.9522              1465.7683
 Red. masses --      1.6620                 3.8878                 2.5019
 Frc consts  --      1.7852                 4.5925                 3.1671
 IR Inten    --      2.7131                36.1322                22.6010

                     49                     50                     51
                      A                      A                      A
 Frequencies --   1468.8942              1504.0638              1505.6259
 Red. masses --      4.5803                 2.8241                 3.7054
 Frc consts  --      5.8228                 3.7641                 4.9490
 IR Inten    --     48.2223                70.9724                36.1483

                     52                     53                     54
                      A                      A                      A
 Frequencies --   1535.1671              1605.3766              1620.1961
 Red. masses --      7.5929                 5.4401                 5.4917
 Frc consts  --     10.5431                 8.2606                 8.4936
 IR Inten    --    353.0320                 0.5801               106.2746

                     55                     56                     57
                      A                      A                      A
 Frequencies --   1630.7107              3134.9620              3141.2553
 Red. masses --      6.7056                 1.0852                 1.0839
 Frc consts  --     10.5062                 6.2837                 6.3018
 IR Inten    --      6.8906                16.5729                 5.0035

                     58                     59                     60
                      A                      A                      A
 Frequencies --   3151.6618              3156.8853              3162.1118
 Red. masses --      1.0876                 1.0948                 1.0923
 Frc consts  --      6.3648                 6.4284                 6.4349
 IR Inten    --      9.5609                46.1928                40.3978

                     61                     62                     63
                      A                      A                      A
 Frequencies --   3169.5319              3174.0482              3196.7961
 Red. masses --      1.0901                 1.0965                 1.0922
 Frc consts  --      6.4521                 6.5085                 6.5765
 IR Inten    --      7.0920                46.5651                 4.3894

 - Thermochemistry -
 -------------------
 Temperature   298.150 Kelvin.  Pressure   1.00000 Atm.
 Atom     1 has atomic number  6 and mass  12.00000

 Molecular mass:   216.02450 amu.
 Principal axes and moments of inertia in atomic units:
                           1         2         3
     Eigenvalues --  1557.638295979.501836101.11265
           X            0.92696   0.19905   0.31801
           Y           -0.22023   0.97493   0.03169
           Z           -0.30373  -0.09941   0.94756
 This molecule is an asymmetric top.
 Rotational symmetry number  1.
 Warning -- assumption of classical behavior for rotation
           may cause significant error
 Rotational temperatures (Kelvin)      0.05561     0.01449     0.01420
 Rotational constants (GHZ):           1.15864     0.30182     0.29581
 Zero-point vibrational energy     430597.7 (Joules/Mol)
                                  102.91531 (Kcal/Mol)
 Warning -- explicit consideration of  18 degrees of freedom as
           vibrations may cause significant error
 Vibrational temperatures:     35.33    41.84    91.09   164.87   240.51
          (Kelvin)            282.32   325.27   349.22   462.18   541.94
                              583.61   592.08   629.75   664.58   688.84
                              698.28   805.78   872.23   908.35   959.65
                             1003.99  1013.61  1058.42  1071.18  1164.97
                             1183.93  1203.42  1258.62  1274.71  1278.82
                             1380.59  1381.88  1408.10  1434.72  1452.48
                             1500.98  1574.70  1580.10  1582.42  1688.72
                             1719.43  1726.97  1780.12  1889.90  1916.40
                             1942.70  2037.24  2108.91  2113.41  2164.01
                             2166.26  2208.76  2309.78  2331.10  2346.23
                             4510.51  4519.57  4534.54  4542.05  4549.57
                             4560.25  4566.75  4599.48

 Zero-point correction=                           0.164006 (Hartree/Particle)
 Thermal correction to Energy=                    0.176515
 Thermal correction to Enthalpy=                  0.177459
 Thermal correction to Gibbs Free Energy=         0.122354
 Sum of electronic and zero-point Energies=          -1010.804394
 Sum of electronic and thermal Energies=             -1010.791886
 Sum of electronic and thermal Enthalpies=           -1010.790941
 Sum of electronic and thermal Free Energies=        -1010.846046

                     E (Thermal)             CV                S
                      KCal/Mol        Cal/Mol-Kelvin    Cal/Mol-Kelvin
 Total                  110.765             48.093            115.978
 Electronic               0.000              0.000              1.377
 Translational            0.889              2.981             42.014
 Rotational               0.889              2.981             32.408
 Vibrational            108.987             42.132             40.179
 Vibration     1          0.593              1.985              6.227
 Vibration     2          0.593              1.984              5.891
 Vibration     3          0.597              1.972              4.351
 Vibration     4          0.608              1.937              3.190
 Vibration     5          0.624              1.883              2.467
 Vibration     6          0.636              1.845              2.168
 Vibration     7          0.650              1.801              1.910
 Vibration     8          0.659              1.775              1.783
 Vibration     9          0.707              1.633              1.304
 Vibration    10          0.747              1.520              1.053
 Vibration    11          0.771              1.458              0.942
 Vibration    12          0.775              1.445              0.921
 Vibration    13          0.798              1.388              0.834
 Vibration    14          0.820              1.335              0.761
 Vibration    15          0.835              1.297              0.713
 Vibration    16          0.841              1.283              0.696
 Vibration    17          0.916              1.118              0.524
 Vibration    18          0.965              1.019              0.439

 Optimization completed.
    -- Stationary point found.
 Normal termination of Gaussian 16 at Wed Dec 20 03:11:10 2023.
