 Q-Chem 5.4, Q-Chem, Inc., Pleasanton, CA (2021)
 Q-Chem 5.4.0 for Intel X86 EM64T Linux

User input:
--------------------------------------------------------------
$molecule
-1 2
N                 -4.5012680000     -0.0318300000      0.1831410000
C                 -3.1261000000     -0.3799420000      0.2402570000
C                 -2.7532370000     -1.6187580000      0.7921720000
C                 -1.4234120000     -1.9538090000      0.9272580000
C                 -0.4069580000     -1.0614310000      0.5386710000
C                  0.9838170000     -1.4838780000      0.7302800000
O                  1.2765030000     -2.5944360000      1.2365970000
C                  2.0137920000     -0.5432090000      0.2936500000
C                  3.3754850000     -0.8818950000      0.4453780000
C                  4.3760550000     -0.0218420000      0.0387450000
C                  4.0381540000      1.2220690000     -0.5406870000
C                  2.7130880000      1.5736010000     -0.6986160000
C                  1.6710430000      0.7086220000     -0.2895600000
C                  0.2857890000      1.1281820000     -0.4755930000
O                  0.0331940000      2.2576560000     -1.0067030000
C                 -0.7567400000      0.2043420000     -0.0324600000
C                 -2.1452900000      0.5200010000     -0.1927480000
N                 -2.5601850000      1.7529470000     -0.7416120000
H                 -5.0860350000     -0.7055950000     -0.2935840000
H                 -4.6627460000      0.9056540000     -0.1571470000
H                 -3.5329160000     -2.2929330000      1.1359640000
H                 -1.1195390000     -2.9017320000      1.3538290000
H                  3.6007720000     -1.8433670000      0.8925670000
H                  5.4190030000     -0.2981020000      0.1631140000
H                  4.8227780000      1.9016400000     -0.8608410000
H                  2.4286990000      2.5219330000     -1.1388460000
H                 -1.7329280000      2.2778070000     -1.0485710000
H                 -3.2308190000      1.6383040000     -1.4946530000
$end
$rem
MAX_SCF_CYCLES=200
BASIS  =  6-311++G(d,p)
GUI  =  2
JOB_TYPE  =  SP
METHOD  =  B3LYP
SOLVENT_METHOD = PCM
$end
$pcm
theory = CPCM
$end
$solvent
dielectric 37.219
opticaldielectric 1.43
$end

--------------------------------------------------------------

             Standard Nuclear Orientation (Angstroms)
    I     Atom           X                Y                Z
 ----------------------------------------------------------------
    1      N      -4.5012680000    -0.0318300000     0.1831410000
    2      C      -3.1261000000    -0.3799420000     0.2402570000
    3      C      -2.7532370000    -1.6187580000     0.7921720000
    4      C      -1.4234120000    -1.9538090000     0.9272580000
    5      C      -0.4069580000    -1.0614310000     0.5386710000
    6      C       0.9838170000    -1.4838780000     0.7302800000
    7      O       1.2765030000    -2.5944360000     1.2365970000
    8      C       2.0137920000    -0.5432090000     0.2936500000
    9      C       3.3754850000    -0.8818950000     0.4453780000
   10      C       4.3760550000    -0.0218420000     0.0387450000
   11      C       4.0381540000     1.2220690000    -0.5406870000
   12      C       2.7130880000     1.5736010000    -0.6986160000
   13      C       1.6710430000     0.7086220000    -0.2895600000
   14      C       0.2857890000     1.1281820000    -0.4755930000
   15      O       0.0331940000     2.2576560000    -1.0067030000
   16      C      -0.7567400000     0.2043420000    -0.0324600000
   17      C      -2.1452900000     0.5200010000    -0.1927480000
   18      N      -2.5601850000     1.7529470000    -0.7416120000
   19      H      -5.0860350000    -0.7055950000    -0.2935840000
   20      H      -4.6627460000     0.9056540000    -0.1571470000
   21      H      -3.5329160000    -2.2929330000     1.1359640000
   22      H      -1.1195390000    -2.9017320000     1.3538290000
   23      H       3.6007720000    -1.8433670000     0.8925670000
   24      H       5.4190030000    -0.2981020000     0.1631140000
   25      H       4.8227780000     1.9016400000    -0.8608410000
   26      H       2.4286990000     2.5219330000    -1.1388460000
   27      H      -1.7329280000     2.2778070000    -1.0485710000
   28      H      -3.2308190000     1.6383040000    -1.4946530000
 ----------------------------------------------------------------

    8    -799.8553933188      7.61e-06  Convergence criterion met
 Total energy in the final basis set =     -799.8553933188

                    Orbital Energies (a.u.)
 --------------------------------------------------------------

 Alpha MOs
 -- Occupied --
-19.0777 -19.0735 -14.3089 -14.2971 -10.2259 -10.2235 -10.2066 -10.2031
-10.1745 -10.1709 -10.1704 -10.1699 -10.1694 -10.1681 -10.1676 -10.1662
-10.1658 -10.1614  -1.0037  -1.0008  -0.9258  -0.8784  -0.8563  -0.8320
 -0.7766  -0.7491  -0.7319  -0.7222  -0.6626  -0.6338  -0.6172  -0.5841
 -0.5580  -0.5389  -0.5292  -0.5042  -0.4860  -0.4725  -0.4660  -0.4619
 -0.4451  -0.4339  -0.4227  -0.4211  -0.4135  -0.4121  -0.3963  -0.3838
 -0.3793  -0.3763  -0.3556  -0.3498  -0.3455  -0.3344  -0.3068  -0.2988
 -0.2627  -0.2558  -0.2475  -0.2391  -0.2322  -0.2051  -0.1374

 Beta MOs
 -- Occupied --
-19.0726 -19.0690 -14.3086 -14.2967 -10.2235 -10.2217 -10.2061 -10.2023
-10.1744 -10.1701 -10.1700 -10.1693 -10.1685 -10.1680 -10.1675 -10.1658
-10.1657 -10.1611  -0.9950  -0.9923  -0.9244  -0.8777  -0.8539  -0.8307
 -0.7730  -0.7468  -0.7303  -0.7198  -0.6556  -0.6321  -0.6149  -0.5832
 -0.5556  -0.5369  -0.5279  -0.5032  -0.4847  -0.4700  -0.4648  -0.4604
 -0.4443  -0.4324  -0.4215  -0.4121  -0.4105  -0.4074  -0.3939  -0.3798
 -0.3739  -0.3591  -0.3543  -0.3481  -0.3369  -0.3329  -0.3032  -0.2915
 -0.2491  -0.2467  -0.2431  -0.2346  -0.2281  -0.1970

          Ground-State Mulliken Net Atomic Charges

     Atom                 Charge (a.u.)    Spin (a.u.)
  --------------------------------------------------------
      1 N                    -0.452651       0.010450
      2 C                    -0.289402       0.061011
      3 C                    -0.336935       0.012008
      4 C                    -0.036722       0.045302
      5 C                     0.440026       0.009461
      6 C                    -0.422965       0.099944
      7 O                    -0.488165       0.171273
      8 C                     0.030344       0.033488
      9 C                     0.059759       0.018387
     10 C                    -0.496172       0.048188
     11 C                    -0.510806       0.033559
     12 C                     0.130306       0.039348
     13 C                     0.128348       0.037048
     14 C                    -0.517732       0.126645
     15 O                    -0.477283       0.191838
     16 C                     0.411116      -0.005928
     17 C                     0.091883       0.069234
     18 N                    -0.510640       0.013833
     19 H                     0.280958       0.001534
     20 H                     0.278267      -0.000116
     21 H                     0.210350      -0.001514
     22 H                     0.165485      -0.003160
     23 H                     0.166876      -0.000837
     24 H                     0.194461      -0.003845
     25 H                     0.196191      -0.002946
     26 H                     0.172020      -0.001556
     27 H                     0.322713      -0.003220
     28 H                     0.260372       0.000571
  --------------------------------------------------------
  Sum of atomic charges =    -1.000000

                    Cartesian Multipole Moments
 -----------------------------------------------------------------
    Charge (ESU x 10^10)
                -4.8032
    Dipole Moment (Debye)
         X      -4.2739      Y       1.1006      Z      -3.6942
       Tot       5.7554
    Quadrupole Moments (Debye-Ang)
        XX    -100.5999     XY      10.7602     YY    -135.0461
        XZ       7.6119     YZ       8.0561     ZZ    -115.6593

 Total job time:  243.06s(wall), 381.08s(cpu)
        *  Thank you very much for using Q-Chem.  Have a nice day.  *
