 Gaussian 16, Revision A.03,
 Gaussian 16:  ES64L-G16RevA.03 25-Dec-2016

 ----------------------------------------------
 #P UB3LYP/6-311++G(d,p) nosym opt freq SCF=YQC
 ----------------------------------------------

 -------
 Reduced
 -------
 Symbolic Z-matrix:
 Charge = -2 Multiplicity = 1

 SCF Done:  E(UB3LYP) =  -610.515159331     a.u. after    8 cycles
 SCF Done:  E(UB3LYP) =  -610.515234493     A.U. after   13 cycles
 SCF Done:  E(UB3LYP) =  -610.515233024     a.u. after    1 cycles
 SCF Done:  E(UB3LYP) =  -610.515234426     A.U. after   11 cycles
 SCF Done:  E(UB3LYP) =  -610.515233445     a.u. after    1 cycles
 SCF Done:  E(UB3LYP) =  -610.515234525     A.U. after   10 cycles
 Optimization completed.
    -- Stationary point found.
 Normal termination of Gaussian 16 at Mon Jan  8 01:37:19 2024.

 ----------------------------------------------------------------------
 #P Geom=AllCheck Guess=TCheck SCRF=Check GenChk UB3LYP/6-311++G(d,p) F
 req
 ----------------------------------------------------------------------

 Structure from the checkpoint file:  "280-an.chk"
 -------
 Reduced
 -------
 Charge = -2 Multiplicity = 1

                          Input orientation:
 ---------------------------------------------------------------------
 Center     Atomic      Atomic             Coordinates (Angstroms)
 Number     Number       Type             X           Y           Z
 ---------------------------------------------------------------------
      1          8           0        2.366907    1.624318    0.353221
      2          6           0        1.730383    0.489129    0.228382
      3          6           0        2.394085   -0.755203    0.255372
      4          6           0        1.690201   -1.970538    0.119195
      5          6           0        0.317757   -1.994678   -0.046783
      6          6           0       -0.422236   -0.783058   -0.084200
      7          6           0       -1.886013   -0.841568   -0.262161
      8          8           0       -2.509122   -1.963201   -0.384739
      9          6           0       -2.526790    0.421852   -0.285270
     10          6           0       -1.830572    1.645756   -0.149620
     11          6           0       -0.460095    1.688995    0.016559
     12          8           0        0.195098    2.903353    0.146816
     13          6           0        0.275694    0.464164    0.052567
     14          1           0        1.164120    2.625671    0.250895
     15          1           0        3.474768   -0.743872    0.385705
     16          1           0        2.247100   -2.909483    0.146255
     17          1           0       -0.238212   -2.919556   -0.152774
     18          1           0       -3.608550    0.427867   -0.414748
     19          1           0       -2.374520    2.590053   -0.174673
 ---------------------------------------------------------------------

 SCF Done:  E(UB3LYP) =  -610.515234525     a.u. after    1 cycles
 SCF Done:  E(UB3LYP) =  -610.515234525     A.U. after    1 cycles

 Alpha  occ. eigenvalues --  -18.83497 -18.78652 -18.75399  -9.94002  -9.92670
 Alpha  occ. eigenvalues --   -9.91776  -9.89904  -9.88587  -9.88189  -9.88177
 Alpha  occ. eigenvalues --   -9.87724  -9.87586  -9.86689  -0.74639  -0.69183
 Alpha  occ. eigenvalues --   -0.66808  -0.55748  -0.51680  -0.44987  -0.43971
 Alpha  occ. eigenvalues --   -0.39643  -0.33392  -0.32014  -0.27044  -0.23228
 Alpha  occ. eigenvalues --   -0.21502  -0.20444  -0.18485  -0.14872  -0.13485
 Alpha  occ. eigenvalues --   -0.12692  -0.12408  -0.11419  -0.10029  -0.08850
 Alpha  occ. eigenvalues --   -0.07991  -0.07170  -0.06290  -0.05051  -0.02458
 Alpha  occ. eigenvalues --    0.01106   0.03855   0.03869   0.07111   0.07946
 Alpha  occ. eigenvalues --    0.13252
 Alpha virt. eigenvalues --    0.18164   0.19183   0.20119   0.21032   0.22306
 Alpha virt. eigenvalues --    0.23784   0.25905   0.26356   0.27419   0.27840
 Alpha virt. eigenvalues --    0.29403   0.29488   0.30104   0.30740   0.30861

  Beta  occ. eigenvalues --  -18.83497 -18.78652 -18.75399  -9.94002  -9.92670
  Beta  occ. eigenvalues --   -9.91776  -9.89904  -9.88587  -9.88189  -9.88177
  Beta  occ. eigenvalues --   -9.87724  -9.87586  -9.86689  -0.74639  -0.69183
  Beta  occ. eigenvalues --   -0.66808  -0.55748  -0.51680  -0.44987  -0.43971
  Beta  occ. eigenvalues --   -0.39643  -0.33392  -0.32014  -0.27044  -0.23228
  Beta  occ. eigenvalues --   -0.21502  -0.20444  -0.18485  -0.14872  -0.13485
  Beta  occ. eigenvalues --   -0.12692  -0.12408  -0.11419  -0.10029  -0.08850
  Beta  occ. eigenvalues --   -0.07991  -0.07170  -0.06290  -0.05051  -0.02458
  Beta  occ. eigenvalues --    0.01106   0.03855   0.03869   0.07111   0.07946
  Beta  occ. eigenvalues --    0.13252
  Beta virt. eigenvalues --    0.18164   0.19183   0.20119   0.21032   0.22306
  Beta virt. eigenvalues --    0.23784   0.25905   0.26356   0.27419   0.27840
  Beta virt. eigenvalues --    0.29403   0.29488   0.30104   0.30740   0.30861

 Mulliken charges and spin densities:
               1          2
     1  O   -0.568433  -0.000000
     2  C   -0.573839   0.000000
     3  C   -0.086613  -0.000000
     4  C   -0.166055  -0.000000
     5  C   -0.184477  -0.000000
     6  C    0.487988  -0.000000
     7  C   -0.904738  -0.000000
     8  O   -0.555446   0.000000
     9  C    0.087070   0.000000
    10  C    0.139365  -0.000000
    11  C   -0.338180  -0.000000
    12  O   -0.465085   0.000000
    13  C    0.442756   0.000000
    14  H    0.339256  -0.000000
    15  H    0.060687  -0.000000
    16  H    0.061229  -0.000000
    17  H    0.109600   0.000000
    18  H    0.043477  -0.000000
    19  H    0.071437   0.000000
 Sum of Mulliken charges =  -2.00000  -0.00000

 Dipole moment (field-independent basis, Debye):
    X=              2.2317    Y=             -0.2628    Z=              0.2565  Tot=              2.2617
 Quadrupole moment (field-independent basis, Debye-Ang):
   XX=           -132.3228   YY=           -124.3001   ZZ=            -88.0403
   XY=            -18.9321   XZ=             -6.2310   YZ=             -3.8563

  Exact polarizability: 224.440 -11.226 196.284  15.090   2.980  96.588
 Approx polarizability: 358.306  -8.746 336.220  25.922   7.331 142.659

                      1                      2                      3
                      A                      A                      A
 Frequencies --     96.5680               123.8369               178.8719
 Red. masses --      9.3541                 6.8376                 5.1865
 Frc consts  --      0.0514                 0.0618                 0.0978
 IR Inten    --      4.8097                 1.2362                 0.2036

                      4                      5                      6
                      A                      A                      A
 Frequencies --    246.2433               298.8956               354.3848
 Red. masses --      5.0118                 7.7693                 7.7860
 Frc consts  --      0.1790                 0.4089                 0.5761
 IR Inten    --      0.8104                18.0613                 0.1267

                      7                      8                      9
                      A                      A                      A
 Frequencies --    370.9241               412.6051               458.6910
 Red. masses --      7.7103                10.4702                 3.8973
 Frc consts  --      0.6250                 1.0502                 0.4831
 IR Inten    --     23.0805                 0.4471                 0.1226

                     10                     11                     12
                      A                      A                      A
 Frequencies --    463.4380               490.5411               524.8221
 Red. masses --      9.3672                 7.3755                 3.1230
 Frc consts  --      1.1853                 1.0457                 0.5068
 IR Inten    --      0.3172                 0.6580                 0.0042

                     13                     14                     15
                      A                      A                      A
 Frequencies --    533.3084               607.8593               619.2322
 Red. masses --      7.5292                 4.0447                 4.4746
 Frc consts  --      1.2617                 0.8805                 1.0109
 IR Inten    --      4.4838                 2.7151                 1.8758

                     16                     17                     18
                      A                      A                      A
 Frequencies --    651.0702               685.7227               712.3479
 Red. masses --      7.5041                 1.7926                 1.5205
 Frc consts  --      1.8742                 0.4966                 0.4546
 IR Inten    --     23.9780                30.3128                46.4336

                     19                     20                     21
                      A                      A                      A
 Frequencies --    751.0030               769.5784               785.7747
 Red. masses --      7.1665                 1.6786                 5.3267
 Frc consts  --      2.3815                 0.5857                 1.9378
 IR Inten    --     70.1327                48.7062                 4.2109

                     22                     23                     24
                      A                      A                      A
 Frequencies --    787.7054               803.7047               827.4388
 Red. masses --      3.1614                 2.8352                 1.3737
 Frc consts  --      1.1557                 1.0790                 0.5541
 IR Inten    --      1.6120                10.1420                 3.2462

                     25                     26                     27
                      A                      A                      A
 Frequencies --    894.3414               955.6162               960.9528
 Red. masses --      1.2129                 5.6821                 1.0503
 Frc consts  --      0.5716                 3.0572                 0.5714
 IR Inten    --      2.1406                80.9972                65.9324

                     28                     29                     30
                      A                      A                      A
 Frequencies --   1026.4958              1061.7063              1121.5184
 Red. masses --      3.2758                 1.6032                 1.8098
 Frc consts  --      2.0336                 1.0647                 1.3412
 IR Inten    --     75.0165                11.0942                19.4670

                     31                     32                     33
                      A                      A                      A
 Frequencies --   1144.6289              1160.1248              1210.7555
 Red. masses --      1.2390                 1.9529                 5.0067
 Frc consts  --      0.9564                 1.5486                 4.3243
 IR Inten    --     36.4054                27.2280                77.7272

                     34                     35                     36
                      A                      A                      A
 Frequencies --   1265.6233              1283.5573              1322.4258
 Red. masses --      3.6901                 2.0697                 4.7903
 Frc consts  --      3.4826                 2.0090                 4.9357
 IR Inten    --     19.0015               244.7905                20.1937

                     37                     38                     39
                      A                      A                      A
 Frequencies --   1342.0800              1373.7088              1416.4467
 Red. masses --      5.0373                 3.6610                 3.4338
 Frc consts  --      5.3457                 4.0704                 4.0591
 IR Inten    --      4.6474                 6.8527                33.4316

                     40                     41                     42
                      A                      A                      A
 Frequencies --   1441.2212              1489.5714              1535.5040
 Red. masses --      4.1337                 3.5745                 3.1407
 Frc consts  --      5.0589                 4.6729                 4.3630
 IR Inten    --    455.4991               745.5010               190.7674

                     43                     44                     45
                      A                      A                      A
 Frequencies --   1574.8400              1591.1545              1657.7795
 Red. masses --      5.4023                 4.8521                 1.9242
 Frc consts  --      7.8942                 7.2377                 3.1156
 IR Inten    --      6.0442                25.4405                32.4623

                     46                     47                     48
                      A                      A                      A
 Frequencies --   2849.1229              3059.9262              3083.1679
 Red. masses --      1.0759                 1.0843                 1.0837
 Frc consts  --      5.1456                 5.9816                 6.0692
 IR Inten    --    615.4744                96.1838                73.2772

                     49                     50                     51
                      A                      A                      A
 Frequencies --   3109.9579              3114.2175              3167.7254
 Red. masses --      1.0914                 1.0897                 1.0900
 Frc consts  --      6.2191                 6.2264                 6.4441
 IR Inten    --    177.8194                81.8003                27.8996

 - Thermochemistry -
 -------------------
 Temperature   298.150 Kelvin.  Pressure   1.00000 Atm.
 Atom     1 has atomic number  8 and mass  15.99491

 Molecular mass:   174.03169 amu.
 Principal axes and moments of inertia in atomic units:
                           1         2         3
     Eigenvalues --  1566.566732010.212273576.77898
           X            0.90146  -0.41615  -0.11907
           Y            0.41416   0.90922  -0.04218
           Z            0.12582  -0.01129   0.99199
 This molecule is an asymmetric top.
 Rotational symmetry number  1.
 Warning -- assumption of classical behavior for rotation
           may cause significant error
 Rotational temperatures (Kelvin)      0.05529     0.04309     0.02422
 Rotational constants (GHZ):           1.15204     0.89779     0.50457
 Zero-point vibrational energy     345533.8 (Joules/Mol)
                                   82.58456 (Kcal/Mol)
 Warning -- explicit consideration of  15 degrees of freedom as
           vibrations may cause significant error
 Vibrational temperatures:    138.94   178.17   257.36   354.29   430.04
          (Kelvin)            509.88   533.68   593.65   659.95   666.78
                              705.78   755.10   767.31   874.57   890.94
                              936.74   986.60  1024.91  1080.53  1107.25
                             1130.55  1133.33  1156.35  1190.50  1286.76
                             1374.92  1382.60  1476.90  1527.56  1613.61
                             1646.87  1669.16  1742.01  1820.95  1846.75
                             1902.68  1930.95  1976.46  2037.95  2073.60
                             2143.16  2209.25  2265.84  2289.32  2385.17
                             4099.25  4402.55  4435.99  4474.54  4480.66
                             4557.65

 Zero-point correction=                           0.131607 (Hartree/Particle)
 Thermal correction to Energy=                    0.141046
 Thermal correction to Enthalpy=                  0.141991
 Thermal correction to Gibbs Free Energy=         0.096923
 Sum of electronic and zero-point Energies=           -610.383628
 Sum of electronic and thermal Energies=              -610.374188
 Sum of electronic and thermal Enthalpies=            -610.373244
 Sum of electronic and thermal Free Energies=         -610.418312

                     E (Thermal)             CV                S
                      KCal/Mol        Cal/Mol-Kelvin    Cal/Mol-Kelvin
 Total                   88.508             38.794             94.853
 Electronic               0.000              0.000              0.000
 Translational            0.889              2.981             41.370
 Rotational               0.889              2.981             30.800
 Vibrational             86.731             32.832             22.684
 Vibration     1          0.603              1.952              3.522
 Vibration     2          0.610              1.929              3.040
 Vibration     3          0.629              1.868              2.340
 Vibration     4          0.661              1.769              1.757
 Vibration     5          0.692              1.676              1.423
 Vibration     6          0.730              1.566              1.147
 Vibration     7          0.743              1.532              1.076
 Vibration     8          0.776              1.443              0.917
 Vibration     9          0.817              1.342              0.770
 Vibration    10          0.821              1.331              0.756
 Vibration    11          0.846              1.271              0.682
 Vibration    12          0.880              1.195              0.599
 Vibration    13          0.888              1.176              0.580
 Vibration    14          0.967              1.015              0.436
 Vibration    15          0.979              0.991              0.418

 Optimization completed.
    -- Stationary point found.
 Normal termination of Gaussian 16 at Mon Jan  8 01:58:15 2024.
