 Gaussian 16, Revision A.03,
 Gaussian 16:  ES64L-G16RevA.03 25-Dec-2016

 ----------------------------------------------------------------
 #P UB3LYP/6-311++G(d,p) SCRF=(PCM,Solvent=n,n-DiMethylFormamide)
 ----------------------------------------------------------------

 -------
 Reduced
 -------
 Symbolic Z-matrix:
 Charge = -2 Multiplicity = 1

                         Standard orientation:
 ---------------------------------------------------------------------
 Center     Atomic      Atomic             Coordinates (Angstroms)
 Number     Number       Type             X           Y           Z
 ---------------------------------------------------------------------
      1          8           0       -2.787865   -0.649987    0.000064
      2          6           0       -1.808168    0.215805   -0.000099
      3          6           0       -2.031770    1.608498    0.000133
      4          6           0       -0.961560    2.528110    0.000124
      5          6           0        0.354341    2.103682   -0.000084
      6          6           0        0.661383    0.717054   -0.000195
      7          6           0        2.075564    0.295357    0.000035
      8          8           0        3.038012    1.152704   -0.000054
      9          6           0        2.271006   -1.107912    0.000119
     10          6           0        1.205281   -2.038123    0.000156
     11          6           0       -0.114974   -1.632393   -0.000008
     12          8           0       -1.138457   -2.566948   -0.000033
     13          6           0       -0.413626   -0.234644   -0.000237
     14          1           0       -1.970624   -1.988640   -0.000460
     15          1           0       -3.065403    1.949957    0.000263
     16          1           0       -1.183729    3.597281    0.000261
     17          1           0        1.188122    2.796895   -0.000013
     18          1           0        3.299933   -1.466121    0.000233
     19          1           0        1.413320   -3.108134    0.000242
 ---------------------------------------------------------------------

 SCF Done:  E(UB3LYP) =  -610.787130797     A.U. after   16 cycles

 The electronic state is 1-A.
 Alpha  occ. eigenvalues --  -19.09424 -19.04589 -19.02118 -10.19587 -10.18502
 Alpha  occ. eigenvalues --  -10.17884 -10.14625 -10.14373 -10.14036 -10.13457
 Alpha  occ. eigenvalues --  -10.12850 -10.12770 -10.12294  -1.00640  -0.95204
 Alpha  occ. eigenvalues --   -0.93610  -0.81432  -0.77153  -0.70412  -0.69674
 Alpha  occ. eigenvalues --   -0.65322  -0.58824  -0.57404  -0.52774  -0.48785
 Alpha  occ. eigenvalues --   -0.46952  -0.45777  -0.43836  -0.40511  -0.38938
 Alpha  occ. eigenvalues --   -0.38765  -0.38285  -0.36755  -0.35362  -0.34969
 Alpha  occ. eigenvalues --   -0.33871  -0.33670  -0.31849  -0.30816  -0.28299
 Alpha  occ. eigenvalues --   -0.25087  -0.22206  -0.21758  -0.19664  -0.18065
 Alpha  occ. eigenvalues --   -0.12864
 Alpha virt. eigenvalues --    0.00401   0.00860   0.01214   0.01345   0.01803
 Alpha virt. eigenvalues --    0.03101   0.03534   0.05285   0.05668   0.05910
 Alpha virt. eigenvalues --    0.07044   0.07129   0.08304   0.08753   0.09468

  Beta  occ. eigenvalues --  -19.09424 -19.04589 -19.02118 -10.19587 -10.18502
  Beta  occ. eigenvalues --  -10.17884 -10.14625 -10.14373 -10.14036 -10.13457
  Beta  occ. eigenvalues --  -10.12850 -10.12770 -10.12294  -1.00640  -0.95204
  Beta  occ. eigenvalues --   -0.93610  -0.81432  -0.77153  -0.70412  -0.69674
  Beta  occ. eigenvalues --   -0.65322  -0.58824  -0.57404  -0.52774  -0.48785
  Beta  occ. eigenvalues --   -0.46952  -0.45777  -0.43836  -0.40511  -0.38938
  Beta  occ. eigenvalues --   -0.38765  -0.38285  -0.36755  -0.35362  -0.34969
  Beta  occ. eigenvalues --   -0.33871  -0.33670  -0.31849  -0.30816  -0.28299
  Beta  occ. eigenvalues --   -0.25087  -0.22206  -0.21758  -0.19664  -0.18065
  Beta  occ. eigenvalues --   -0.12864
  Beta virt. eigenvalues --    0.00401   0.00860   0.01214   0.01345   0.01803
  Beta virt. eigenvalues --    0.03101   0.03534   0.05285   0.05668   0.05910
  Beta virt. eigenvalues --    0.07044   0.07129   0.08304   0.08753   0.09468

 Mulliken charges and spin densities:
               1          2
     1  O   -0.651981  -0.000000
     2  C   -0.304937   0.000000
     3  C   -0.288370   0.000000
     4  C   -0.344448  -0.000000
     5  C   -0.213731   0.000000
     6  C    0.384869  -0.000000
     7  C   -0.504578   0.000000
     8  O   -0.687570  -0.000000
     9  C   -0.102615  -0.000000
    10  C   -0.107556   0.000000
    11  C   -0.273532   0.000000
    12  O   -0.492446  -0.000000
    13  C    0.513202  -0.000000
    14  H    0.355954   0.000000
    15  H    0.141300   0.000000
    16  H    0.154788  -0.000000
    17  H    0.136486  -0.000000
    18  H    0.132878   0.000000
    19  H    0.152287  -0.000000
 Sum of Mulliken charges =  -2.00000   0.00000

 Dipole moment (field-independent basis, Debye):
    X=             -2.7249    Y=              0.3320    Z=             -0.0005  Tot=              2.7450
 Quadrupole moment (field-independent basis, Debye-Ang):
   XX=           -142.5732   YY=           -105.2730   ZZ=            -86.3607
   XY=            -18.4106   XZ=              0.0028   YZ=              0.0026

 Normal termination of Gaussian 16 at Sun Jan 21 09:02:15 2024.
