 Gaussian 16, Revision A.03,
 Gaussian 16:  ES64L-G16RevA.03 25-Dec-2016

 ----------------------------------------------------------------
 #P UB3LYP/6-311++G(d,p) SCRF=(PCM,Solvent=n,n-DiMethylFormamide)
 ----------------------------------------------------------------

 ------------------
 Radical PCM in DMF
 ------------------
 Symbolic Z-matrix:
 Charge = -1 Multiplicity = 2

                         Standard orientation:
 ---------------------------------------------------------------------
 Center     Atomic      Atomic             Coordinates (Angstroms)
 Number     Number       Type             X           Y           Z
 ---------------------------------------------------------------------
      1          6           0        0.723778    1.280659   -0.001290
      2          6           0       -0.749346    1.203181   -0.020525
      3          6           0       -1.394295   -0.015307   -0.004237
      4          6           0       -0.723853   -1.280611    0.001233
      5          6           0        0.749366   -1.203164    0.020172
      6          6           0        1.394283    0.015368    0.003890
      7          8           0       -1.277830   -2.410978   -0.024125
      8          8           0        1.277861    2.410952    0.024561
      9         35           0        3.329085    0.056993   -0.003616
     10         35           0       -3.329049   -0.057067    0.003728
     11          7           0        1.378766   -2.430406    0.086296
     12          7           0       -1.379168    2.430732   -0.087292
     13          1           0        0.743477   -3.187284   -0.139876
     14          1           0        2.313117   -2.482739   -0.289890
     15          1           0       -0.743193    3.186862    0.140171
     16          1           0       -2.311688    2.482896    0.293700
 ---------------------------------------------------------------------

 SCF Done:  E(UB3LYP) =  -5639.58441531     A.U. after   18 cycles

 The electronic state is 2-A.
 Alpha  occ. eigenvalues -- -482.82613-482.82613 -62.47888 -62.47888 -56.29907
 Alpha  occ. eigenvalues --  -56.29907 -56.29548 -56.29548 -56.29534 -56.29533
 Alpha  occ. eigenvalues --  -19.08354 -19.08351 -14.32233 -14.32226 -10.23585
 Alpha  occ. eigenvalues --  -10.23584 -10.22125 -10.22118 -10.20820 -10.20816
 Alpha  occ. eigenvalues --   -8.68850  -8.68849  -6.51928  -6.51928  -6.50736
 Alpha  occ. eigenvalues --   -6.50735  -6.50700  -6.50700  -2.63031  -2.63031
 Alpha  occ. eigenvalues --   -2.62692  -2.62692  -2.62668  -2.62667  -2.61720
 Alpha  occ. eigenvalues --   -2.61720  -2.61719  -2.61718  -1.01567  -1.01180
 Alpha  occ. eigenvalues --   -0.92254  -0.92081  -0.83114  -0.80603  -0.76997
 Alpha  occ. eigenvalues --   -0.70260  -0.68184  -0.59761  -0.58735  -0.55735
 Alpha  occ. eigenvalues --   -0.49298  -0.49180  -0.48933  -0.44840  -0.43691
 Alpha  occ. eigenvalues --   -0.41977  -0.41383  -0.40306  -0.39293  -0.37058
 Alpha  occ. eigenvalues --   -0.36049  -0.32987  -0.30765  -0.30071  -0.29247
 Alpha  occ. eigenvalues --   -0.29215  -0.26048  -0.25234  -0.25036  -0.21021
 Alpha  occ. eigenvalues --   -0.15582
 Alpha virt. eigenvalues --   -0.01851  -0.00978   0.00416   0.00590   0.01085
 Alpha virt. eigenvalues --    0.02142   0.02733   0.03258   0.03983   0.04078
 Alpha virt. eigenvalues --    0.05036   0.05216   0.06216   0.07306   0.07395

  Beta  occ. eigenvalues -- -482.82614-482.82614 -62.47889 -62.47889 -56.29907
  Beta  occ. eigenvalues --  -56.29907 -56.29550 -56.29549 -56.29534 -56.29534
  Beta  occ. eigenvalues --  -19.07813 -19.07812 -14.32089 -14.32082 -10.23379
  Beta  occ. eigenvalues --  -10.23378 -10.21875 -10.21867 -10.20902 -10.20898
  Beta  occ. eigenvalues --   -8.68851  -8.68850  -6.51929  -6.51928  -6.50738
  Beta  occ. eigenvalues --   -6.50738  -6.50701  -6.50701  -2.63032  -2.63032
  Beta  occ. eigenvalues --   -2.62694  -2.62694  -2.62668  -2.62668  -2.61722
  Beta  occ. eigenvalues --   -2.61721  -2.61720  -2.61720  -1.00654  -1.00232
  Beta  occ. eigenvalues --   -0.91810  -0.91720  -0.82852  -0.80569  -0.76737
  Beta  occ. eigenvalues --   -0.69937  -0.67278  -0.59408  -0.58345  -0.55571
  Beta  occ. eigenvalues --   -0.49018  -0.48988  -0.48640  -0.44588  -0.42263
  Beta  occ. eigenvalues --   -0.41381  -0.40975  -0.40220  -0.37134  -0.36555
  Beta  occ. eigenvalues --   -0.35558  -0.31001  -0.30507  -0.29498  -0.29232
  Beta  occ. eigenvalues --   -0.29017  -0.25537  -0.24734  -0.23272  -0.20436
  Beta virt. eigenvalues --   -0.08747  -0.01825  -0.00998   0.00601   0.01032
  Beta virt. eigenvalues --    0.01871   0.02180   0.03280   0.03952   0.04103
  Beta virt. eigenvalues --    0.05075   0.05234   0.05495   0.06222   0.07318

 Mulliken charges and spin densities:
               1          2
     1  C   -0.607811   0.136132
     2  C   -0.945573   0.156762
     3  C    1.429545  -0.055546
     4  C   -0.609346   0.136327
     5  C   -0.950874   0.156037
     6  C    1.435278  -0.055420
     7  O   -0.479406   0.196312
     8  O   -0.479364   0.196127
     9  Br  -0.152397  -0.001237
    10  Br  -0.152361  -0.001224
    11  N   -0.285070   0.070152
    12  N   -0.285437   0.069797
    13  H    0.284917  -0.002162
    14  H    0.256583   0.000013
    15  H    0.284844  -0.002138
    16  H    0.256473   0.000070
 Sum of Mulliken charges =  -1.00000   1.00000

 Dipole moment (field-independent basis, Debye):
    X=              0.0080    Y=             -0.0119    Z=              0.0090  Tot=              0.0169
 Quadrupole moment (field-independent basis, Debye-Ang):
   XX=           -116.8853   YY=           -115.1647   ZZ=           -100.5083
   XY=            -21.7195   XZ=             -4.1677   YZ=              5.8325

 Normal termination of Gaussian 16 at Sun Jan 21 07:12:04 2024.
