 Q-Chem 5.4, Q-Chem, Inc., Pleasanton, CA (2021)
 Q-Chem 5.4.0 for Intel X86 EM64T Linux

User input:
--------------------------------------------------------------
$molecule
-1 2
N                 -3.3412030000     -0.8993340000      0.0762850000
C                 -2.0839070000     -0.2919340000      0.1265110000
C                 -1.9141430000      1.0499070000      0.4152710000
C                 -0.6354350000      1.6947220000      0.4301780000
O                 -0.4875900000      2.9158240000      0.6992780000
C                  0.5226280000      0.8329680000      0.0997720000
C                  1.8160470000      1.3815470000      0.0774820000
C                  2.9219990000      0.6023250000     -0.2227990000
C                  2.7540130000     -0.7669370000     -0.5103480000
C                  1.4903430000     -1.3287870000     -0.4938080000
C                  0.3511320000     -0.5502630000     -0.1934070000
C                 -0.9683130000     -1.1703870000     -0.1745980000
O                 -1.1630430000     -2.4065400000     -0.3892370000
H                 -4.0192760000     -0.5471400000      0.7359500000
H                 -3.2472860000     -1.9100910000      0.0756710000
H                 -2.7765780000      1.6749780000      0.6341950000
H                  1.9112590000      2.4374360000      0.3057630000
H                  3.9145700000      1.0433160000     -0.2360370000
H                  3.6185120000     -1.3816740000     -0.7456490000
H                  1.3362710000     -2.3799370000     -0.7104740000
$end
$rem
MAX_SCF_CYCLES=200
BASIS  =  6-311++G(d,p)
GUI  =  2
JOB_TYPE  =  SP
METHOD  =  B3LYP
SOLVENT_METHOD = COSMO
$end
$solvent
dielectric 37.219
opticaldielectric 1.43
$end

--------------------------------------------------------------

             Standard Nuclear Orientation (Angstroms)
    I     Atom           X                Y                Z
 ----------------------------------------------------------------
    1      N       3.3464077957    -0.3614477266     0.0834752675
    2      C       2.0038521663     0.0211802297     0.0252440762
    3      C       1.6048328086     1.3453449367     0.0147177467
    4      C       0.2317487232     1.7520485183    -0.0035864441
    5      O      -0.1244124658     2.9596445020    -0.0185596182
    6      C      -0.7633484022     0.6553984622     0.0026069978
    7      C      -2.1353156840     0.9588017510    -0.0019421837
    8      C      -3.0928110739    -0.0430404210    -0.0014212687
    9      C      -2.6902744365    -1.3934980467     0.0018352457
   10      C      -1.3453489492    -1.7159428089     0.0057940128
   11      C      -0.3551363718    -0.7091595092     0.0087130962
   12      C       1.0555747464    -1.0775560676     0.0041547481
   13      O       1.4643491273    -2.2790885064    -0.0317230543
   14      H       3.9907667848     0.2426524440    -0.4052434616
   15      H       3.4450613000    -1.3458690530    -0.1437528805
   16      H       2.3471350143     2.1397594961     0.0328435627
   17      H      -2.4116399069     2.0074669611    -0.0069741874
   18      H      -4.1491619404     0.2098621289    -0.0043612959
   19      H      -3.4377056764    -2.1821507858     0.0015910464
   20      H      -1.0114445991    -2.7474973370     0.0071355612
 ----------------------------------------------------------------

   10    -590.7141223447      9.17e-06  Convergence criterion met
 Total energy in the final basis set =     -590.7141223447
    5    -590.8042451245      6.37e-06  Convergence criterion met
 Total energy in the final basis set =     -590.8042451245

                    Orbital Energies (a.u.)
 --------------------------------------------------------------

 Alpha MOs
 -- Occupied --
-19.0820 -19.0747 -14.3106 -10.2243 -10.2207 -10.2068 -10.1736 -10.1716
-10.1710 -10.1699 -10.1685 -10.1683 -10.1511  -1.0058  -0.9997  -0.9059
 -0.8561  -0.7900  -0.7494  -0.7293  -0.6729  -0.6168  -0.6068  -0.5605
 -0.5314  -0.5079  -0.4776  -0.4727  -0.4471  -0.4303  -0.4236  -0.4189
 -0.4136  -0.4045  -0.3861  -0.3818  -0.3583  -0.3515  -0.3366  -0.3244
 -0.2645  -0.2569  -0.2530  -0.2413  -0.2228  -0.1507

 Beta MOs
 -- Occupied --
-19.0755 -19.0700 -14.3099 -10.2231 -10.2179 -10.2053 -10.1734 -10.1709
-10.1705 -10.1691 -10.1685 -10.1680 -10.1507  -0.9947  -0.9909  -0.9030
 -0.8541  -0.7857  -0.7473  -0.7276  -0.6633  -0.6151  -0.6039  -0.5579
 -0.5300  -0.5052  -0.4755  -0.4698  -0.4464  -0.4271  -0.4195  -0.4109
 -0.4056  -0.4018  -0.3834  -0.3607  -0.3516  -0.3487  -0.3354  -0.3084
 -0.2501  -0.2478  -0.2471  -0.2366  -0.2137

          Ground-State Mulliken Net Atomic Charges

     Atom                 Charge (a.u.)    Spin (a.u.)
  --------------------------------------------------------
      1 N                    -0.417812       0.036427
      2 C                    -0.004034       0.086288
      3 C                     0.453881       0.023210
      4 C                    -0.525396       0.069619
      5 O                    -0.549824       0.166206
      6 C                     0.192709       0.069518
      7 C                     0.164804      -0.002153
      8 C                    -0.424906       0.070450
      9 C                    -0.407618      -0.003843
     10 C                     0.088373       0.080666
     11 C                     0.240799      -0.016348
     12 C                    -0.789741       0.194903
     13 O                    -0.544407       0.240308
     14 H                     0.282753       0.001049
     15 H                     0.294713      -0.001879
     16 H                     0.191512      -0.004675
     17 H                     0.173050       0.000033
     18 H                     0.202381      -0.004859
     19 H                     0.204870      -0.000605
     20 H                     0.173893      -0.004313
  --------------------------------------------------------
  Sum of atomic charges =    -1.000000

                    Cartesian Multipole Moments
 -----------------------------------------------------------------
    Charge (ESU x 10^10)
                -4.8032
    Dipole Moment (Debye)
         X      -1.5358      Y      -2.5073      Z      -1.2311
       Tot       3.1876
    Quadrupole Moments (Debye-Ang)
        XX     -72.0808     XY       9.9345     YY    -113.9674
        XZ      -5.3175     YZ       0.2402     ZZ     -82.3810

 Total job time:  44.84s(wall), 321.93s(cpu)
        *  Thank you very much for using Q-Chem.  Have a nice day.  *
