 Gaussian 16, Revision A.03,
 Gaussian 16:  ES64L-G16RevA.03 25-Dec-2016

 --------------------------------------
 #P UB3LYP/6-311++G(d,p) nosym opt freq
 --------------------------------------

 --------
 Oxidized
 --------
 Symbolic Z-matrix:
 Charge =  0 Multiplicity = 1

 SCF Done:  E(UB3LYP) =  -1203.89609429     A.U. after   17 cycles
 SCF Done:  E(UB3LYP) =  -1203.90140786     A.U. after   18 cycles
 SCF Done:  E(UB3LYP) =  -1203.90248665     A.U. after   18 cycles
 SCF Done:  E(UB3LYP) =  -1203.90287666     A.U. after   18 cycles
 SCF Done:  E(UB3LYP) =  -1203.90327844     A.U. after   17 cycles
 SCF Done:  E(UB3LYP) =  -1203.90346186     A.U. after   14 cycles
 SCF Done:  E(UB3LYP) =  -1203.90357126     A.U. after   17 cycles
 SCF Done:  E(UB3LYP) =  -1203.90363834     A.U. after   15 cycles
 SCF Done:  E(UB3LYP) =  -1203.90364911     A.U. after   13 cycles
 SCF Done:  E(UB3LYP) =  -1203.90364931     A.U. after   12 cycles
 SCF Done:  E(UB3LYP) =  -1203.90361219     A.U. after   14 cycles
 SCF Done:  E(UB3LYP) =  -1203.90367893     A.U. after   13 cycles
 SCF Done:  E(UB3LYP) =  -1203.90369544     A.U. after   16 cycles
 SCF Done:  E(UB3LYP) =  -1203.90370466     A.U. after   16 cycles
 SCF Done:  E(UB3LYP) =  -1203.90371793     A.U. after   13 cycles
 SCF Done:  E(UB3LYP) =  -1203.90371871     A.U. after   12 cycles
 SCF Done:  E(UB3LYP) =  -1203.90371899     A.U. after   12 cycles
 SCF Done:  E(UB3LYP) =  -1203.90371921     A.U. after   10 cycles
 SCF Done:  E(UB3LYP) =  -1203.90371923     A.U. after   11 cycles
 Optimization completed.
    -- Stationary point found.
 Normal termination of Gaussian 16 at Thu Dec 28 22:07:55 2023.

 ----------------------------------------------------------------------
 #P Geom=AllCheck Guess=TCheck SCRF=Check GenChk UB3LYP/6-311++G(d,p) F
 req
 ----------------------------------------------------------------------

 Structure from the checkpoint file:  "313.chk"
 --------
 Oxidized
 --------
 Charge =  0 Multiplicity = 1

                          Input orientation:
 ---------------------------------------------------------------------
 Center     Atomic      Atomic             Coordinates (Angstroms)
 Number     Number       Type             X           Y           Z
 ---------------------------------------------------------------------
      1          6           0       -4.227105   -1.303938   -0.177540
      2          6           0       -3.908096   -1.788913   -1.441564
      3          6           0       -3.102389   -1.036663   -2.299913
      4          6           0       -3.735983   -0.063809    0.239873
      5          6           0       -2.925224    0.690796   -0.623532
      6          6           0       -2.613466    0.200486   -1.893211
      7          6           0       -4.114105    0.446886    1.592933
      8          6           0       -3.465744    1.731282    2.043118
      9          6           0       -2.694909    2.443244    1.192631
     10          6           0       -2.392776    2.012309   -0.185428
     11         16           0       -3.879212    2.424447    3.622668
     12          6           0       -3.695495    1.044774    4.762989
     13          6           0       -4.749203    0.741512    5.622661
     14          6           0       -2.482948    0.357867    4.859147
     15          6           0       -2.314464   -0.665408    5.795041
     16          6           0       -4.578001   -0.259736    6.576218
     17          6           0       -3.377384   -0.959230    6.657879
     18          6           0       -1.019365   -1.437816    5.871834
     19          8           0       -4.925049   -0.133141    2.286086
     20          8           0       -1.704055    2.709441   -0.915843
     21          1           0       -4.856970   -1.868387    0.498825
     22          1           0       -4.289179   -2.751983   -1.761589
     23          1           0       -2.858188   -1.416784   -3.285327
     24          1           0       -1.989344    0.802420   -2.542337
     25          1           0       -2.241271    3.381163    1.493602
     26          1           0       -5.691485    1.267734    5.535024
     27          1           0       -1.660756    0.625817    4.204461
     28          1           0       -5.391716   -0.501686    7.250740
     29          1           0       -3.260926   -1.740851    7.401701
     30          1           0       -0.204930   -0.901574    5.380475
     31          1           0       -1.116198   -2.412835    5.382416
     32          1           0       -0.727261   -1.621611    6.908873
 ---------------------------------------------------------------------

 SCF Done:  E(UB3LYP) =  -1203.90371923     A.U. after    1 cycles

 Alpha  occ. eigenvalues --  -88.87309 -19.13716 -19.13040 -10.28996 -10.28070
 Alpha  occ. eigenvalues --  -10.24553 -10.21772 -10.21355 -10.21207 -10.21162
 Alpha  occ. eigenvalues --  -10.20560 -10.20504 -10.20342 -10.20249 -10.19648
 Alpha  occ. eigenvalues --  -10.18649 -10.18588 -10.18511 -10.18267 -10.17726
 Alpha  occ. eigenvalues --   -7.95899  -5.92297  -5.91895  -5.91294  -1.07258
 Alpha  occ. eigenvalues --   -1.06171  -0.89623  -0.88080  -0.85695  -0.80738
 Alpha  occ. eigenvalues --   -0.78568  -0.78351  -0.77167  -0.72770  -0.70061
 Alpha  occ. eigenvalues --   -0.69132  -0.65491  -0.63806  -0.61297  -0.59763
 Alpha  occ. eigenvalues --   -0.58252  -0.54895  -0.53548  -0.52041  -0.50170
 Alpha  occ. eigenvalues --   -0.48749  -0.48061  -0.46536  -0.46145  -0.45662
 Alpha  occ. eigenvalues --   -0.45555  -0.44938  -0.43485  -0.43278  -0.42973
 Alpha  occ. eigenvalues --   -0.42388  -0.41892  -0.39952  -0.39790  -0.38750
 Alpha  occ. eigenvalues --   -0.38182  -0.37612  -0.36799  -0.35829  -0.34930
 Alpha  occ. eigenvalues --   -0.31931  -0.29079  -0.28822  -0.28327  -0.28282
 Alpha  occ. eigenvalues --   -0.26968  -0.25911  -0.23817
 Alpha virt. eigenvalues --   -0.12790  -0.06156  -0.04443  -0.03521  -0.02180
 Alpha virt. eigenvalues --   -0.01232  -0.00703   0.00296   0.00742   0.01202
 Alpha virt. eigenvalues --    0.01239   0.02142   0.02190   0.02572   0.03184

  Beta  occ. eigenvalues --  -88.87309 -19.13716 -19.13040 -10.28996 -10.28070
  Beta  occ. eigenvalues --  -10.24553 -10.21772 -10.21355 -10.21207 -10.21162
  Beta  occ. eigenvalues --  -10.20560 -10.20504 -10.20342 -10.20249 -10.19648
  Beta  occ. eigenvalues --  -10.18649 -10.18588 -10.18511 -10.18267 -10.17726
  Beta  occ. eigenvalues --   -7.95899  -5.92297  -5.91895  -5.91294  -1.07258
  Beta  occ. eigenvalues --   -1.06171  -0.89623  -0.88080  -0.85695  -0.80738
  Beta  occ. eigenvalues --   -0.78568  -0.78351  -0.77167  -0.72770  -0.70061
  Beta  occ. eigenvalues --   -0.69132  -0.65491  -0.63806  -0.61297  -0.59763
  Beta  occ. eigenvalues --   -0.58252  -0.54895  -0.53548  -0.52041  -0.50170
  Beta  occ. eigenvalues --   -0.48749  -0.48061  -0.46536  -0.46145  -0.45662
  Beta  occ. eigenvalues --   -0.45555  -0.44938  -0.43485  -0.43278  -0.42973
  Beta  occ. eigenvalues --   -0.42388  -0.41892  -0.39952  -0.39790  -0.38750
  Beta  occ. eigenvalues --   -0.38182  -0.37612  -0.36799  -0.35829  -0.34930
  Beta  occ. eigenvalues --   -0.31931  -0.29079  -0.28822  -0.28327  -0.28282
  Beta  occ. eigenvalues --   -0.26968  -0.25911  -0.23817
  Beta virt. eigenvalues --   -0.12790  -0.06156  -0.04443  -0.03521  -0.02180
  Beta virt. eigenvalues --   -0.01232  -0.00703   0.00296   0.00742   0.01202
  Beta virt. eigenvalues --    0.01239   0.02142   0.02190   0.02572   0.03184

 Mulliken charges and spin densities:
               1          2
     1  C    0.147372  -0.000000
     2  C   -0.286498  -0.000000
     3  C   -0.330213   0.000000
     4  C    0.133163   0.000000
     5  C    0.504949  -0.000000
     6  C    0.112033  -0.000000
     7  C   -1.035275   0.000000
     8  C    0.818620  -0.000000
     9  C    0.047001  -0.000000
    10  C   -0.614825   0.000000
    11  S   -0.411198   0.000000
    12  C    0.671773   0.000000
    13  C    0.049502  -0.000000
    14  C   -0.774759   0.000000
    15  C    0.294406  -0.000000
    16  C   -0.328232  -0.000000
    17  C   -0.273115   0.000000
    18  C   -0.538424   0.000000
    19  O   -0.137714  -0.000000
    20  O   -0.229811  -0.000000
    21  H    0.197212   0.000000
    22  H    0.177505  -0.000000
    23  H    0.179670  -0.000000
    24  H    0.187822   0.000000
    25  H    0.248069  -0.000000
    26  H    0.190103  -0.000000
    27  H    0.197827  -0.000000
    28  H    0.172578  -0.000000
    29  H    0.156528   0.000000
    30  H    0.153987   0.000000
    31  H    0.178028  -0.000000
    32  H    0.141917   0.000000
 Sum of Mulliken charges =  -0.00000  -0.00000

 Dipole moment (field-independent basis, Debye):
    X=              0.2824    Y=             -3.3232    Z=              0.3756  Tot=              3.3563
 Quadrupole moment (field-independent basis, Debye-Ang):
   XX=           -126.8494   YY=           -125.9363   ZZ=           -109.3862
   XY=              6.3942   XZ=              3.8125   YZ=             -0.1514

  Exact polarizability: 181.804  14.465 214.832 -39.261 -15.054 305.698
 Approx polarizability: 333.031  48.662 365.172-103.409 -48.073 444.316

                      1                      2                      3
                      A                      A                      A
 Frequencies --     20.0508                24.3007                29.9718
 Red. masses --      4.0054                 6.6788                 3.9377
 Frc consts  --      0.0009                 0.0023                 0.0021
 IR Inten    --      0.1486                 0.2378                 1.3374

                      4                      5                      6
                      A                      A                      A
 Frequencies --     33.5774                64.2435               117.2015
 Red. masses --      1.1290                 7.6363                 4.7941
 Frc consts  --      0.0007                 0.0186                 0.0388
 IR Inten    --      0.7433                 3.6141                 0.1062

                      7                      8                      9
                      A                      A                      A
 Frequencies --    139.4822               161.9072               194.5056
 Red. masses --      7.0861                 5.8271                 4.8516
 Frc consts  --      0.0812                 0.0900                 0.1081
 IR Inten    --      3.6267                 0.4204                 0.4996

                     10                     11                     12
                      A                      A                      A
 Frequencies --    206.5873               220.2773               229.5802
 Red. masses --      3.6684                 4.7245                 5.3113
 Frc consts  --      0.0922                 0.1351                 0.1649
 IR Inten    --      2.9461                 0.0518                 2.5885

                     13                     14                     15
                      A                      A                      A
 Frequencies --    279.7654               316.5017               367.3962
 Red. masses --      7.4733                 8.0310                 5.5830
 Frc consts  --      0.3446                 0.4740                 0.4440
 IR Inten    --      0.6247                 0.6823                 1.1358

                     16                     17                     18
                      A                      A                      A
 Frequencies --    382.0967               391.8381               418.6438
 Red. masses --      5.4960                 5.2373                 5.0607
 Frc consts  --      0.4728                 0.4738                 0.5226
 IR Inten    --     19.0418                 5.8855                 3.2034

                     19                     20                     21
                      A                      A                      A
 Frequencies --    431.8110               453.0958               461.1322
 Red. masses --      3.5655                 3.9317                 7.9370
 Frc consts  --      0.3917                 0.4756                 0.9944
 IR Inten    --      0.7461                 5.8285                 1.7713

                     22                     23                     24
                      A                      A                      A
 Frequencies --    481.4820               498.0278               528.7746
 Red. masses --      4.4549                 8.4909                 5.0238
 Frc consts  --      0.6085                 1.2408                 0.8276
 IR Inten    --      1.3298                 0.5617                 0.9453

                     25                     26                     27
                      A                      A                      A
 Frequencies --    546.6106               619.0107               667.3359
 Red. masses --      4.3692                 7.0225                 6.0205
 Frc consts  --      0.7691                 1.5854                 1.5797
 IR Inten    --      2.4588                17.5550                 0.4673

                     28                     29                     30
                      A                      A                      A
 Frequencies --    678.3530               691.5717               702.1805
 Red. masses --      3.9349                 4.8630                 2.8382
 Frc consts  --      1.0668                 1.3703                 0.8245
 IR Inten    --      5.3131                 3.0760                26.7029

                     31                     32                     33
                      A                      A                      A
 Frequencies --    710.1139               721.7903               787.2296
 Red. masses --      4.7168                 3.9164                 2.2692
 Frc consts  --      1.4014                 1.2021                 0.8286
 IR Inten    --     16.6026                23.2591                31.8569

                     34                     35                     36
                      A                      A                      A
 Frequencies --    789.4085               803.5240               808.3144
 Red. masses --      1.4403                 2.4202                 5.2099
 Frc consts  --      0.5288                 0.9207                 2.0056
 IR Inten    --     32.4722                13.3737                 3.1851

                     37                     38                     39
                      A                      A                      A
 Frequencies --    854.2053               863.9282               889.9471
 Red. masses --      7.5303                 5.0341                 1.3441
 Frc consts  --      3.2373                 2.2138                 0.6272
 IR Inten    --     78.3601                 4.1554                 6.5542

                     40                     41                     42
                      A                      A                      A
 Frequencies --    914.6149               916.5408               919.8238
 Red. masses --      1.3579                 1.3653                 1.4695
 Frc consts  --      0.6693                 0.6758                 0.7326
 IR Inten    --      2.1395                 2.5585                11.8978

                     43                     44                     45
                      A                      A                      A
 Frequencies --    989.2485              1000.1391              1007.1588
 Red. masses --      1.3302                 1.3826                 1.8210
 Frc consts  --      0.7670                 0.8148                 1.0883
 IR Inten    --      0.0909                 0.9543                 3.9397

                     46                     47                     48
                      A                      A                      A
 Frequencies --   1016.3533              1016.8696              1044.1394
 Red. masses --      1.3215                 3.2321                 3.2789
 Frc consts  --      0.8043                 1.9691                 2.1062
 IR Inten    --      0.0353                 3.0965                10.3128

                     49                     50                     51
                      A                      A                      A
 Frequencies --   1061.3118              1077.0812              1098.8387
 Red. masses --      1.5374                 3.3406                 3.0515
 Frc consts  --      1.0203                 2.2833                 2.1709
 IR Inten    --      5.1434                25.5984                13.1649

                     52                     53                     54
                      A                      A                      A
 Frequencies --   1099.4693              1124.1039              1134.4018
 Red. masses --      2.2388                 1.5226                 1.7709
 Frc consts  --      1.5945                 1.1336                 1.3427
 IR Inten    --     13.7391                 1.8354                46.4940

                     55                     56                     57
                      A                      A                      A
 Frequencies --   1183.6301              1193.8113              1230.1607
 Red. masses --      1.1297                 1.1367                 2.7280
 Frc consts  --      0.9325                 0.9545                 2.4323
 IR Inten    --      8.6938                 0.8153                 1.0593

                     58                     59                     60
                      A                      A                      A
 Frequencies --   1233.2734              1269.4082              1306.0857
 Red. masses --      2.2888                 2.1992                 2.6536
 Frc consts  --      2.0511                 2.0879                 2.6670
 IR Inten    --     37.9668               188.6131                35.7840

                     61                     62                     63
                      A                      A                      A
 Frequencies --   1311.3742              1328.3017              1338.9316
 Red. masses --      2.6275                 2.1044                 1.8465
 Frc consts  --      2.6622                 2.1876                 1.9504
 IR Inten    --    187.9910                20.0803                 1.5757

                     64                     65                     66
                      A                      A                      A
 Frequencies --   1358.2166              1414.8444              1439.5961
 Red. masses --      7.3245                 1.2433                 2.3730
 Frc consts  --      7.9610                 1.4664                 2.8975
 IR Inten    --     10.9317                 1.5944                 1.6563

                     67                     68                     69
                      A                      A                      A
 Frequencies --   1481.5064              1488.6618              1495.5428
 Red. masses --      2.3570                 1.0523                 1.2268
 Frc consts  --      3.0480                 1.3739                 1.6167
 IR Inten    --      0.4488                 6.7573                 9.7610

                     70                     71                     72
                      A                      A                      A
 Frequencies --   1504.9422              1509.0738              1599.4924
 Red. masses --      2.5889                 2.0353                 6.7734
 Frc consts  --      3.4546                 2.7308                10.2099
 IR Inten    --     10.7348                25.7788               115.0872

                     73                     74                     75
                      A                      A                      A
 Frequencies --   1611.4676              1624.7526              1629.0133
 Red. masses --      5.5417                 7.5601                 5.8744
 Frc consts  --      8.4788                11.7586                 9.1847
 IR Inten    --      5.9814                37.6813                78.9718

                     76                     77                     78
                      A                      A                      A
 Frequencies --   1632.4930              1709.7296              1735.7524
 Red. masses --      5.8058                11.3243                12.8076
 Frc consts  --      9.1162                19.5037                22.7349
 IR Inten    --     19.8228               258.6505               204.0591

                     79                     80                     81
                      A                      A                      A
 Frequencies --   3023.2463              3076.4596              3103.0713
 Red. masses --      1.0393                 1.0965                 1.1019
 Frc consts  --      5.5967                 6.1147                 6.2511
 IR Inten    --     25.6566                17.0807                13.9655

                     82                     83                     84
                      A                      A                      A
 Frequencies --   3158.5760              3168.5930              3170.8552
 Red. masses --      1.0874                 1.0905                 1.0870
 Frc consts  --      6.3920                 6.4508                 6.4391
 IR Inten    --      6.6709                 4.5412                 3.1513

                     85                     86                     87
                      A                      A                      A
 Frequencies --   3176.9037              3182.2602              3184.9299
 Red. masses --      1.0920                 1.0917                 1.0916
 Frc consts  --      6.4934                 6.5138                 6.5237
 IR Inten    --     16.5803                 0.4489                 8.9498

                     88                     89                     90
                      A                      A                      A
 Frequencies --   3195.9743              3199.0456              3202.0795
 Red. masses --      1.0948                 1.0928                 1.0951
 Frc consts  --      6.5889                 6.5892                 6.6155
 IR Inten    --      6.0467                 0.9528                10.0689

 - Thermochemistry -
 -------------------
 Temperature   298.150 Kelvin.  Pressure   1.00000 Atm.
 Atom     1 has atomic number  6 and mass  12.00000

 Molecular mass:   280.05580 amu.
 Principal axes and moments of inertia in atomic units:
                           1         2         3
     Eigenvalues --  3144.667469642.51802**********
           X           -0.04437   0.10201   0.99379
           Y           -0.04535   0.99354  -0.10401
           Z            0.99799   0.04969   0.03946
 This molecule is an asymmetric top.
 Rotational symmetry number  1.
 Warning -- assumption of classical behavior for rotation
           may cause significant error
 Rotational temperatures (Kelvin)      0.02754     0.00898     0.00816
 Rotational constants (GHZ):           0.57391     0.18716     0.16993
 Zero-point vibrational energy     630898.1 (Joules/Mol)
                                  150.78827 (Kcal/Mol)
 Warning -- explicit consideration of  26 degrees of freedom as
           vibrations may cause significant error
 Vibrational temperatures:     28.85    34.96    43.12    48.31    92.43
          (Kelvin)            168.63   200.68   232.95   279.85   297.23
                              316.93   330.31   402.52   455.38   528.60
                              549.75   563.77   602.34   621.28   651.90
                              663.47   692.75   716.55   760.79   786.45
                              890.62   960.15   976.00   995.02  1010.28
                             1021.70  1038.50  1132.65  1135.78  1156.09
                             1162.98  1229.01  1243.00  1280.44  1315.93
                             1318.70  1323.42  1423.31  1438.98  1449.08
                             1462.31  1463.05  1502.28  1526.99  1549.68
                             1580.98  1581.89  1617.33  1632.15  1702.98
                             1717.63  1769.93  1774.41  1826.40  1879.17
                             1886.77  1911.13  1926.42  1954.17  2035.65
                             2071.26  2131.56  2141.85  2151.75  2165.28
                             2171.22  2301.31  2318.54  2337.66  2343.79
                             2348.79  2459.92  2497.36  4349.78  4426.34
                             4464.63  4544.49  4558.90  4562.15  4570.86
                             4578.56  4582.40  4598.29  4602.71  4607.08

 Zero-point correction=                           0.240296 (Hartree/Particle)
 Thermal correction to Energy=                    0.257438
 Thermal correction to Enthalpy=                  0.258383
 Thermal correction to Gibbs Free Energy=         0.192205
 Sum of electronic and zero-point Energies=          -1203.663423
 Sum of electronic and thermal Energies=             -1203.646281
 Sum of electronic and thermal Enthalpies=           -1203.645337
 Sum of electronic and thermal Free Energies=        -1203.711514

                     E (Thermal)             CV                S
                      KCal/Mol        Cal/Mol-Kelvin    Cal/Mol-Kelvin
 Total                  161.545             65.284            139.282
 Electronic               0.000              0.000              0.000
 Translational            0.889              2.981             42.788
 Rotational               0.889              2.981             34.131
 Vibrational            159.768             59.322             62.363
 Vibration     1          0.593              1.986              6.629
 Vibration     2          0.593              1.985              6.248
 Vibration     3          0.594              1.984              5.831
 Vibration     4          0.594              1.983              5.606
 Vibration     5          0.597              1.971              4.322
 Vibration     6          0.608              1.935              3.146
 Vibration     7          0.615              1.914              2.811
 Vibration     8          0.622              1.889              2.527
 Vibration     9          0.635              1.848              2.184
 Vibration    10          0.641              1.830              2.074
 Vibration    11          0.647              1.810              1.957
 Vibration    12          0.652              1.796              1.882
 Vibration    13          0.680              1.711              1.535
 Vibration    14          0.703              1.642              1.328
 Vibration    15          0.740              1.539              1.091
 Vibration    16          0.752              1.508              1.031
 Vibration    17          0.759              1.488              0.993
 Vibration    18          0.781              1.430              0.897
 Vibration    19          0.793              1.401              0.853
 Vibration    20          0.812              1.354              0.786
 Vibration    21          0.819              1.336              0.763
 Vibration    22          0.838              1.291              0.706
 Vibration    23          0.854              1.254              0.663
 Vibration    24          0.884              1.186              0.590
 Vibration    25          0.902              1.147              0.551
 Vibration    26          0.979              0.992              0.418

 Optimization completed.
    -- Stationary point found.
 Normal termination of Gaussian 16 at Thu Dec 28 23:01:12 2023.
