 Gaussian 16, Revision A.03,
 Gaussian 16:  ES64L-G16RevA.03 25-Dec-2016

 ----------------------------------------------------------------
 #P UB3LYP/6-311++G(d,p) SCRF=(PCM,Solvent=n,n-DiMethylFormamide)
 ----------------------------------------------------------------

 -------
 Reduced
 -------
 Symbolic Z-matrix:
 Charge = -2 Multiplicity = 1

                         Standard orientation:
 ---------------------------------------------------------------------
 Center     Atomic      Atomic             Coordinates (Angstroms)
 Number     Number       Type             X           Y           Z
 ---------------------------------------------------------------------
      1         17           0        2.752166   -2.419758   -0.152174
      2          6           0        2.521912   -0.640307   -0.012199
      3          6           0        3.700849    0.071546   -0.087577
      4          6           0        3.658721    1.491553   -0.076640
      5          6           0        2.441982    2.126546   -0.034388
      6          6           0        1.216833    1.412551    0.024537
      7          6           0        0.000289    2.183538    0.037612
      8          8           0        0.000442    3.475210    0.038884
      9          6           0       -1.216381    1.412737    0.023701
     10          6           0       -2.441307    2.127005   -0.036919
     11          6           0       -3.658181    1.492325   -0.079343
     12          6           0       -3.700740    0.072351   -0.088409
     13          6           0       -2.522064   -0.639806   -0.011715
     14         17           0       -2.753194   -2.419368   -0.149077
     15          6           0       -1.229581   -0.050854    0.083088
     16          6           0       -0.000015   -0.816404    0.276593
     17          8           0        0.000069   -2.037608    0.613883
     18          6           0        1.229648   -0.051007    0.083102
     19          1           0        4.641012   -0.460031   -0.179498
     20          1           0        4.586761    2.057843   -0.123036
     21          1           0        2.355478    3.207861   -0.048279
     22          1           0       -2.354552    3.208283   -0.051787
     23          1           0       -4.586015    2.058814   -0.127226
     24          1           0       -4.641062   -0.459079   -0.179712
 ---------------------------------------------------------------------

 SCF Done:  E(UB3LYP) =  -1608.41953883     A.U. after   19 cycles

 The electronic state is 1-A.
 Alpha  occ. eigenvalues -- -101.53039-101.53039 -19.02331 -19.01992 -10.21707
 Alpha  occ. eigenvalues --  -10.21706 -10.19261 -10.17550 -10.15824 -10.15824
 Alpha  occ. eigenvalues --  -10.15646 -10.15644 -10.15638 -10.15637 -10.14921
 Alpha  occ. eigenvalues --  -10.14921 -10.14538 -10.14537  -9.44507  -9.44507
 Alpha  occ. eigenvalues --   -7.20935  -7.20934  -7.20040  -7.20040  -7.19943
 Alpha  occ. eigenvalues --   -7.19943  -0.95422  -0.93732  -0.86041  -0.85941
 Alpha  occ. eigenvalues --   -0.81192  -0.80545  -0.76009  -0.71763  -0.71576
 Alpha  occ. eigenvalues --   -0.71154  -0.64431  -0.61445  -0.60229  -0.55336
 Alpha  occ. eigenvalues --   -0.53080  -0.51167  -0.50077  -0.45405  -0.44581
 Alpha  occ. eigenvalues --   -0.44274  -0.43591  -0.40869  -0.40788  -0.39573
 Alpha  occ. eigenvalues --   -0.39368  -0.37915  -0.37414  -0.36889  -0.36140
 Alpha  occ. eigenvalues --   -0.34277  -0.33577  -0.32814  -0.32804  -0.31320
 Alpha  occ. eigenvalues --   -0.31218  -0.30247  -0.29714  -0.29022  -0.23234
 Alpha  occ. eigenvalues --   -0.23145  -0.22448  -0.22340  -0.20261  -0.19187
 Alpha  occ. eigenvalues --   -0.10943
 Alpha virt. eigenvalues --   -0.03450  -0.00764   0.00168   0.00817   0.01028
 Alpha virt. eigenvalues --    0.01053   0.02046   0.02119   0.03245   0.03699
 Alpha virt. eigenvalues --    0.04683   0.04845   0.05706   0.05885   0.06403

  Beta  occ. eigenvalues -- -101.53039-101.53039 -19.02331 -19.01992 -10.21707
  Beta  occ. eigenvalues --  -10.21706 -10.19261 -10.17550 -10.15824 -10.15824
  Beta  occ. eigenvalues --  -10.15646 -10.15644 -10.15638 -10.15637 -10.14921
  Beta  occ. eigenvalues --  -10.14921 -10.14538 -10.14537  -9.44507  -9.44507
  Beta  occ. eigenvalues --   -7.20935  -7.20934  -7.20040  -7.20040  -7.19943
  Beta  occ. eigenvalues --   -7.19943  -0.95422  -0.93732  -0.86041  -0.85941
  Beta  occ. eigenvalues --   -0.81192  -0.80545  -0.76009  -0.71763  -0.71576
  Beta  occ. eigenvalues --   -0.71154  -0.64431  -0.61445  -0.60229  -0.55336
  Beta  occ. eigenvalues --   -0.53080  -0.51167  -0.50077  -0.45405  -0.44581
  Beta  occ. eigenvalues --   -0.44274  -0.43591  -0.40869  -0.40788  -0.39573
  Beta  occ. eigenvalues --   -0.39368  -0.37915  -0.37414  -0.36889  -0.36140
  Beta  occ. eigenvalues --   -0.34277  -0.33577  -0.32814  -0.32804  -0.31320
  Beta  occ. eigenvalues --   -0.31218  -0.30247  -0.29714  -0.29022  -0.23234
  Beta  occ. eigenvalues --   -0.23145  -0.22448  -0.22340  -0.20261  -0.19187
  Beta  occ. eigenvalues --   -0.10943
  Beta virt. eigenvalues --   -0.03450  -0.00764   0.00168   0.00817   0.01028
  Beta virt. eigenvalues --    0.01053   0.02046   0.02119   0.03245   0.03699
  Beta virt. eigenvalues --    0.04683   0.04845   0.05706   0.05885   0.06403

 Mulliken charges and spin densities:
               1          2
     1  Cl   0.331093  -0.000000
     2  C    0.699171   0.000000
     3  C   -0.387377  -0.000000
     4  C   -0.807629   0.000000
     5  C    0.224547  -0.000000
     6  C    0.257701   0.000000
     7  C   -0.803355   0.000000
     8  O   -0.640866  -0.000000
     9  C    0.257976  -0.000000
    10  C    0.225721  -0.000000
    11  C   -0.808003   0.000000
    12  C   -0.386207   0.000000
    13  C    0.700483  -0.000000
    14  Cl   0.331079   0.000000
    15  C    0.345764  -0.000000
    16  C   -2.454891   0.000000
    17  O   -0.427982  -0.000000
    18  C    0.347033  -0.000000
    19  H    0.174716  -0.000000
    20  H    0.162345   0.000000
    21  H    0.160797   0.000000
    22  H    0.160793  -0.000000
    23  H    0.162335   0.000000
    24  H    0.174757   0.000000
 Sum of Mulliken charges =  -2.00000   0.00000

 Dipole moment (field-independent basis, Debye):
    X=             -0.0008    Y=             -2.4347    Z=             -1.6256  Tot=              2.9275
 Quadrupole moment (field-independent basis, Debye-Ang):
   XX=           -145.4234   YY=           -190.2701   ZZ=           -130.6019
   XY=             -0.0043   XZ=              0.0081   YZ=              2.9592

 Normal termination of Gaussian 16 at Sun Jan 14 01:22:37 2024.
