 Q-Chem 5.4, Q-Chem, Inc., Pleasanton, CA (2021)
 Q-Chem 5.4.0 for Intel X86 EM64T Linux

User input:
--------------------------------------------------------------
$molecule
-1 2
C                  2.9196630000      0.2595630000     -0.0793570000
C                  1.4227190000      0.1068450000     -0.0274990000
C                  0.8179140000     -0.9684070000      0.5743510000
C                 -0.6149950000     -1.1517840000      0.6454460000
O                 -1.1412070000     -2.1574240000      1.2092370000
C                 -1.4227210000     -0.1068170000      0.0274380000
C                 -0.8179380000      0.9683810000     -0.5744230000
C                  0.6150100000      1.1517430000     -0.6455350000
O                  1.1411480000      2.1574010000     -1.2093880000
C                 -2.9196670000     -0.2595350000      0.0794480000
H                  3.4178960000     -0.5803780000      0.4139910000
H                  3.2365690000      1.1915940000      0.4016890000
H                  3.2727620000      0.3224140000     -1.1146790000
H                  1.4176990000     -1.7499680000      1.0364780000
H                 -1.4176610000      1.7499660000     -1.0365920000
H                 -3.2726160000     -0.3224690000      1.1148120000
H                 -3.4179300000      0.5804260000     -0.4138220000
H                 -3.2366430000     -1.1915510000     -0.4015940000
$end
$rem
MAX_SCF_CYCLES=200
BASIS  =  6-311++G(d,p)
GUI  =  2
JOB_TYPE  =  SP
METHOD  =  B3LYP
SOLVENT_METHOD = COSMO
$end
$solvent
dielectric 37.219
opticaldielectric 1.43
$end

--------------------------------------------------------------

             Standard Nuclear Orientation (Angstroms)
    I     Atom           X                Y                Z
 ----------------------------------------------------------------
    1      C       2.7304188611     1.0690895924    -0.0000780250
    2      C       1.3204002996     0.5411681733     0.0000229205
    3      C       0.2283483591     1.3727942510     0.0000341489
    4      C      -1.1405504804     0.9058619305     0.0000086857
    5      O      -2.1268214906     1.7016889615     0.0000466511
    6      C      -1.3203737335    -0.5411953615    -0.0000278997
    7      C      -0.2283606414    -1.3727945954    -0.0000031947
    8      C       1.1405706258    -0.9058409643     0.0000452752
    9      O       2.1267954020    -1.7017430340     0.0000506181
   10      C      -2.7304254489    -1.0690488577    -0.0000588453
   11      H       2.7406152079     2.1631760941    -0.0002059538
   12      H       3.2846793879     0.7095218676    -0.8741619864
   13      H       3.2847833517     0.7097210554     0.8740244071
   14      H       0.3589857085     2.4531066547     0.0000580864
   15      H      -0.3589243485    -2.4531168121    -0.0000013538
   16      H      -3.2846974266    -0.7095302152    -0.8741533584
   17      H      -2.7406567768    -2.1631288864    -0.0000091368
   18      H      -3.2847434432    -0.7095221879     0.8740127476
 ----------------------------------------------------------------

   10    -460.2988322153      3.03e-06  Convergence criterion met
 Total energy in the final basis set =     -460.2988322153
    4    -460.3876189240      7.88e-06  Convergence criterion met
 Total energy in the final basis set =     -460.3876189240

                    Orbital Energies (a.u.)
 --------------------------------------------------------------

 Alpha MOs
 -- Occupied --
-19.0783 -19.0782 -10.2168 -10.2168 -10.1704 -10.1704 -10.1561 -10.1561
-10.1548 -10.1548  -0.9991  -0.9967  -0.8258  -0.7759  -0.7074  -0.6921
 -0.6357  -0.5876  -0.5386  -0.4838  -0.4569  -0.4359  -0.4279  -0.4087
 -0.4036  -0.4008  -0.3896  -0.3733  -0.3680  -0.3680  -0.3587  -0.3467
 -0.2778  -0.2455  -0.2439  -0.2382  -0.1611

 Beta MOs
 -- Occupied --
-19.0716 -19.0716 -10.2152 -10.2151 -10.1690 -10.1690 -10.1554 -10.1554
-10.1549 -10.1549  -0.9873  -0.9847  -0.8199  -0.7734  -0.7057  -0.6851
 -0.6304  -0.5835  -0.5342  -0.4817  -0.4526  -0.4320  -0.4180  -0.4044
 -0.3993  -0.3989  -0.3879  -0.3672  -0.3598  -0.3559  -0.3444  -0.3410
 -0.2470  -0.2392  -0.2363  -0.2322

          Ground-State Mulliken Net Atomic Charges

     Atom                 Charge (a.u.)    Spin (a.u.)
  --------------------------------------------------------
      1 C                    -0.435856       0.003993
      2 C                     1.113603       0.109040
      3 C                    -0.619848       0.029352
      4 C                    -0.688101       0.118989
      5 O                    -0.538900       0.235529
      6 C                     1.113660       0.108993
      7 C                    -0.620422       0.029293
      8 C                    -0.687890       0.118977
      9 O                    -0.538917       0.235533
     10 C                    -0.435682       0.003994
     11 H                     0.156041      -0.000243
     12 H                     0.172133       0.005080
     13 H                     0.172154       0.005080
     14 H                     0.168867      -0.006763
     15 H                     0.168929      -0.006759
     16 H                     0.172128       0.005078
     17 H                     0.155939      -0.000243
     18 H                     0.172161       0.005078
  --------------------------------------------------------
  Sum of atomic charges =    -1.000000

                    Cartesian Multipole Moments
 -----------------------------------------------------------------
    Charge (ESU x 10^10)
                -4.8032
    Dipole Moment (Debye)
         X      -0.0004      Y       0.0002      Z      -0.0027
       Tot       0.0027
    Quadrupole Moments (Debye-Ang)
        XX     -85.6843     XY      23.5039     YY     -78.2387
        XZ      -0.0002     YZ      -0.0001     ZZ     -63.3630

 Total job time:  27.01s(wall), 188.19s(cpu)
        *  Thank you very much for using Q-Chem.  Have a nice day.  *
