 Q-Chem 5.4, Q-Chem, Inc., Pleasanton, CA (2021)
 Q-Chem 5.4.0 for Intel X86 EM64T Linux

User input:
--------------------------------------------------------------
$molecule
-1 2
C                 -6.7555630000      5.7399680000      0.9651510000
C                 -7.8565690000      4.9815480000      0.6131010000
C                 -7.7297990000      3.9564790000     -0.3461820000
C                 -6.4998720000      3.7106880000     -0.9349080000
C                 -5.3650440000      4.4674530000     -0.5947510000
C                 -5.4952390000      5.5031950000      0.3746290000
C                 -4.3430340000      6.2978950000      0.7437570000
C                 -3.0969040000      5.9805230000      0.0852590000
C                 -2.9375300000      4.9912540000     -0.8620050000
C                 -4.0693950000      4.1746150000     -1.2441620000
O                 -4.3471320000      7.2455750000      1.5967320000
O                 -3.9657200000      3.2526460000     -2.0950740000
C                 -1.6010170000      4.7203960000     -1.5029850000
C                 -0.8036110000      3.6070710000     -0.7965920000
C                  0.5407010000      3.3092670000     -1.4693930000
C                  1.3435830000      2.2026800000     -0.7758180000
C                  2.6889350000      1.8991940000     -1.4455110000
C                  3.4876630000      0.7913660000     -0.7490500000
C                  4.8330630000      0.4851830000     -1.4170040000
C                  5.6256480000     -0.6238570000     -0.7149710000
C                  6.9725570000     -0.9286820000     -1.3853330000
C                  7.7404240000     -2.0352270000     -0.6640790000
S                  9.3523880000     -2.3586860000     -1.5159270000
C                 10.0185860000     -3.6647870000     -0.4766690000
C                  9.7495100000     -5.0072600000     -0.7599530000
C                 10.8473260000     -3.3582400000      0.6066820000
C                 11.3813060000     -4.3743990000      1.3960360000
C                 11.1074640000     -5.7197230000      1.1279840000
C                 10.2866840000     -6.0172420000      0.0348000000
C                 11.6611520000     -6.8161350000      2.0056070000
H                 -6.8280530000      6.5337130000      1.7001550000
H                 -8.8202670000      5.1748670000      1.0755610000
H                 -8.5951840000      3.3612900000     -0.6222160000
H                 -6.3732220000      2.9283720000     -1.6747590000
O                 -2.0554910000      6.7672820000      0.4851450000
H                 -1.0049060000      5.6387490000     -1.5097730000
H                 -1.7751050000      4.4151730000     -2.5398580000
H                 -1.4159790000      2.6991860000     -0.7816310000
H                 -0.6342000000      3.8962390000      0.2476170000
H                  1.1437020000      4.2272970000     -1.4995990000
H                  0.3642460000      3.0254130000     -2.5154920000
H                  0.7401170000      1.2861130000     -0.7458220000
H                  1.5172960000      2.4852770000      0.2709600000
H                  3.2930960000      2.8157080000     -1.4756410000
H                  2.5157100000      1.6160770000     -2.4921620000
H                  2.8828690000     -0.1243930000     -0.7187650000
H                  3.6603140000      1.0745760000      0.2975930000
H                  5.4395640000      1.3996540000     -1.4465860000
H                  4.6617400000      0.2003510000     -2.4631380000
H                  5.0195140000     -1.5382570000     -0.6864100000
H                  5.7973100000     -0.3385170000      0.3307460000
H                  7.5825150000     -0.0184910000     -1.4109530000
H                  6.8040770000     -1.2213500000     -2.4279700000
H                  7.1671500000     -2.9649950000     -0.6567270000
H                  7.9531380000     -1.7511310000      0.3689830000
H                  9.1242450000     -5.2570790000     -1.6092900000
H                 11.0772840000     -2.3216240000      0.8240500000
H                 12.0253120000     -4.1156050000      2.2309200000
H                 10.0680370000     -7.0536430000     -0.2036060000
H                 12.6135950000     -6.5249100000      2.4547610000
H                 11.8196250000     -7.7377800000      1.4405620000
H                 10.9708260000     -7.0488530000      2.8240810000
H                 -2.4894460000      7.3587630000      1.1394460000
$end
$rem
MAX_SCF_CYCLES=200
BASIS  =  6-311++G(d,p)
GUI  =  2
JOB_TYPE  =  SP
METHOD  =  B3LYP
SCF_ALGORITHM = DIIS_GDM
THRESH = 14
SOLVENT_METHOD = PCM
$end
$pcm
theory = CPCM
$end
$solvent
dielectric 37.219
opticaldielectric 1.43
$end

--------------------------------------------------------------

             Standard Nuclear Orientation (Angstroms)
    I     Atom           X                Y                Z
 ----------------------------------------------------------------
    1      C      -6.7555630000     5.7399680000     0.9651510000
    2      C      -7.8565690000     4.9815480000     0.6131010000
    3      C      -7.7297990000     3.9564790000    -0.3461820000
    4      C      -6.4998720000     3.7106880000    -0.9349080000
    5      C      -5.3650440000     4.4674530000    -0.5947510000
    6      C      -5.4952390000     5.5031950000     0.3746290000
    7      C      -4.3430340000     6.2978950000     0.7437570000
    8      C      -3.0969040000     5.9805230000     0.0852590000
    9      C      -2.9375300000     4.9912540000    -0.8620050000
   10      C      -4.0693950000     4.1746150000    -1.2441620000
   11      O      -4.3471320000     7.2455750000     1.5967320000
   12      O      -3.9657200000     3.2526460000    -2.0950740000
   13      C      -1.6010170000     4.7203960000    -1.5029850000
   14      C      -0.8036110000     3.6070710000    -0.7965920000
   15      C       0.5407010000     3.3092670000    -1.4693930000
   16      C       1.3435830000     2.2026800000    -0.7758180000
   17      C       2.6889350000     1.8991940000    -1.4455110000
   18      C       3.4876630000     0.7913660000    -0.7490500000
   19      C       4.8330630000     0.4851830000    -1.4170040000
   20      C       5.6256480000    -0.6238570000    -0.7149710000
   21      C       6.9725570000    -0.9286820000    -1.3853330000
   22      C       7.7404240000    -2.0352270000    -0.6640790000
   23      S       9.3523880000    -2.3586860000    -1.5159270000
   24      C      10.0185860000    -3.6647870000    -0.4766690000
   25      C       9.7495100000    -5.0072600000    -0.7599530000
   26      C      10.8473260000    -3.3582400000     0.6066820000
   27      C      11.3813060000    -4.3743990000     1.3960360000
   28      C      11.1074640000    -5.7197230000     1.1279840000
   29      C      10.2866840000    -6.0172420000     0.0348000000
   30      C      11.6611520000    -6.8161350000     2.0056070000
   31      H      -6.8280530000     6.5337130000     1.7001550000
   32      H      -8.8202670000     5.1748670000     1.0755610000
   33      H      -8.5951840000     3.3612900000    -0.6222160000
   34      H      -6.3732220000     2.9283720000    -1.6747590000
   35      O      -2.0554910000     6.7672820000     0.4851450000
   36      H      -1.0049060000     5.6387490000    -1.5097730000
   37      H      -1.7751050000     4.4151730000    -2.5398580000
   38      H      -1.4159790000     2.6991860000    -0.7816310000
   39      H      -0.6342000000     3.8962390000     0.2476170000
   40      H       1.1437020000     4.2272970000    -1.4995990000
   41      H       0.3642460000     3.0254130000    -2.5154920000
   42      H       0.7401170000     1.2861130000    -0.7458220000
   43      H       1.5172960000     2.4852770000     0.2709600000
   44      H       3.2930960000     2.8157080000    -1.4756410000
   45      H       2.5157100000     1.6160770000    -2.4921620000
   46      H       2.8828690000    -0.1243930000    -0.7187650000
   47      H       3.6603140000     1.0745760000     0.2975930000
   48      H       5.4395640000     1.3996540000    -1.4465860000
   49      H       4.6617400000     0.2003510000    -2.4631380000
   50      H       5.0195140000    -1.5382570000    -0.6864100000
   51      H       5.7973100000    -0.3385170000     0.3307460000
   52      H       7.5825150000    -0.0184910000    -1.4109530000
   53      H       6.8040770000    -1.2213500000    -2.4279700000
   54      H       7.1671500000    -2.9649950000    -0.6567270000
   55      H       7.9531380000    -1.7511310000     0.3689830000
   56      H       9.1242450000    -5.2570790000    -1.6092900000
   57      H      11.0772840000    -2.3216240000     0.8240500000
   58      H      12.0253120000    -4.1156050000     2.2309200000
   59      H      10.0680370000    -7.0536430000    -0.2036060000
   60      H      12.6135950000    -6.5249100000     2.4547610000
   61      H      11.8196250000    -7.7377800000     1.4405620000
   62      H      10.9708260000    -7.0488530000     2.8240810000
   63      H      -2.4894460000     7.3587630000     1.1394460000
 ----------------------------------------------------------------

   19   -1672.5714914405      4.03e-06  Convergence criterion met
 Total energy in the final basis set =    -1672.5714914405

                    Orbital Energies (a.u.)
 --------------------------------------------------------------

 Alpha MOs
 -- Occupied --
-88.8425 -19.1435 -19.0871 -19.0756 -10.2241 -10.2218 -10.2213 -10.2045
-10.1936 -10.1895 -10.1812 -10.1812 -10.1762 -10.1762 -10.1747 -10.1725
-10.1718 -10.1707 -10.1704 -10.1690 -10.1671 -10.1643 -10.1624 -10.1605
-10.1567 -10.1567 -10.1552 -10.1544 -10.1544 -10.1539 -10.1536  -7.9287
 -5.8927  -5.8891  -5.8822  -1.0635  -1.0013  -0.9970  -0.8708  -0.8583
 -0.8171  -0.8131  -0.8018  -0.7894  -0.7737  -0.7553  -0.7532  -0.7506
 -0.7356  -0.7144  -0.6919  -0.6738  -0.6582  -0.6347  -0.6173  -0.6149
 -0.6051  -0.5872  -0.5770  -0.5755  -0.5700  -0.5687  -0.5658  -0.5366
 -0.5043  -0.4964  -0.4850  -0.4830  -0.4745  -0.4699  -0.4600  -0.4556
 -0.4523  -0.4458  -0.4374  -0.4290  -0.4261  -0.4255  -0.4238  -0.4224
 -0.4200  -0.4178  -0.4111  -0.4026  -0.3999  -0.3903  -0.3886  -0.3880
 -0.3851  -0.3788  -0.3768  -0.3692  -0.3651  -0.3583  -0.3570  -0.3496
 -0.3460  -0.3440  -0.3409  -0.3382  -0.3346  -0.3323  -0.3255  -0.3224
 -0.3197  -0.3180  -0.3160  -0.3141  -0.2988  -0.2676  -0.2634  -0.2612
 -0.2579  -0.2488  -0.2411  -0.2344  -0.2275  -0.1518

 Beta MOs
 -- Occupied --
-88.8425 -19.1430 -19.0809 -19.0704 -10.2227 -10.2204 -10.2187 -10.2045
-10.1936 -10.1895 -10.1812 -10.1812 -10.1762 -10.1762 -10.1745 -10.1717
-10.1714 -10.1700 -10.1699 -10.1692 -10.1671 -10.1643 -10.1616 -10.1604
-10.1568 -10.1567 -10.1552 -10.1544 -10.1543 -10.1539 -10.1536  -7.9287
 -5.8927  -5.8891  -5.8822  -1.0613  -0.9921  -0.9865  -0.8708  -0.8560
 -0.8171  -0.8110  -0.8011  -0.7887  -0.7727  -0.7543  -0.7532  -0.7485
 -0.7350  -0.7138  -0.6904  -0.6694  -0.6548  -0.6338  -0.6157  -0.6149
 -0.6038  -0.5862  -0.5768  -0.5751  -0.5692  -0.5682  -0.5645  -0.5348
 -0.5020  -0.4964  -0.4844  -0.4812  -0.4743  -0.4693  -0.4589  -0.4556
 -0.4514  -0.4454  -0.4299  -0.4274  -0.4255  -0.4252  -0.4229  -0.4216
 -0.4179  -0.4140  -0.4089  -0.4005  -0.3973  -0.3896  -0.3878  -0.3846
 -0.3784  -0.3775  -0.3749  -0.3648  -0.3636  -0.3580  -0.3497  -0.3482
 -0.3460  -0.3401  -0.3369  -0.3345  -0.3312  -0.3282  -0.3251  -0.3218
 -0.3197  -0.3180  -0.3158  -0.3139  -0.2982  -0.2634  -0.2558  -0.2508
 -0.2488  -0.2482  -0.2362  -0.2344  -0.2189

          Ground-State Mulliken Net Atomic Charges

     Atom                 Charge (a.u.)    Spin (a.u.)
  --------------------------------------------------------
      1 C                     0.054694       0.075484
      2 C                    -0.407216      -0.001152
      3 C                    -0.442906       0.071870
      4 C                     0.093451       0.004632
      5 C                     0.051766       0.061355
      6 C                     0.285715      -0.008143
      7 C                    -0.784468       0.173701
      8 C                    -0.587636       0.058378
      9 C                     1.807706       0.048931
     10 C                    -0.695292       0.081433
     11 O                    -0.541408       0.226090
     12 O                    -0.478572       0.193823
     13 C                    -0.345146       0.011134
     14 C                    -0.610140      -0.003028
     15 C                    -0.165552       0.002506
     16 C                    -0.192501      -0.001881
     17 C                    -0.297620      -0.000371
     18 C                    -0.388261      -0.000047
     19 C                    -0.229956       0.000122
     20 C                    -0.297041      -0.000015
     21 C                    -0.089647      -0.000001
     22 C                    -0.850458       0.000009
     23 S                    -0.228193      -0.000000
     24 C                     1.309338       0.000000
     25 C                    -0.520106       0.000000
     26 C                    -0.541546      -0.000001
     27 C                    -0.475083      -0.000000
     28 C                     0.529265       0.000000
     29 C                    -0.464527      -0.000000
     30 C                    -0.669468      -0.000000
     31 H                     0.175540      -0.004091
     32 H                     0.198749      -0.000666
     33 H                     0.194892      -0.005041
     34 H                     0.171890      -0.000381
     35 O                    -0.297336       0.016429
     36 H                     0.215700      -0.000638
     37 H                     0.198889       0.002465
     38 H                     0.177400      -0.001561
     39 H                     0.170920       0.002065
     40 H                     0.116997      -0.000314
     41 H                     0.119011       0.000515
     42 H                     0.129834      -0.000051
     43 H                     0.129431      -0.000031
     44 H                     0.137411      -0.000011
     45 H                     0.137961       0.000003
     46 H                     0.136588       0.000004
     47 H                     0.136393      -0.000004
     48 H                     0.135311      -0.000011
     49 H                     0.135166       0.000005
     50 H                     0.137684      -0.000002
     51 H                     0.137572       0.000001
     52 H                     0.137864       0.000003
     53 H                     0.138567      -0.000002
     54 H                     0.220818      -0.000001
     55 H                     0.222652       0.000001
     56 H                     0.217013       0.000000
     57 H                     0.217369       0.000000
     58 H                     0.207232       0.000000
     59 H                     0.207963       0.000000
     60 H                     0.161148      -0.000000
     61 H                     0.160735      -0.000000
     62 H                     0.179933       0.000000
     63 H                     0.303509      -0.003514
  --------------------------------------------------------
  Sum of atomic charges =    -1.000000

                    Cartesian Multipole Moments
 -----------------------------------------------------------------
    Charge (ESU x 10^10)
                -4.8032
    Dipole Moment (Debye)
         X      17.7806      Y     -26.3077      Z       4.2235
       Tot      32.0325
    Quadrupole Moments (Debye-Ang)
        XX    -292.1097     XY      86.7987     YY    -330.5555
        XZ      23.8209     YZ     -12.7782     ZZ    -217.7566

 Total job time:  965.83s(wall), 6823.10s(cpu)
        *  Thank you very much for using Q-Chem.  Have a nice day.  *
