 Q-Chem 5.4, Q-Chem, Inc., Pleasanton, CA (2021)
 Q-Chem 5.4.0 for Intel X86 EM64T Linux

User input:
--------------------------------------------------------------
$molecule
-2 1
C                  3.3808640000      6.0148270000      0.5667690000
C                  2.1980030000      5.3568920000      1.0596320000
C                  2.2066680000      4.0044070000      1.4402760000
C                  3.3905160000      3.1918580000      1.3541030000
C                  4.5710860000      3.8457440000      0.8564080000
C                  4.5661650000      5.1939360000      0.4865140000
O                  3.3874820000      7.2643960000      0.2082910000
O                  3.3805480000      1.9385990000      1.7123210000
C                  5.8218640000      5.8546710000     -0.0338350000
C                  5.8315540000      3.0168770000      0.7638510000
C                  0.9433430000      6.1996590000      1.1317700000
C                  0.9782200000      3.3168820000      1.9959910000
C                  0.5179290000      2.1368080000      1.1147100000
C                 -0.7059500000      1.4067340000      1.5937210000
O                 -1.2173760000      1.4638250000      2.6868310000
O                 -1.2992580000      0.5821800000      0.6535740000
H                  6.6513920000      5.8092160000      0.6894370000
H                  5.5945300000      6.9021100000     -0.2459130000
H                  6.1937400000      5.3811010000     -0.9571710000
H                  5.5977310000      1.9979740000      1.0818640000
H                  6.6385510000      3.4071050000      1.4053130000
H                  6.2399830000      2.9857950000     -0.2580660000
H                  1.1855440000      7.1918630000      0.7436350000
H                  0.5615940000      6.3137420000      2.1579600000
H                  0.1161100000      5.7817390000      0.5356610000
H                  0.1509000000      4.0176720000      2.1287650000
H                  1.2114740000      2.8928760000      2.9802600000
H                  1.3757590000      1.4434230000      1.0911760000
H                  0.3516400000      2.4712260000      0.0812300000
H                 -0.8202460000      0.6585920000     -0.1861600000
$end

$rem
BASIS  =  6-311++G(d,p)
GUI  =  2
JOB_TYPE  =  SP
METHOD  =  B3LYP
SCF_CONVERGENCE  = 8
SOLVENT_METHOD = sm12
$end

$smx
solvent dimethylformamide
charges CM5
$end

--------------------------------------------------------------

             Standard Nuclear Orientation (Angstroms)
    I     Atom           X                Y                Z
 ----------------------------------------------------------------
    1      C       3.3808640000     6.0148270000     0.5667690000
    2      C       2.1980030000     5.3568920000     1.0596320000
    3      C       2.2066680000     4.0044070000     1.4402760000
    4      C       3.3905160000     3.1918580000     1.3541030000
    5      C       4.5710860000     3.8457440000     0.8564080000
    6      C       4.5661650000     5.1939360000     0.4865140000
    7      O       3.3874820000     7.2643960000     0.2082910000
    8      O       3.3805480000     1.9385990000     1.7123210000
    9      C       5.8218640000     5.8546710000    -0.0338350000
   10      C       5.8315540000     3.0168770000     0.7638510000
   11      C       0.9433430000     6.1996590000     1.1317700000
   12      C       0.9782200000     3.3168820000     1.9959910000
   13      C       0.5179290000     2.1368080000     1.1147100000
   14      C      -0.7059500000     1.4067340000     1.5937210000
   15      O      -1.2173760000     1.4638250000     2.6868310000
   16      O      -1.2992580000     0.5821800000     0.6535740000
   17      H       6.6513920000     5.8092160000     0.6894370000
   18      H       5.5945300000     6.9021100000    -0.2459130000
   19      H       6.1937400000     5.3811010000    -0.9571710000
   20      H       5.5977310000     1.9979740000     1.0818640000
   21      H       6.6385510000     3.4071050000     1.4053130000
   22      H       6.2399830000     2.9857950000    -0.2580660000
   23      H       1.1855440000     7.1918630000     0.7436350000
   24      H       0.5615940000     6.3137420000     2.1579600000
   25      H       0.1161100000     5.7817390000     0.5356610000
   26      H       0.1509000000     4.0176720000     2.1287650000
   27      H       1.2114740000     2.8928760000     2.9802600000
   28      H       1.3757590000     1.4434230000     1.0911760000
   29      H       0.3516400000     2.4712260000     0.0812300000
   30      H      -0.8202460000     0.6585920000    -0.1861600000
 ----------------------------------------------------------------

   19    -766.8030663916      7.18e-09  Convergence criterion met
 Total energy in the final basis set =     -767.0840524677

                    Orbital Energies (a.u.)
 --------------------------------------------------------------

 Alpha MOs
 -- Occupied --
-19.1689 -19.1141 -19.0127 -19.0109 -10.3060 -10.1791 -10.1687 -10.1671
-10.1657 -10.1595 -10.1595 -10.1584 -10.1356 -10.1350 -10.1345 -10.1332
 -1.1006  -1.0219  -0.9273  -0.9237  -0.8030  -0.7876  -0.7564  -0.7141
 -0.6989  -0.6729  -0.6187  -0.6134  -0.5981  -0.5283  -0.5148  -0.5098
 -0.4871  -0.4640  -0.4571  -0.4272  -0.4259  -0.4175  -0.4103  -0.4049
 -0.3935  -0.3929  -0.3844  -0.3790  -0.3695  -0.3602  -0.3566  -0.3499
 -0.3446  -0.3292  -0.3259  -0.3117  -0.3078  -0.3005  -0.2832  -0.2168
 -0.2060  -0.1952  -0.1866  -0.1147

          Ground-State Mulliken Net Atomic Charges

     Atom                 Charge (a.u.)
  ----------------------------------------
      1 C                    -2.981014
      2 C                    -1.011604
      3 C                    -0.273245
      4 C                    -1.581671
      5 C                    -0.211316
      6 C                    -1.201890
      7 O                    -0.395435
      8 O                    -0.320928
      9 C                     0.342223
     10 C                     0.516366
     11 C                     0.462520
     12 C                     1.401709
     13 C                     0.181274
     14 C                     0.842510
     15 O                    -0.346160
     16 O                    -0.044433
     17 H                     0.183715
     18 H                     0.164029
     19 H                     0.175876
     20 H                     0.174986
     21 H                     0.162796
     22 H                     0.179368
     23 H                     0.163864
     24 H                     0.178520
     25 H                     0.175192
     26 H                     0.257709
     27 H                     0.070511
     28 H                     0.276809
     29 H                     0.074566
     30 H                     0.383152
  ----------------------------------------
  Sum of atomic charges =    -2.000000

                    Cartesian Multipole Moments
 -----------------------------------------------------------------
    Charge (ESU x 10^10)
                -9.6064
    Dipole Moment (Debye)
         X     -28.2013      Y     -42.6289      Z     -12.4585
       Tot      52.6095
    Quadrupole Moments (Debye-Ang)
        XX    -237.1822     XY    -142.9306     YY    -358.8835
        XZ     -17.3252     YZ     -28.5849     ZZ    -130.8940

 Total job time:  798.39s(wall), 6184.29s(cpu)
        *  Thank you very much for using Q-Chem.  Have a nice day.  *
