 Q-Chem 5.4, Q-Chem, Inc., Pleasanton, CA (2021)
 Q-Chem 5.4.0 for Intel X86 EM64T Linux

User input:
--------------------------------------------------------------
$molecule
-1 2
C                 17.1211550000      1.3035430000     -0.3411720000
C                 16.5245970000      0.2878280000      0.5177010000
C                 16.0645380000      0.5988180000      1.7798930000
C                 16.1273050000      1.9511960000      2.3118350000
C                 16.6793720000      2.9729140000      1.4338710000
C                 17.1485410000      2.6654720000      0.1768410000
O                 17.5923600000      1.0282890000     -1.4834810000
O                 15.7214290000      2.2290400000      3.4792870000
C                 17.1514410000      3.9218740000     -1.8391150000
C                 15.6162510000      4.9251240000      2.2704320000
C                 16.4658470000     -1.1144060000     -0.0399230000
H                 17.7373680000      4.7288280000     -2.2855930000
H                 16.1124470000      4.2607160000     -1.7196220000
H                 17.1837300000      3.0354700000     -2.4752360000
H                 15.9097630000      5.9222260000      2.6073050000
H                 15.1072250000      4.3900130000      3.0741970000
H                 14.9474710000      5.0250550000      1.4036040000
C                 15.4681600000     -0.4461050000      2.7085350000
C                 13.9680680000     -0.5275310000      2.5784780000
C                 13.1883890000     -1.5960300000      2.3580020000
C                 11.6865270000     -1.4272880000      2.2336430000
C                 11.1522020000     -1.5998200000      0.7880730000
C                  9.6560010000     -1.4850190000      0.7103160000
C                  8.9122840000     -0.5522910000      0.0977960000
C                  7.3994690000     -0.6163260000      0.1714860000
C                  6.7583150000      0.5042800000      1.0283240000
C                  5.2565870000      0.4414870000      1.0205300000
C                  4.4170560000      0.2243510000      2.0431050000
C                  2.9205300000      0.1983480000      1.8060030000
C                 13.6936160000     -3.0131470000      2.2244530000
C                  9.4753420000      0.6000520000     -0.6982910000
C                  4.8543340000     -0.0092860000      3.4692740000
C                  2.1524980000      1.3736130000      2.4616590000
C                  0.6698510000      1.2827080000      2.2305670000
C                 -0.1324940000      2.1228650000      1.5612680000
C                 -1.6123510000      1.8207270000      1.4337840000
C                 -2.0646580000      1.4589010000     -0.0034510000
C                 -3.5456090000      1.2148060000     -0.0901830000
C                 -4.1964050000      0.0890520000     -0.4168390000
C                 -5.7118420000      0.0636490000     -0.4281190000
C                 -6.3424100000     -0.8095980000      0.6858440000
C                 -7.8430890000     -0.8433690000      0.5995710000
C                 -8.7484640000     -0.3982170000      1.4825430000
C                -10.2284810000     -0.5204110000      1.1794200000
C                -10.9412630000      0.8334390000      0.9345030000
C                -12.4130400000      0.6626900000      0.6786120000
C                -13.1159170000      0.9573500000     -0.4243970000
C                  0.3272400000      3.4023170000      0.9053090000
C                 -3.5231250000     -1.2051050000     -0.8044890000
C                 -8.4079720000      0.2289800000      2.8126080000
C                -12.5302350000      1.5749240000     -1.6710050000
C                -14.6062570000      0.6853240000     -0.4712700000
C                -15.0149920000     -0.4502230000     -1.4424520000
C                -16.5050380000     -0.6437770000     -1.4981900000
C                -17.2262030000     -1.7244880000     -1.1675770000
C                -16.6401160000     -3.0147540000     -0.6471480000
C                -18.7350140000     -1.7029560000     -1.3064620000
C                -19.2836400000     -2.6333730000     -2.4170200000
C                -20.7855980000     -2.6143650000     -2.4859400000
C                -21.5754980000     -2.2086020000     -3.4901450000
C                -21.0707920000     -1.6666540000     -4.8059280000
C                -23.0826960000     -2.2765280000     -3.3505170000
H                 15.6956810000     -0.1285520000      3.7324550000
H                 15.9367080000     -1.4177260000      2.5425750000
H                 13.4777150000      0.4388740000      2.6820630000
H                 11.4005950000     -0.4332590000      2.5898470000
H                 11.1744310000     -2.1533750000      2.8822300000
H                 11.4462640000     -2.5891430000      0.4160390000
H                 11.6494340000     -0.8696010000      0.1467980000
H                  9.1171230000     -2.2662400000      1.2488510000
H                  7.0924930000     -1.5835410000      0.5808510000
H                  6.9811060000     -0.5584300000     -0.8433000000
H                  7.0675910000      1.4784370000      0.6305320000
H                  7.1612100000      0.4469260000      2.0417730000
H                  4.8079140000      0.5788300000      0.0358870000
H                  2.5070610000     -0.7435050000      2.1930660000
H                  2.7200220000      0.2090900000      0.7306040000
H                 14.7778890000     -3.0793330000      2.3078660000
H                 13.4098060000     -3.4562450000      1.2624660000
H                 13.2573490000     -3.6520770000      3.0039520000
H                 10.5622240000      0.5799170000     -0.7625190000
H                  9.1916910000      1.5636630000     -0.2610350000
H                  9.0766660000      0.5901140000     -1.7202730000
H                  5.9332880000     -0.1234210000      3.5670060000
H                  4.3829430000     -0.9147990000      3.8692030000
H                  4.5504250000      0.8165460000      4.1223410000
H                  2.5635070000      2.3134860000      2.0865350000
H                  2.3396080000      1.3625070000      3.5423890000
H                  0.2035350000      0.3969850000      2.6635770000
H                 -2.1920540000      2.6911160000      1.7710430000
H                 -1.8760680000      0.9933540000      2.0990130000
H                 -1.4917190000      0.5933610000     -0.3431090000
H                 -1.8070250000      2.2851190000     -0.6772800000
H                 -4.1571940000      2.0822670000      0.1603970000
H                 -6.0613720000     -0.3096470000     -1.4005850000
H                 -6.0962010000      1.0829630000     -0.3289860000
H                 -6.0012590000     -0.4405700000      1.6555500000
H                 -5.9639700000     -1.8349120000      0.5932740000
H                 -8.2278570000     -1.2844100000     -0.3205520000
H                -10.7295050000     -1.0302050000      2.0138250000
H                -10.3707570000     -1.1517350000      0.2975600000
H                -10.4443930000      1.3462840000      0.1080500000
H                -10.8117180000      1.4705030000      1.8179380000
H                -12.9646330000      0.2286300000      1.5131680000
H                  1.3850110000      3.6065760000      1.0666170000
H                 -0.2427780000      4.2555080000      1.2922710000
H                  0.1575340000      3.3784380000     -0.1765590000
H                 -2.4367570000     -1.1289790000     -0.8302930000
H                 -3.8609950000     -1.5282820000     -1.7963740000
H                 -3.7806760000     -2.0112920000     -0.1092620000
H                 -7.3374010000      0.2466960000      3.0135000000
H                 -8.8939440000     -0.3196600000      3.6281680000
H                 -8.7715840000      1.2605090000      2.8704970000
H                -11.4672600000      1.7949520000     -1.5789340000
H                -13.0476840000      2.5113740000     -1.9111060000
H                -12.6571570000      0.9175040000     -2.5377300000
H                -15.1335420000      1.6022350000     -0.7684340000
H                -14.9643570000      0.4309640000      0.5304960000
H                -14.4990970000     -1.3675600000     -1.1501330000
H                -14.6581550000     -0.2047480000     -2.4503390000
H                -17.0567420000      0.2295360000     -1.8475610000
H                -15.5720240000     -2.9447750000     -0.4435490000
H                -16.7869710000     -3.8351650000     -1.3582490000
H                -17.1405930000     -3.3126660000      0.2814490000
H                -19.0699200000     -0.6821050000     -1.5118320000
H                -19.1918660000     -1.9963880000     -0.3513760000
H                -18.9572540000     -3.6612180000     -2.2163380000
H                -18.8322330000     -2.3495230000     -3.3704220000
H                -21.2798930000     -2.9713050000     -1.5818830000
H                -19.9937810000     -1.5017510000     -4.8128000000
H                -21.5584090000     -0.7124300000     -5.0362430000
H                -21.3056680000     -2.3458790000     -5.6330130000
H                -23.3401140000     -2.5206280000     -2.3150100000
C                -23.7626930000     -3.3055610000     -4.2882170000
H                -23.5152940000     -1.2886050000     -3.5558840000
C                -25.2414360000     -3.4131510000     -4.0374330000
C                -26.2557210000     -3.1237780000     -4.8635650000
C                -27.6884070000     -3.2927420000     -4.4184000000
C                -26.1013080000     -2.6208040000     -6.2770400000
H                -23.2967910000     -4.2836290000     -4.1113060000
H                -23.5582480000     -3.0506750000     -5.3298340000
H                -25.5025590000     -3.7648510000     -3.0391610000
H                -27.7540340000     -3.6586200000     -3.3917600000
H                -28.2205550000     -3.9989850000     -5.0671340000
H                -28.2331190000     -2.3427990000     -4.4782060000
H                -25.0625380000     -2.4857660000     -6.5769390000
H                -26.6151150000     -1.6600890000     -6.3998470000
H                -26.5687140000     -3.3154350000     -6.9851790000
O                 17.7408990000      3.6615690000     -0.5684530000
O                 16.8213180000      4.2628500000      1.8976760000
H                 17.1252650000     -1.7994370000      0.5089890000
H                 16.7929870000     -1.0982830000     -1.0799660000
H                 15.4538550000     -1.5292380000      0.0115340000
$end
$rem
MAX_SCF_CYCLES=200
BASIS  =  6-311++G(d,p)
GUI  =  2
JOB_TYPE  =  SP
METHOD  =  B3LYP
THRESH = 14
SOLVENT_METHOD = COSMO
SCF_GUESS = SADMO
SCF_ALGORITHM = DIIS_GDM
$end

$solvent
dielectric 37.219
opticaldielectric 1.43
$end

--------------------------------------------------------------

             Standard Nuclear Orientation (Angstroms)
    I     Atom           X                Y                Z
 ----------------------------------------------------------------
    1      C     -18.5920368763    -1.7645963338     1.4862198161
    2      C     -18.0090194115    -1.8117860772     0.1508977566
    3      C     -17.7150355911    -0.6566090198    -0.5423822647
    4      C     -17.9470101269     0.6628203971     0.0242940724
    5      C     -18.4843939736     0.7070728955     1.3766130980
    6      C     -18.7882541059    -0.4432448163     2.0688578067
    7      O     -18.9129460046    -2.8130438998     2.1190261063
    8      O     -17.6937453806     1.7216814246    -0.6234304684
    9      C     -18.6785544990    -0.9448859193     4.3881152718
   10      C     -17.6836590374     2.8146576374     2.1236703710
   11      C     -17.7741112194    -3.1849064405    -0.4322101988
   12      H     -19.2780828083    -0.7594621282     5.2825489675
   13      H     -17.6902824305    -0.4817020020     4.5199484520
   14      H     -18.5682982527    -2.0182711548     4.2235180247
   15      H     -18.0936692441     3.7159130724     2.5857043329
   16      H     -17.2214073410     3.0588293866     1.1654465180
   17      H     -16.9360661155     2.3766193162     2.8003319755
   18      C     -17.1372799001    -0.6763404971    -1.9479838403
   19      C     -15.6303623222    -0.6219044721    -1.9404235692
   20      C     -14.7453024724    -1.4278937452    -2.5447823010
   21      C     -13.2580569973    -1.1916534362    -2.3664009569
   22      C     -12.5586776373    -2.2412678590    -1.4641143085
   23      C     -11.0775715362    -2.0118810907    -1.3566467280
   24      C     -10.3524069852    -1.6727418480    -0.2808223016
   25      C      -8.8562727843    -1.4634224949    -0.4069483614
   26      C      -8.4065802742     0.0108494027    -0.2478677674
   27      C      -6.9127583669     0.1632385727    -0.3146835081
   28      C      -6.1730924651     0.8289509388    -1.2132052788
   29      C      -4.6627909508     0.8482739537    -1.0903250927
   30      C     -15.1135549743    -2.5944772550    -3.4306622353
   31      C     -10.9203637939    -1.4806326600     1.1045304823
   32      C      -6.7404482085     1.5898401110    -2.3874758787
   33      C      -4.0702828737     2.2394047644    -0.7516585757
   34      C      -2.5689791226     2.2149288215    -0.6781920304
   35      C      -1.7719163010     2.4569967662     0.3723680125
   36      C      -0.2669610580     2.3537715845     0.2241433175
   37      C       0.3660134475     1.1644608152     0.9896675110
   38      C       1.8628352626     1.1307614415     0.8528849120
   39      C       2.6364085479     0.1933651512     0.2868158246
   40      C       4.1410767778     0.3717404134     0.2483758002
   41      C       4.7184653627     0.6065972386    -1.1702695342
   42      C       6.2172849177     0.7252105087    -1.1606880078
   43      C       6.9821187792     1.7735546693    -1.4975966478
   44      C       8.4911769139     1.6767235392    -1.3944825089
   45      C       9.1110735038     2.5647753318    -0.2863107847
   46      C      10.6109213377     2.4650028011    -0.2507456352
   47      C      11.4015281507     2.0065855711     0.7302150965
   48      C      -2.2631749128     2.8501308144     1.7444997763
   49      C       2.1188007690    -1.0841812840    -0.3283086462
   50      C       6.4493833414     3.0922839171    -2.0030963089
   51      C      10.9041623858     1.5045627165     2.0640265170
   52      C      12.9056829094     1.9818681836     0.5452392840
   53      C      13.5096696901     0.5594331367     0.4375161547
   54      C      15.0079595841     0.5842667674     0.3137516924
   55      C      15.7767196782     0.1426094127    -0.6918659671
   56      C      15.2473803556    -0.4928017989    -1.9548715650
   57      C      17.2846605222     0.2652224219    -0.6061701979
   58      C      18.0251810045    -1.0890432782    -0.4735082888
   59      C      19.5190081401    -0.9207892134    -0.4394471271
   60      C      20.3759454829    -1.2203042447     0.5469414580
   61      C      19.9725433198    -1.8129229968     1.8757719189
   62      C      21.8597378637    -0.9689311774     0.3710793448
   63      H     -17.4993669156     0.2261607908    -2.4533572649
   64      H     -17.5027660965    -1.5440655163    -2.4998900360
   65      H     -15.2361229520     0.2019445135    -1.3480025123
   66      H     -13.0958393605    -0.2011378726    -1.9313188869
   67      H     -12.7601652411    -1.1899192875    -3.3473242633
   68      H     -12.7276364396    -3.2404785202    -1.8844388651
   69      H     -13.0429748301    -2.2330114712    -0.4858090716
   70      H     -10.5367088448    -2.1217479297    -2.2979822276
   71      H      -8.5157715160    -1.8258769910    -1.3816300780
   72      H      -8.3373370697    -2.0673131614     0.3508061895
   73      H      -8.7511839482     0.3859217518     0.7234411541
   74      H      -8.9100929850     0.6162851803    -1.0045811921
   75      H      -6.3736500296    -0.3593242760     0.4765071565
   76      H      -4.2164955464     0.5027633524    -2.0333544082
   77      H      -4.3492335406     0.1396529873    -0.3180945997
   78      H     -16.1912183693    -2.7299283896    -3.5159901377
   79      H     -14.6919276802    -3.5357293068    -3.0584016522
   80      H     -14.7121353588    -2.4505964315    -4.4427589363
   81      H     -11.9885437508    -1.6857803922     1.1569625705
   82      H     -10.7666037750    -0.4560027867     1.4604635348
   83      H     -10.4145137604    -2.1403141307     1.8203688900
   84      H      -7.8103950916     1.4309569874    -2.5166652615
   85      H      -6.2411783299     1.2868296268    -3.3153878939
   86      H      -6.5783968787     2.6685309160    -2.2824940106
   87      H      -4.5152621351     2.5920926860     0.1814075294
   88      H      -4.3711107201     2.9532572341    -1.5282074064
   89      H      -2.0799458561     1.9481501135    -1.6158108708
   90      H       0.1986209208     3.2829910107     0.5807395761
   91      H      -0.0085037897     2.2616218965    -0.8347856863
   92      H      -0.0930125052     0.2379377236     0.6380479982
   93      H       0.1146057938     1.2506663172     2.0538194130
   94      H       2.3695805975     2.0022894648     1.2687733650
   95      H       4.6231342206    -0.5183366000     0.6756869020
   96      H       4.4263859337     1.2157965985     0.8829843922
   97      H       4.2453612620     1.4928653322    -1.5987514732
   98      H       4.4388125403    -0.2363854992    -1.8138759666
   99      H       6.7342516828    -0.1720421942    -0.8188212740
  100      H       8.9400952901     1.9589698895    -2.3567485658
  101      H       8.7796169509     0.6381329204    -1.2084142842
  102      H       8.6651603272     2.2907511151     0.6723270613
  103      H       8.8345989082     3.6102456397    -0.4697323746
  104      H      11.1036215737     2.8079414501    -1.1611225896
  105      H      -3.3454701542     2.9641132907     1.7921075908
  106      H      -1.8111095496     3.8001864757     2.0537345418
  107      H      -1.9765561426     2.1083060737     2.4977291153
  108      H       1.0389840387    -1.1943543256    -0.2360363554
  109      H       2.5872283696    -1.9536648889     0.1481461861
  110      H       2.3661564416    -1.1413858341    -1.3937444203
  111      H       5.3656633461     3.0994485174    -2.1139717280
  112      H       6.8886508100     3.3318952199    -2.9787721068
  113      H       6.7175638051     3.9137114704    -1.3300785422
  114      H       9.8228557308     1.5811869796     2.1722387188
  115      H      11.3647487931     2.0732537224     2.8805993929
  116      H      11.1779323650     0.4558347132     2.2213225747
  117      H      13.3837843481     2.4985719157     1.3887426708
  118      H      13.1737337957     2.5418941553    -0.3553101992
  119      H      13.0434094911     0.0406131136    -0.4030386804
  120      H      13.2442683799    -0.0109618452     1.3362032716
  121      H      15.5195019863     1.0372218764     1.1636158199
  122      H      14.1614769128    -0.4463237296    -2.0311843139
  123      H      15.5376985649    -1.5470125465    -2.0231377283
  124      H      15.6679864836     0.0049153263    -2.8362848188
  125      H      17.5536403342     0.8932473589     0.2480605491
  126      H      17.6588221922     0.7785499271    -1.5025536388
  127      H      17.7657286286    -1.7241262315    -1.3294408430
  128      H      17.6570294844    -1.6072766909     0.4148683565
  129      H      19.9410431220    -0.4827778986    -1.3444804591
  130      H      18.8925722339    -1.8457156089     2.0164133642
  131      H      20.4010427300    -1.2288681495     2.6983453022
  132      H      20.3508083241    -2.8351888638     1.9874456265
  133      H      22.0235562362    -0.3918671363    -0.5444992794
  134      C      22.7199965586    -2.2560433634     0.3087630263
  135      H      22.2282399595    -0.3511199273     1.2004308702
  136      C      24.1669281335    -1.9598414367     0.0262696297
  137      C      25.2366695207    -2.1886848711     0.7997610148
  138      C      26.6221457449    -1.8079194660     0.3363139051
  139      C      25.1940645262    -2.8292939868     2.1645110176
  140      H      22.3207447894    -2.8910125210    -0.4927301938
  141      H      22.6084190892    -2.8225337140     1.2352454907
  142      H      24.3473783084    -1.4844128498    -0.9380075557
  143      H      26.6070430426    -1.3492945682    -0.6544425813
  144      H      27.2779587959    -2.6860428292     0.2960017125
  145      H      27.0892033181    -1.1013625034     1.0329587972
  146      H      24.1860189206    -3.0806656583     2.4929529824
  147      H      25.6363929258    -2.1627964987     2.9142971131
  148      H      25.7911690309    -3.7489546144     2.1759992246
  149      O     -19.3777097390    -0.3309178884     3.3092146497
  150      O     -18.7822787078     1.9244036731     1.9498225641
  151      H     -18.4295175366    -3.3807760925    -1.2909776832
  152      H     -17.9875486415    -3.9363719793     0.3285223320
  153      H     -16.7425634677    -3.3075180260    -0.7782403335
 ----------------------------------------------------------------

  115   -2603.9891106408      4.52e-06  Convergence criterion met
 Total energy in the final basis set =    -2603.9891106408
   11   -2604.0897171382      9.47e-06  Convergence criterion met
 Total energy in the final basis set =    -2604.0897171382

                    Orbital Energies (a.u.)
 --------------------------------------------------------------

 Alpha MOs
 -- Occupied --
-19.1365 -19.1364 -19.0776 -19.0770 -10.2209 -10.2203 -10.2148 -10.2142
-10.2023 -10.2023 -10.1749 -10.1726 -10.1725 -10.1721 -10.1720 -10.1719
-10.1718 -10.1717 -10.1709 -10.1683 -10.1675 -10.1654 -10.1649 -10.1648
-10.1646 -10.1642 -10.1642 -10.1642 -10.1641 -10.1640 -10.1640 -10.1639
-10.1638 -10.1637 -10.1636 -10.1636 -10.1636 -10.1631 -10.1624 -10.1619
-10.1600 -10.1583 -10.1583 -10.1581 -10.1578 -10.1577 -10.1577 -10.1577
-10.1576 -10.1575 -10.1575 -10.1574 -10.1573 -10.1573 -10.1573 -10.1572
-10.1570 -10.1570 -10.1564 -10.1562 -10.1558 -10.1558 -10.1504  -1.0613
 -1.0425  -0.9979  -0.9952  -0.8313  -0.8296  -0.8283  -0.8262  -0.8234
 -0.8201  -0.8163  -0.8121  -0.8076  -0.8037  -0.8013  -0.7770  -0.7739
 -0.7682  -0.7612  -0.7536  -0.7460  -0.7384  -0.7315  -0.7255  -0.7208
 -0.7177  -0.7035  -0.6970  -0.6892  -0.6858  -0.6852  -0.6845  -0.6835
 -0.6820  -0.6799  -0.6767  -0.6724  -0.6675  -0.6638  -0.6454  -0.6429
 -0.6379  -0.6297  -0.6203  -0.6107  -0.6017  -0.5939  -0.5872  -0.5823
 -0.5797  -0.5627  -0.5594  -0.5220  -0.5205  -0.5200  -0.5195  -0.5179
 -0.5157  -0.5134  -0.5112  -0.5094  -0.5084  -0.5068  -0.4957  -0.4862
 -0.4766  -0.4764  -0.4752  -0.4752  -0.4738  -0.4730  -0.4709  -0.4675
 -0.4661  -0.4611  -0.4594  -0.4471  -0.4444  -0.4437  -0.4418  -0.4399
 -0.4380  -0.4372  -0.4349  -0.4338  -0.4328  -0.4319  -0.4287  -0.4281
 -0.4277  -0.4238  -0.4200  -0.4177  -0.4145  -0.4124  -0.4110  -0.4106
 -0.4095  -0.4074  -0.4068  -0.4062  -0.4046  -0.4021  -0.4003  -0.3992
 -0.3988  -0.3975  -0.3948  -0.3913  -0.3891  -0.3878  -0.3872  -0.3858
 -0.3815  -0.3757  -0.3716  -0.3712  -0.3705  -0.3700  -0.3699  -0.3691
 -0.3687  -0.3686  -0.3673  -0.3672  -0.3662  -0.3659  -0.3658  -0.3636
 -0.3627  -0.3612  -0.3604  -0.3589  -0.3580  -0.3562  -0.3546  -0.3528
 -0.3519  -0.3510  -0.3478  -0.3451  -0.3411  -0.3382  -0.3352  -0.3344
 -0.3336  -0.3326  -0.3311  -0.3306  -0.3276  -0.3254  -0.3251  -0.3240
 -0.3234  -0.3204  -0.3160  -0.3114  -0.3079  -0.3057  -0.3004  -0.2828
 -0.2669  -0.2510  -0.2496  -0.2465  -0.2437  -0.2421  -0.2403  -0.2370
 -0.2336  -0.2303  -0.2267  -0.2242  -0.2218  -0.2190  -0.1597

 Beta MOs
 -- Occupied --
-19.1363 -19.1363 -19.0711 -19.0706 -10.2190 -10.2184 -10.2139 -10.2133
-10.2023 -10.2022 -10.1749 -10.1726 -10.1725 -10.1721 -10.1720 -10.1719
-10.1718 -10.1717 -10.1709 -10.1683 -10.1665 -10.1649 -10.1648 -10.1646
-10.1644 -10.1642 -10.1642 -10.1642 -10.1641 -10.1640 -10.1640 -10.1639
-10.1638 -10.1637 -10.1636 -10.1636 -10.1636 -10.1631 -10.1624 -10.1619
-10.1601 -10.1583 -10.1583 -10.1581 -10.1578 -10.1577 -10.1577 -10.1577
-10.1576 -10.1575 -10.1575 -10.1574 -10.1573 -10.1573 -10.1573 -10.1572
-10.1570 -10.1570 -10.1564 -10.1562 -10.1558 -10.1557 -10.1505  -1.0602
 -1.0413  -0.9867  -0.9842  -0.8296  -0.8287  -0.8276  -0.8258  -0.8231
 -0.8198  -0.8160  -0.8118  -0.8074  -0.8035  -0.8012  -0.7763  -0.7734
 -0.7680  -0.7610  -0.7534  -0.7457  -0.7380  -0.7310  -0.7250  -0.7204
 -0.7175  -0.7013  -0.6956  -0.6892  -0.6858  -0.6852  -0.6845  -0.6835
 -0.6820  -0.6798  -0.6766  -0.6721  -0.6670  -0.6627  -0.6446  -0.6377
 -0.6374  -0.6293  -0.6201  -0.6105  -0.6016  -0.5938  -0.5872  -0.5823
 -0.5797  -0.5598  -0.5561  -0.5220  -0.5204  -0.5197  -0.5189  -0.5178
 -0.5156  -0.5133  -0.5111  -0.5094  -0.5084  -0.5065  -0.4936  -0.4846
 -0.4766  -0.4764  -0.4752  -0.4752  -0.4738  -0.4730  -0.4707  -0.4668
 -0.4633  -0.4610  -0.4591  -0.4471  -0.4437  -0.4428  -0.4416  -0.4386
 -0.4371  -0.4363  -0.4345  -0.4335  -0.4323  -0.4313  -0.4285  -0.4280
 -0.4276  -0.4213  -0.4198  -0.4175  -0.4143  -0.4123  -0.4106  -0.4094
 -0.4068  -0.4064  -0.4055  -0.4045  -0.4042  -0.4010  -0.4003  -0.3990
 -0.3984  -0.3973  -0.3947  -0.3911  -0.3887  -0.3878  -0.3862  -0.3815
 -0.3809  -0.3712  -0.3705  -0.3700  -0.3699  -0.3693  -0.3690  -0.3687
 -0.3686  -0.3673  -0.3672  -0.3662  -0.3661  -0.3657  -0.3635  -0.3628
 -0.3611  -0.3605  -0.3581  -0.3574  -0.3560  -0.3545  -0.3523  -0.3518
 -0.3495  -0.3464  -0.3444  -0.3443  -0.3408  -0.3380  -0.3346  -0.3337
 -0.3328  -0.3321  -0.3310  -0.3299  -0.3276  -0.3254  -0.3251  -0.3240
 -0.3233  -0.3203  -0.3158  -0.3113  -0.3078  -0.3056  -0.2956  -0.2807
 -0.2510  -0.2496  -0.2465  -0.2440  -0.2413  -0.2388  -0.2369  -0.2349
 -0.2321  -0.2295  -0.2261  -0.2228  -0.2212  -0.2145

          Ground-State Mulliken Net Atomic Charges

     Atom                 Charge (a.u.)    Spin (a.u.)
  --------------------------------------------------------
      1 C                    -0.607064       0.103898
      2 C                     0.636140       0.076711
      3 C                     0.877172       0.074585
      4 C                    -0.310820       0.109723
      5 C                    -0.130069       0.076554
      6 C                    -0.508246       0.058982
      7 O                    -0.517461       0.236558
      8 O                    -0.497305       0.234376
      9 C                    -0.299490       0.003489
     10 C                    -0.287653       0.002561
     11 C                    -0.641103       0.003684
     12 H                     0.170174       0.000447
     13 H                     0.134316      -0.000027
     14 H                     0.173519      -0.000385
     15 H                     0.169676       0.000381
     16 H                     0.164135      -0.000547
     17 H                     0.137558       0.000217
     18 C                     0.216179       0.011405
     19 C                    -0.746873      -0.001087
     20 C                     0.690661       0.001475
     21 C                    -0.607919       0.000482
     22 C                    -0.200403       0.000205
     23 C                    -0.375502      -0.000009
     24 C                     0.635226       0.000179
     25 C                    -0.624050      -0.000029
     26 C                    -0.325396       0.000061
     27 C                    -0.358745      -0.000009
     28 C                     0.600198      -0.000016
     29 C                    -0.387914       0.000001
     30 C                    -0.749942      -0.001576
     31 C                    -0.767217      -0.000024
     32 C                    -0.730870      -0.000003
     33 C                    -0.396394      -0.000002
     34 C                    -0.352665      -0.000001
     35 C                     0.563721       0.000002
     36 C                    -0.431921       0.000001
     37 C                    -0.306400      -0.000000
     38 C                    -0.333515       0.000000
     39 C                     0.521227       0.000000
     40 C                    -0.437948      -0.000000
     41 C                    -0.300696       0.000000
     42 C                    -0.398646       0.000000
     43 C                     0.563876      -0.000000
     44 C                    -0.426144       0.000000
     45 C                    -0.244676       0.000000
     46 C                    -0.358086      -0.000000
     47 C                     0.590436       0.000000
     48 C                    -0.709851       0.000000
     49 C                    -0.735831       0.000000
     50 C                    -0.723585       0.000000
     51 C                    -0.736511       0.000000
     52 C                    -0.575909       0.000000
     53 C                    -0.342855       0.000000
     54 C                    -0.357900      -0.000000
     55 C                     0.672803       0.000000
     56 C                    -0.738712      -0.000000
     57 C                    -0.495783       0.000000
     58 C                    -0.389846      -0.000000
     59 C                    -0.150018       0.000000
     60 C                     0.682224       0.000000
     61 C                    -0.762908      -0.000000
     62 C                    -0.776857      -0.000000
     63 H                     0.198033       0.002130
     64 H                     0.200052       0.000193
     65 H                     0.242120      -0.001402
     66 H                     0.134334      -0.000303
     67 H                     0.152730       0.000006
     68 H                     0.138789      -0.000025
     69 H                     0.131517      -0.000159
     70 H                     0.205817      -0.000007
     71 H                     0.168940       0.000004
     72 H                     0.147780      -0.000001
     73 H                     0.140095      -0.000000
     74 H                     0.157147       0.000004
     75 H                     0.212325       0.000002
     76 H                     0.161151       0.000000
     77 H                     0.169942       0.000000
     78 H                     0.120261       0.000033
     79 H                     0.167827       0.000133
     80 H                     0.169960      -0.000033
     81 H                     0.143633       0.000086
     82 H                     0.176563       0.000005
     83 H                     0.168279       0.000005
     84 H                     0.136984       0.000001
     85 H                     0.170928       0.000000
     86 H                     0.180702      -0.000000
     87 H                     0.137961      -0.000001
     88 H                     0.140295       0.000000
     89 H                     0.193516      -0.000000
     90 H                     0.144569      -0.000000
     91 H                     0.181576       0.000000
     92 H                     0.143054      -0.000000
     93 H                     0.134337       0.000000
     94 H                     0.203573      -0.000000
     95 H                     0.146691      -0.000000
     96 H                     0.175629       0.000000
     97 H                     0.136591       0.000000
     98 H                     0.134758       0.000000
     99 H                     0.198573      -0.000000
    100 H                     0.142648      -0.000000
    101 H                     0.178839      -0.000000
    102 H                     0.140335      -0.000000
    103 H                     0.132930      -0.000000
    104 H                     0.212207       0.000000
    105 H                     0.137898       0.000000
    106 H                     0.169055      -0.000000
    107 H                     0.175048      -0.000000
    108 H                     0.138977      -0.000000
    109 H                     0.169718       0.000000
    110 H                     0.175412       0.000000
    111 H                     0.141070      -0.000000
    112 H                     0.170039      -0.000000
    113 H                     0.175410      -0.000000
    114 H                     0.142064      -0.000000
    115 H                     0.168771       0.000000
    116 H                     0.174964       0.000000
    117 H                     0.148582       0.000000
    118 H                     0.166196       0.000000
    119 H                     0.146039      -0.000000
    120 H                     0.141140      -0.000000
    121 H                     0.216606       0.000000
    122 H                     0.138508       0.000000
    123 H                     0.178577       0.000000
    124 H                     0.170045       0.000000
    125 H                     0.158546       0.000000
    126 H                     0.164055       0.000000
    127 H                     0.150806      -0.000000
    128 H                     0.147794      -0.000000
    129 H                     0.211071      -0.000000
    130 H                     0.127950       0.000000
    131 H                     0.166116       0.000000
    132 H                     0.180339      -0.000000
    133 H                     0.155116      -0.000000
    134 C                    -0.337160       0.000000
    135 H                     0.184643       0.000000
    136 C                    -0.042241      -0.000000
    137 C                     0.405407       0.000000
    138 C                    -0.641110      -0.000000
    139 C                    -0.691580      -0.000000
    140 H                     0.177921      -0.000000
    141 H                     0.121361       0.000000
    142 H                     0.177409       0.000000
    143 H                     0.162938      -0.000000
    144 H                     0.152483       0.000000
    145 H                     0.157970       0.000000
    146 H                     0.141176      -0.000000
    147 H                     0.158239       0.000000
    148 H                     0.154455       0.000000
    149 O                    -0.223773       0.000655
    150 O                    -0.229090       0.000657
    151 H                     0.190767       0.004767
    152 H                     0.177858      -0.001917
    153 H                     0.180880       0.002908
  --------------------------------------------------------
  Sum of atomic charges =    -1.000000

                    Cartesian Multipole Moments
 -----------------------------------------------------------------
    Charge (ESU x 10^10)
                -4.8032
    Dipole Moment (Debye)
         X      91.1828      Y       0.8873      Z      -3.4267
       Tot      91.2515
    Quadrupole Moments (Debye-Ang)
        XX   -2115.7727     XY     -37.9389     YY    -427.3761
        XZ     100.1556     YZ      15.2997     ZZ    -400.8310

 Total job time:  57972.78s(wall), 426446.68s(cpu)
        *  Thank you very much for using Q-Chem.  Have a nice day.  *
