 Q-Chem 5.4, Q-Chem, Inc., Pleasanton, CA (2021)
 Q-Chem 5.4.0 for Intel X86 EM64T Linux

User input:
--------------------------------------------------------------
$molecule
0 1
C                 -4.5815120000      0.2267800000      0.0184000000
C                 -3.1352910000     -0.1997940000      0.0207220000
C                 -2.7938400000     -1.5623630000     -0.0126890000
C                 -1.4686170000     -1.9704050000     -0.0124070000
C                 -0.4377710000     -1.0247680000      0.0215790000
C                  0.9772910000     -1.4875620000      0.0212130000
O                  1.2590240000     -2.6752570000     -0.0082820000
C                  2.0419220000     -0.4409580000      0.0583290000
C                  3.3829970000     -0.8364230000      0.0590130000
C                  4.3930930000      0.1176710000      0.0930620000
C                  4.0722280000      1.4776700000      0.1268000000
C                  2.7420200000      1.8802050000      0.1264350000
C                  1.7189910000      0.9274220000      0.0923090000
C                  0.2992110000      1.3885390000      0.0928270000
O                  0.0196590000      2.5762570000      0.1226610000
C                 -0.7634490000      0.3411970000      0.0554410000
C                 -2.1042520000      0.7373830000      0.0547010000
H                 -5.0912630000     -0.1216960000     -0.8851190000
H                 -4.6768200000      1.3126750000      0.0621310000
H                 -5.1164400000     -0.1954190000      0.8745210000
H                 -3.5821650000     -2.3081150000     -0.0390930000
H                 -1.2054030000     -3.0207130000     -0.0381290000
H                  3.6083370000     -1.8953670000      0.0325030000
H                  5.4313580000     -0.1943130000      0.0934140000
H                  4.8616120000      2.2202800000      0.1533140000
H                  2.4704240000      2.9282500000      0.1522780000
H                 -2.3213430000      1.7988240000      0.0815460000
$end

$rem
BASIS  =  6-311++G(d,p)
GUI  =  2
JOB_TYPE  =  SP
METHOD  =  B3LYP
SCF_CONVERGENCE  = 8
SOLVENT_METHOD = sm12
$end

$smx
solvent dimethylformamide
charges CM5
$end

--------------------------------------------------------------

             Standard Nuclear Orientation (Angstroms)
    I     Atom           X                Y                Z
 ----------------------------------------------------------------
    1      C      -4.5815120000     0.2267800000     0.0184000000
    2      C      -3.1352910000    -0.1997940000     0.0207220000
    3      C      -2.7938400000    -1.5623630000    -0.0126890000
    4      C      -1.4686170000    -1.9704050000    -0.0124070000
    5      C      -0.4377710000    -1.0247680000     0.0215790000
    6      C       0.9772910000    -1.4875620000     0.0212130000
    7      O       1.2590240000    -2.6752570000    -0.0082820000
    8      C       2.0419220000    -0.4409580000     0.0583290000
    9      C       3.3829970000    -0.8364230000     0.0590130000
   10      C       4.3930930000     0.1176710000     0.0930620000
   11      C       4.0722280000     1.4776700000     0.1268000000
   12      C       2.7420200000     1.8802050000     0.1264350000
   13      C       1.7189910000     0.9274220000     0.0923090000
   14      C       0.2992110000     1.3885390000     0.0928270000
   15      O       0.0196590000     2.5762570000     0.1226610000
   16      C      -0.7634490000     0.3411970000     0.0554410000
   17      C      -2.1042520000     0.7373830000     0.0547010000
   18      H      -5.0912630000    -0.1216960000    -0.8851190000
   19      H      -4.6768200000     1.3126750000     0.0621310000
   20      H      -5.1164400000    -0.1954190000     0.8745210000
   21      H      -3.5821650000    -2.3081150000    -0.0390930000
   22      H      -1.2054030000    -3.0207130000    -0.0381290000
   23      H       3.6083370000    -1.8953670000     0.0325030000
   24      H       5.4313580000    -0.1943130000     0.0934140000
   25      H       4.8616120000     2.2202800000     0.1533140000
   26      H       2.4704240000     2.9282500000     0.1522780000
   27      H      -2.3213430000     1.7988240000     0.0815460000
 ----------------------------------------------------------------

   15    -728.2812039447      2.96e-09  Convergence criterion met
 Total energy in the final basis set =     -728.3026343544

                    Orbital Energies (a.u.)
 --------------------------------------------------------------

 Alpha MOs
 -- Occupied --
-19.1289 -19.1273 -10.2809 -10.2797 -10.2085 -10.2080 -10.2076 -10.2066
-10.2051 -10.1980 -10.1975 -10.1969 -10.1968 -10.1961 -10.1941 -10.1931
-10.1703  -1.0636  -1.0613  -0.8935  -0.8825  -0.8179  -0.7846  -0.7778
 -0.7729  -0.7150  -0.6835  -0.6586  -0.6314  -0.6146  -0.5858  -0.5589
 -0.5464  -0.5032  -0.4903  -0.4852  -0.4714  -0.4555  -0.4535  -0.4517
 -0.4485  -0.4434  -0.4329  -0.4262  -0.4175  -0.3944  -0.3879  -0.3862
 -0.3711  -0.3704  -0.3605  -0.3604  -0.2866  -0.2856  -0.2792  -0.2759
 -0.2730  -0.2677

          Ground-State Mulliken Net Atomic Charges

     Atom                 Charge (a.u.)
  ----------------------------------------
      1 C                     0.692605
      2 C                     1.195645
      3 C                     0.377943
      4 C                     0.220437
      5 C                    -0.746925
      6 C                    -1.750004
      7 O                    -0.260487
      8 C                    -0.534519
      9 C                     0.169109
     10 C                     0.459301
     11 C                     0.399307
     12 C                     0.124435
     13 C                    -0.143046
     14 C                    -1.328693
     15 O                    -0.258189
     16 C                    -0.710780
     17 C                    -0.251966
     18 H                     0.215672
     19 H                     0.254426
     20 H                     0.214641
     21 H                     0.307263
     22 H                     0.204857
     23 H                     0.190506
     24 H                     0.330640
     25 H                     0.329515
     26 H                     0.190372
     27 H                     0.107932
  ----------------------------------------
  Sum of atomic charges =     0.000000

                    Cartesian Multipole Moments
 -----------------------------------------------------------------
    Charge (ESU x 10^10)
                 0.0000
    Dipole Moment (Debye)
         X      -0.9265      Y       0.1818      Z      -0.0068
       Tot       0.9442
    Quadrupole Moments (Debye-Ang)
        XX     -64.7906     XY       9.2280     YY    -108.0868
        XZ       0.5162     YZ      -0.1105     ZZ    -100.8726

 Total job time:  524.22s(wall), 4111.63s(cpu)
        *  Thank you very much for using Q-Chem.  Have a nice day.  *
