 Gaussian 16, Revision A.03,
 Gaussian 16:  ES64L-G16RevA.03 25-Dec-2016

 --------------------------------------
 #P UB3LYP/6-311++G(d,p) nosym opt freq
 --------------------------------------

 --------
 Oxidized
 --------
 Symbolic Z-matrix:
 Charge =  0 Multiplicity = 1

 SCF Done:  E(UB3LYP) =  -1451.24694331     A.U. after   17 cycles
 SCF Done:  E(UB3LYP) =  -1451.27567665     A.U. after   15 cycles
 SCF Done:  E(UB3LYP) =  -1451.28302989     A.U. after   15 cycles
 SCF Done:  E(UB3LYP) =  -1451.28970078     A.U. after   16 cycles
 SCF Done:  E(UB3LYP) =  -1451.29366912     A.U. after   15 cycles
 SCF Done:  E(UB3LYP) =  -1451.29741727     A.U. after   15 cycles
 SCF Done:  E(UB3LYP) =  -1451.30567112     A.U. after   17 cycles
 SCF Done:  E(UB3LYP) =  -1451.30960999     A.U. after   15 cycles
 SCF Done:  E(UB3LYP) =  -1451.31317629     A.U. after   14 cycles
 SCF Done:  E(UB3LYP) =  -1451.31416679     A.U. after   15 cycles
 SCF Done:  E(UB3LYP) =  -1451.31460941     A.U. after   14 cycles
 SCF Done:  E(UB3LYP) =  -1451.31490823     A.U. after   15 cycles
 SCF Done:  E(UB3LYP) =  -1451.31492388     A.U. after   14 cycles
 SCF Done:  E(UB3LYP) =  -1451.31494048     A.U. after   12 cycles
 SCF Done:  E(UB3LYP) =  -1451.31494180     A.U. after   12 cycles
 SCF Done:  E(UB3LYP) =  -1451.31494222     A.U. after   10 cycles
 Optimization completed.
    -- Stationary point found.
 Normal termination of Gaussian 16 at Wed Dec 20 01:53:45 2023.

 ----------------------------------------------------------------------
 #P Geom=AllCheck Guess=TCheck SCRF=Check GenChk UB3LYP/6-311++G(d,p) F
 req
 ----------------------------------------------------------------------

 Structure from the checkpoint file:  "112.chk"
 --------
 Oxidized
 --------
 Charge =  0 Multiplicity = 1

                          Input orientation:
 ---------------------------------------------------------------------
 Center     Atomic      Atomic             Coordinates (Angstroms)
 Number     Number       Type             X           Y           Z
 ---------------------------------------------------------------------
      1          8           0        2.542878   -0.980269   -0.251071
      2          6           0        1.352143   -0.420423   -0.125327
      3          6           0        1.154554    0.913668   -0.006679
      4         17           0        2.461244    2.046548   -0.006487
      5          6           0       -0.203584    1.416058    0.124997
      6          8           0       -0.514313    2.590389    0.238678
      7          6           0       -1.352238    0.420425    0.125404
      8          6           0       -1.154632   -0.913665    0.006821
      9         17           0       -2.461212   -2.046595    0.006811
     10          6           0        0.203520   -1.415961   -0.125302
     11          8           0        0.514414   -2.590254   -0.238985
     12          8           0       -2.543009    0.980199    0.250974
     13          1           0        2.385578   -1.945307   -0.316501
     14          1           0       -2.385344    1.945186    0.316667
 ---------------------------------------------------------------------

 SCF Done:  E(UB3LYP) =  -1451.31494222     A.U. after    3 cycles

 Alpha  occ. eigenvalues -- -101.58330-101.58330 -19.21420 -19.21419 -19.17473
 Alpha  occ. eigenvalues --  -19.17471 -10.32432 -10.32430 -10.30995 -10.30994
 Alpha  occ. eigenvalues --  -10.27593 -10.27592  -9.49753  -9.49752  -7.26266
 Alpha  occ. eigenvalues --   -7.26266  -7.25229  -7.25228  -7.25153  -7.25153
 Alpha  occ. eigenvalues --   -1.14796  -1.14534  -1.09875  -1.09750  -0.92765
 Alpha  occ. eigenvalues --   -0.90926  -0.84910  -0.78210  -0.73476  -0.68110
 Alpha  occ. eigenvalues --   -0.64405  -0.63035  -0.58035  -0.57216  -0.51484
 Alpha  occ. eigenvalues --   -0.50342  -0.50170  -0.48683  -0.48544  -0.47634
 Alpha  occ. eigenvalues --   -0.45098  -0.43736  -0.42288  -0.41986  -0.37905
 Alpha  occ. eigenvalues --   -0.37459  -0.35108  -0.34397  -0.33073  -0.32666
 Alpha  occ. eigenvalues --   -0.30194  -0.26991
 Alpha virt. eigenvalues --   -0.15712  -0.03750  -0.03151  -0.02582  -0.00851
 Alpha virt. eigenvalues --   -0.00140   0.00407   0.02308   0.02779   0.03519
 Alpha virt. eigenvalues --    0.05096   0.05727   0.06717   0.07450   0.07607

  Beta  occ. eigenvalues -- -101.58330-101.58330 -19.21420 -19.21419 -19.17473
  Beta  occ. eigenvalues --  -19.17471 -10.32432 -10.32430 -10.30995 -10.30994
  Beta  occ. eigenvalues --  -10.27593 -10.27592  -9.49753  -9.49752  -7.26266
  Beta  occ. eigenvalues --   -7.26266  -7.25229  -7.25228  -7.25153  -7.25153
  Beta  occ. eigenvalues --   -1.14796  -1.14534  -1.09875  -1.09750  -0.92765
  Beta  occ. eigenvalues --   -0.90926  -0.84910  -0.78210  -0.73476  -0.68110
  Beta  occ. eigenvalues --   -0.64405  -0.63035  -0.58035  -0.57216  -0.51484
  Beta  occ. eigenvalues --   -0.50342  -0.50170  -0.48683  -0.48544  -0.47634
  Beta  occ. eigenvalues --   -0.45098  -0.43736  -0.42288  -0.41986  -0.37905
  Beta  occ. eigenvalues --   -0.37459  -0.35108  -0.34397  -0.33073  -0.32666
  Beta  occ. eigenvalues --   -0.30194  -0.26991
  Beta virt. eigenvalues --   -0.15712  -0.03750  -0.03151  -0.02582  -0.00851
  Beta virt. eigenvalues --   -0.00140   0.00407   0.02308   0.02779   0.03519
  Beta virt. eigenvalues --    0.05096   0.05727   0.06717   0.07450   0.07607

 Mulliken charges and spin densities:
               1          2
     1  O   -0.130249   0.000000
     2  C   -1.306775  -0.000000
     3  C    1.999043   0.000000
     4  Cl   0.301374  -0.000000
     5  C   -0.921099   0.000000
     6  O   -0.234665  -0.000000
     7  C   -1.306434  -0.000000
     8  C    1.998890   0.000000
     9  Cl   0.301354  -0.000000
    10  C   -0.921233  -0.000000
    11  O   -0.234715   0.000000
    12  O   -0.130197  -0.000000
    13  H    0.292366  -0.000000
    14  H    0.292340  -0.000000
 Sum of Mulliken charges =  -0.00000  -0.00000

 Dipole moment (field-independent basis, Debye):
    X=              0.0002    Y=             -0.0004    Z=              0.0005  Tot=              0.0006
 Quadrupole moment (field-independent basis, Debye-Ang):
   XX=            -83.1417   YY=            -88.8438   ZZ=            -79.7863
   XY=             -5.5936   XZ=             -0.2132   YZ=             -0.3271

  Exact polarizability: 126.760   2.988 157.298  -4.607   7.786  56.751
 Approx polarizability: 183.641 -32.265 320.040  -9.258  20.694  87.499

                      1                      2                      3
                      A                      A                      A
 Frequencies --     70.4039                99.5187               122.1308
 Red. masses --     19.1091                13.0706                15.3250
 Frc consts  --      0.0558                 0.0763                 0.1347
 IR Inten    --      0.0087                 1.8233                 0.0000

                      4                      5                      6
                      A                      A                      A
 Frequencies --    189.4908               192.1420               212.3043
 Red. masses --     20.5937                 9.6146                14.0799
 Frc consts  --      0.4357                 0.2091                 0.3739
 IR Inten    --      0.0649                 1.7139                 0.0000

                      7                      8                      9
                      A                      A                      A
 Frequencies --    278.6859               308.2226               322.6436
 Red. masses --     13.6371                11.8342                 6.7357
 Frc consts  --      0.6240                 0.6624                 0.4131
 IR Inten    --      0.0000                 0.0000                23.7242

                     10                     11                     12
                      A                      A                      A
 Frequencies --    378.6991               394.7134               412.8494
 Red. masses --      7.7955                11.1532                13.3507
 Frc consts  --      0.6587                 1.0238                 1.3407
 IR Inten    --      0.0003                40.7485                 0.0001

                     13                     14                     15
                      A                      A                      A
 Frequencies --    500.0302               529.6475               557.8671
 Red. masses --     12.4491                12.8931                15.6898
 Frc consts  --      1.8339                 2.1310                 2.8769
 IR Inten    --      0.0000                 0.0000                14.1123

                     16                     17                     18
                      A                      A                      A
 Frequencies --    588.6863               692.2858               702.3946
 Red. masses --     12.0029                 1.2323                 1.0807
 Frc consts  --      2.4508                 0.3480                 0.3141
 IR Inten    --     18.6706               153.3456                 0.0190

                     19                     20                     21
                      A                      A                      A
 Frequencies --    724.4450               749.3454               783.3753
 Red. masses --     10.2155                 4.9769                 7.3482
 Frc consts  --      3.1588                 1.6466                 2.6569
 IR Inten    --      0.0000                51.3939                 0.0000

                     22                     23                     24
                      A                      A                      A
 Frequencies --    850.2319               905.3877               983.3344
 Red. masses --      8.6967                11.9621                 8.1428
 Frc consts  --      3.7041                 5.7773                 4.6390
 IR Inten    --    104.8231                 0.0000               156.5065

                     25                     26                     27
                      A                      A                      A
 Frequencies --   1236.7053              1239.6389              1268.9602
 Red. masses --      3.2602                 3.9334                 5.8704
 Frc consts  --      2.9378                 3.5613                 5.5695
 IR Inten    --      0.0611               110.7506                 0.0008

                     28                     29                     30
                      A                      A                      A
 Frequencies --   1326.7417              1377.9047              1403.2850
 Red. masses --      4.4768                 2.3371                 2.1190
 Frc consts  --      4.6430                 2.6143                 2.4585
 IR Inten    --    249.0144               951.1837                 0.0199

                     31                     32                     33
                      A                      A                      A
 Frequencies --   1675.1836              1683.0473              1718.2491
 Red. masses --      6.8949                10.4732                12.7301
 Frc consts  --     11.3999                17.4792                22.1439
 IR Inten    --    304.1713                 0.0036               457.8264

                     34                     35                     36
                      A                      A                      A
 Frequencies --   1727.7250              3558.4035              3564.4214
 Red. masses --      9.7680                 1.0638                 1.0641
 Frc consts  --     17.1793                 7.9365                 7.9652
 IR Inten    --      0.0006                 0.3621               332.5582

 - Thermochemistry -
 -------------------
 Temperature   298.150 Kelvin.  Pressure   1.00000 Atm.
 Atom     1 has atomic number  8 and mass  15.99491

 Molecular mass:   207.93301 amu.
 Principal axes and moments of inertia in atomic units:
                           1         2         3
     Eigenvalues --  1591.951513230.645234822.59665
           X            0.78613  -0.61433   0.06787
           Y            0.61804   0.78223  -0.07833
           Z           -0.00497   0.10352   0.99461
 This molecule is an asymmetric top.
 Rotational symmetry number  1.
 Warning -- assumption of classical behavior for rotation
           may cause significant error
 Rotational temperatures (Kelvin)      0.05441     0.02681     0.01796
 Rotational constants (GHZ):           1.13367     0.55863     0.37423
 Zero-point vibrational energy     199352.3 (Joules/Mol)
                                   47.64634 (Kcal/Mol)
 Warning -- explicit consideration of  16 degrees of freedom as
           vibrations may cause significant error
 Vibrational temperatures:    101.30   143.19   175.72   272.63   276.45
          (Kelvin)            305.46   400.97   443.46   464.21   544.86
                              567.90   594.00   719.43   762.04   802.65
                              846.99   996.04  1010.59  1042.31  1078.14
                             1127.10  1223.29  1302.65  1414.80  1779.34
                             1783.56  1825.75  1908.89  1982.50  2019.01
                             2410.22  2421.53  2472.18  2485.81  5119.75
                             5128.41

 Zero-point correction=                           0.075929 (Hartree/Particle)
 Thermal correction to Energy=                    0.086387
 Thermal correction to Enthalpy=                  0.087331
 Thermal correction to Gibbs Free Energy=         0.038878
 Sum of electronic and zero-point Energies=          -1451.239013
 Sum of electronic and thermal Energies=             -1451.228555
 Sum of electronic and thermal Enthalpies=           -1451.227611
 Sum of electronic and thermal Free Energies=        -1451.276064

                     E (Thermal)             CV                S
                      KCal/Mol        Cal/Mol-Kelvin    Cal/Mol-Kelvin
 Total                   54.209             37.746            101.978
 Electronic               0.000              0.000              0.000
 Translational            0.889              2.981             41.900
 Rotational               0.889              2.981             31.584
 Vibrational             52.431             31.784             28.494
 Vibration     1          0.598              1.968              4.142
 Vibration     2          0.604              1.949              3.464
 Vibration     3          0.610              1.931              3.066
 Vibration     4          0.633              1.854              2.233
 Vibration     5          0.634              1.851              2.207
 Vibration     6          0.643              1.822              2.024
 Vibration     7          0.679              1.713              1.542
 Vibration     8          0.698              1.658              1.372
 Vibration     9          0.708              1.630              1.297
 Vibration    10          0.749              1.516              1.044
 Vibration    11          0.762              1.481              0.982
 Vibration    12          0.777              1.442              0.917
 Vibration    13          0.855              1.250              0.658
 Vibration    14          0.885              1.184              0.588
 Vibration    15          0.913              1.123              0.528
 Vibration    16          0.946              1.056              0.470

 Optimization completed.
    -- Stationary point found.
 Normal termination of Gaussian 16 at Wed Dec 20 02:02:00 2023.
