 Gaussian 16, Revision A.03,
 Gaussian 16:  ES64L-G16RevA.03 25-Dec-2016

 ----------------------------------------------------------------
 #P UB3LYP/6-311++G(d,p) SCRF=(PCM,Solvent=n,n-DiMethylFormamide)
 ----------------------------------------------------------------

 ------------------
 Quinone PCM in DMF
 ------------------
 Symbolic Z-matrix:
 Charge =  0 Multiplicity = 1

                         Standard orientation:
 ---------------------------------------------------------------------
 Center     Atomic      Atomic             Coordinates (Angstroms)
 Number     Number       Type             X           Y           Z
 ---------------------------------------------------------------------
      1          6           0       -2.273133   -0.278014   -0.126033
      2          6           0       -2.607315    1.166346   -0.172940
      3          6           0       -1.668222    2.114275   -0.088246
      4          6           0       -0.234322    1.769922    0.060435
      5          6           0        0.128343    0.323211    0.126687
      6          6           0       -0.818730   -0.625650    0.033912
      7          8           0       -3.131863   -1.129057   -0.216473
      8          8           0        0.622608    2.631862    0.125300
      9         17           0       -0.446112   -2.315210    0.086483
     10          6           0        1.587231    0.019130    0.349140
     11          8           0        2.071076   -0.122352    1.440686
     12          8           0        2.243340   -0.049893   -0.811247
     13          6           0        3.666747   -0.290817   -0.721314
     14          1           0       -3.661925    1.391927   -0.282504
     15          1           0       -1.897225    3.173280   -0.123811
     16          1           0        4.018146   -0.310470   -1.749590
     17          1           0        3.854846   -1.244494   -0.227904
     18          1           0        4.145188    0.513425   -0.162369
 ---------------------------------------------------------------------

 SCF Done:  E(UB3LYP) =  -1069.12800382     A.U. after   16 cycles

 The electronic state is 1-A.
 Alpha  occ. eigenvalues -- -101.58860 -19.19793 -19.16269 -19.16005 -19.14772
 Alpha  occ. eigenvalues --  -10.34041 -10.31141 -10.30940 -10.29000 -10.24653
 Alpha  occ. eigenvalues --  -10.23475 -10.22727 -10.22630  -9.50306  -7.26782
 Alpha  occ. eigenvalues --   -7.25811  -7.25710  -1.14214  -1.09667  -1.09194
 Alpha  occ. eigenvalues --   -1.05787  -0.92632  -0.86610  -0.81348  -0.75440
 Alpha  occ. eigenvalues --   -0.72533  -0.66972  -0.63095  -0.59464  -0.56082
 Alpha  occ. eigenvalues --   -0.54944  -0.51884  -0.51059  -0.50223  -0.49342
 Alpha  occ. eigenvalues --   -0.47531  -0.47407  -0.45742  -0.44801  -0.44080
 Alpha  occ. eigenvalues --   -0.43303  -0.41569  -0.39188  -0.38495  -0.34886
 Alpha  occ. eigenvalues --   -0.33651  -0.33059  -0.32572  -0.31219  -0.30243
 Alpha  occ. eigenvalues --   -0.29572
 Alpha virt. eigenvalues --   -0.15342  -0.05107  -0.03191  -0.02036  -0.01056
 Alpha virt. eigenvalues --   -0.00085   0.00471   0.01858   0.02394   0.03012
 Alpha virt. eigenvalues --    0.03575   0.04771   0.05219   0.05622   0.06251

  Beta  occ. eigenvalues -- -101.58860 -19.19793 -19.16269 -19.16005 -19.14772
  Beta  occ. eigenvalues --  -10.34041 -10.31141 -10.30940 -10.29000 -10.24653
  Beta  occ. eigenvalues --  -10.23475 -10.22727 -10.22630  -9.50306  -7.26782
  Beta  occ. eigenvalues --   -7.25811  -7.25710  -1.14214  -1.09667  -1.09194
  Beta  occ. eigenvalues --   -1.05787  -0.92632  -0.86610  -0.81348  -0.75440
  Beta  occ. eigenvalues --   -0.72533  -0.66972  -0.63095  -0.59464  -0.56082
  Beta  occ. eigenvalues --   -0.54944  -0.51884  -0.51059  -0.50223  -0.49342
  Beta  occ. eigenvalues --   -0.47531  -0.47407  -0.45742  -0.44801  -0.44080
  Beta  occ. eigenvalues --   -0.43303  -0.41569  -0.39188  -0.38495  -0.34886
  Beta  occ. eigenvalues --   -0.33651  -0.33059  -0.32572  -0.31219  -0.30243
  Beta  occ. eigenvalues --   -0.29572
  Beta virt. eigenvalues --   -0.15342  -0.05107  -0.03191  -0.02036  -0.01056
  Beta virt. eigenvalues --   -0.00085   0.00471   0.01858   0.02394   0.03012
  Beta virt. eigenvalues --    0.03575   0.04771   0.05219   0.05622   0.06251

 Mulliken charges and spin densities:
               1          2
     1  C   -0.555186   0.000000
     2  C    0.140122  -0.000000
     3  C    0.243503  -0.000000
     4  C   -0.736610  -0.000000
     5  C    0.531990   0.000000
     6  C    0.312804  -0.000000
     7  O   -0.213974  -0.000000
     8  O   -0.215114  -0.000000
     9  Cl   0.557150   0.000000
    10  C   -0.730610  -0.000000
    11  O   -0.193459   0.000000
    12  O    0.027855   0.000000
    13  C   -0.233905   0.000000
    14  H    0.256596  -0.000000
    15  H    0.254209  -0.000000
    16  H    0.180386  -0.000000
    17  H    0.185594   0.000000
    18  H    0.188651  -0.000000
 Sum of Mulliken charges =  -0.00000  -0.00000

 Dipole moment (field-independent basis, Debye):
    X=             -0.0939    Y=              1.3633    Z=             -2.3385  Tot=              2.7085
 Quadrupole moment (field-independent basis, Debye-Ang):
   XX=            -72.6171   YY=            -83.9309   ZZ=            -84.3772
   XY=            -16.3154   XZ=             -7.3208   YZ=             -0.5362

 Normal termination of Gaussian 16 at Wed Jan 24 22:49:06 2024.
