 Gaussian 16, Revision A.03,
 Gaussian 16:  ES64L-G16RevA.03 25-Dec-2016

 ----------------------------------------------------------------------
 #P UB3LYP/6-311++G(d,p) nosym opt freq SCRF=(PCM,Solvent=n,n-DiMethylF
 ormamide)
 ----------------------------------------------------------------------

 -------
 Reduced
 -------
 Symbolic Z-matrix:
 Charge = -2 Multiplicity = 1

 SCF Done:  E(UB3LYP) =  -610.753964698     A.U. after   18 cycles
 SCF Done:  E(UB3LYP) =  -610.756641583     A.U. after   14 cycles
 SCF Done:  E(UB3LYP) =  -610.757090857     A.U. after   15 cycles
 SCF Done:  E(UB3LYP) =  -610.757089367     A.U. after   14 cycles
 SCF Done:  E(UB3LYP) =  -610.757534567     A.U. after   13 cycles
 SCF Done:  E(UB3LYP) =  -610.757653586     A.U. after   14 cycles
 SCF Done:  E(UB3LYP) =  -610.757688115     A.U. after   14 cycles
 SCF Done:  E(UB3LYP) =  -610.757750549     A.U. after   13 cycles
 SCF Done:  E(UB3LYP) =  -610.757759371     A.U. after   11 cycles
 SCF Done:  E(UB3LYP) =  -610.757763457     A.U. after   13 cycles
 SCF Done:  E(UB3LYP) =  -610.757763600     A.U. after   10 cycles
 SCF Done:  E(UB3LYP) =  -610.757763616     A.U. after    9 cycles
 Optimization completed.
    -- Stationary point found.
 Normal termination of Gaussian 16 at Sun Feb 11 16:11:19 2024.

 ----------------------------------------------------------------------
 #P Geom=AllCheck Guess=TCheck SCRF=Check GenChk UB3LYP/6-311++G(d,p) F
 req
 ----------------------------------------------------------------------

 Structure from the checkpoint file:  "325-an.chk"
 -------
 Reduced
 -------
 Charge = -2 Multiplicity = 1

                          Input orientation:
 ---------------------------------------------------------------------
 Center     Atomic      Atomic             Coordinates (Angstroms)
 Number     Number       Type             X           Y           Z
 ---------------------------------------------------------------------
      1          6           0       -1.790708    2.799721   -0.748611
      2          6           0       -2.895756    2.006922   -0.535628
      3          6           0       -2.734951    0.640627   -0.165535
      4          6           0       -0.454722    2.313912   -0.614134
      5          6           0       -0.305278    0.914971   -0.232004
      6          6           0       -1.467379    0.121185   -0.020808
      7          6           0        0.660394    3.191168   -0.852515
      8          6           0        1.996078    2.628387   -0.689697
      9          6           0        2.090381    1.250721   -0.311317
     10          6           0        1.001188    0.422991   -0.091526
     11          8           0        0.486800    4.439673   -1.198384
     12          8           0        3.074171    3.334004   -0.876356
     13          1           0       -1.910777    3.839750   -1.031196
     14          1           0       -3.893624    2.420563   -0.649241
     15          1           0       -3.605880    0.014507    0.000824
     16          1           0       -1.338063   -0.918869    0.260524
     17          1           0        3.095789    0.845218   -0.194347
     18          8           0        1.164996   -0.920062    0.275268
     19          1           0        2.109289   -1.107017    0.310118
 ---------------------------------------------------------------------

 SCF Done:  E(UB3LYP) =  -610.757763616     A.U. after    1 cycles

 Alpha  occ. eigenvalues --  -19.12839 -19.01549 -19.00979 -10.18868 -10.16725
 Alpha  occ. eigenvalues --  -10.15931 -10.14982 -10.14498 -10.14445 -10.14182
 Alpha  occ. eigenvalues --  -10.14124 -10.13318 -10.12605  -1.02962  -0.93297
 Alpha  occ. eigenvalues --   -0.90233  -0.82617  -0.76737  -0.72393  -0.69299
 Alpha  occ. eigenvalues --   -0.64935  -0.59123  -0.56264  -0.55368  -0.49498
 Alpha  occ. eigenvalues --   -0.47764  -0.46774  -0.41825  -0.41009  -0.39741
 Alpha  occ. eigenvalues --   -0.38864  -0.38386  -0.36671  -0.35402  -0.34639
 Alpha  occ. eigenvalues --   -0.34173  -0.32610  -0.31568  -0.30438  -0.27424
 Alpha  occ. eigenvalues --   -0.24918  -0.22507  -0.19983  -0.18501  -0.18209
 Alpha  occ. eigenvalues --   -0.11123
 Alpha virt. eigenvalues --   -0.00896   0.00019   0.00955   0.01817   0.02456
 Alpha virt. eigenvalues --    0.03204   0.03283   0.05372   0.05612   0.06099
 Alpha virt. eigenvalues --    0.06402   0.07295   0.07651   0.08630   0.09204

  Beta  occ. eigenvalues --  -19.12839 -19.01549 -19.00979 -10.18868 -10.16725
  Beta  occ. eigenvalues --  -10.15931 -10.14982 -10.14498 -10.14445 -10.14182
  Beta  occ. eigenvalues --  -10.14124 -10.13318 -10.12605  -1.02962  -0.93297
  Beta  occ. eigenvalues --   -0.90233  -0.82617  -0.76737  -0.72393  -0.69299
  Beta  occ. eigenvalues --   -0.64935  -0.59123  -0.56264  -0.55368  -0.49498
  Beta  occ. eigenvalues --   -0.47764  -0.46774  -0.41825  -0.41009  -0.39741
  Beta  occ. eigenvalues --   -0.38864  -0.38386  -0.36671  -0.35402  -0.34639
  Beta  occ. eigenvalues --   -0.34173  -0.32610  -0.31568  -0.30438  -0.27424
  Beta  occ. eigenvalues --   -0.24918  -0.22507  -0.19983  -0.18501  -0.18209
  Beta  occ. eigenvalues --   -0.11123
  Beta virt. eigenvalues --   -0.00896   0.00019   0.00955   0.01817   0.02456
  Beta virt. eigenvalues --    0.03204   0.03283   0.05372   0.05612   0.06099
  Beta virt. eigenvalues --    0.06402   0.07295   0.07651   0.08630   0.09204

 Mulliken charges and spin densities:
               1          2
     1  C    0.049618   0.000000
     2  C   -0.406852  -0.000000
     3  C   -0.461063   0.000000
     4  C    0.120297  -0.000000
     5  C   -0.077227   0.000000
     6  C    0.116470   0.000000
     7  C   -0.398225  -0.000000
     8  C   -0.237395   0.000000
     9  C    0.259667  -0.000000
    10  C   -0.163813  -0.000000
    11  O   -0.734706   0.000000
    12  O   -0.722390  -0.000000
    13  H    0.136468   0.000000
    14  H    0.153779  -0.000000
    15  H    0.153309  -0.000000
    16  H    0.150413   0.000000
    17  H    0.118275  -0.000000
    18  O   -0.337789   0.000000
    19  H    0.281165   0.000000
 Sum of Mulliken charges =  -2.00000   0.00000

 Dipole moment (field-independent basis, Debye):
    X=             -9.4767    Y=            -30.4233    Z=              8.0589  Tot=             32.8684
 Quadrupole moment (field-independent basis, Debye-Ang):
   XX=           -119.3898   YY=           -201.4965   ZZ=            -94.7054
   XY=            -44.6407   XZ=             11.7645   YZ=             30.7994

  Exact polarizability: 352.617  34.285 258.895  -8.489 -38.020 129.791
 Approx polarizability: 402.697  40.124 300.910  -9.954 -46.965 141.506

                      1                      2                      3
                      A                      A                      A
 Frequencies --     99.2675               124.8635               172.4168
 Red. masses --      7.0862                 4.0560                 5.2063
 Frc consts  --      0.0411                 0.0373                 0.0912
 IR Inten    --      4.1133                 1.5797                 1.1604

                      4                      5                      6
                      A                      A                      A
 Frequencies --    179.7216               241.7315               253.6766
 Red. masses --      1.1950                 5.4313                 5.6245
 Frc consts  --      0.0227                 0.1870                 0.2133
 IR Inten    --    157.2211                 5.3111                18.5763

                      7                      8                      9
                      A                      A                      A
 Frequencies --    327.8052               354.9427               381.3175
 Red. masses --      6.7345                14.5213                 8.2180
 Frc consts  --      0.4264                 1.0779                 0.7040
 IR Inten    --     18.5422                 3.4575                 0.5729

                     10                     11                     12
                      A                      A                      A
 Frequencies --    422.6620               426.2881               474.3786
 Red. masses --      3.1979                10.1913                 8.6247
 Frc consts  --      0.3366                 1.0912                 1.1435
 IR Inten    --      8.5194                24.4063                 3.7296

                     13                     14                     15
                      A                      A                      A
 Frequencies --    518.0831               520.0964               592.1040
 Red. masses --      6.8908                 3.5006                 4.1020
 Frc consts  --      1.0897                 0.5579                 0.8473
 IR Inten    --      1.8227                 9.8222                 4.9739

                     16                     17                     18
                      A                      A                      A
 Frequencies --    639.6363               666.7498               696.4182
 Red. masses --      6.6316                 5.5972                 4.4019
 Frc consts  --      1.5986                 1.4660                 1.2579
 IR Inten    --     58.7439                10.8802                15.8721

                     19                     20                     21
                      A                      A                      A
 Frequencies --    717.2645               734.0598               758.7965
 Red. masses --      6.6682                 1.7791                 3.0841
 Frc consts  --      2.0212                 0.5648                 1.0462
 IR Inten    --     51.0470               115.3884                15.4049

                     22                     23                     24
                      A                      A                      A
 Frequencies --    801.7487               822.8672               826.8368
 Red. masses --      1.5814                 4.0739                 1.4819
 Frc consts  --      0.5989                 1.6252                 0.5969
 IR Inten    --     52.0018                15.6748                 1.4852

                     25                     26                     27
                      A                      A                      A
 Frequencies --    947.3473               972.0316               982.5196
 Red. masses --      1.3145                 1.2517                 6.8621
 Frc consts  --      0.6951                 0.6968                 3.9029
 IR Inten    --      2.2834                 1.4480                99.4868

                     28                     29                     30
                      A                      A                      A
 Frequencies --   1015.9199              1031.8475              1122.0916
 Red. masses --      2.0325                 6.6346                 1.6833
 Frc consts  --      1.2360                 4.1619                 1.2487
 IR Inten    --     52.5593               494.6254                25.7767

                     31                     32                     33
                      A                      A                      A
 Frequencies --   1142.5834              1179.5195              1203.9175
 Red. masses --      1.3160                 1.4520                 1.8376
 Frc consts  --      1.0123                 1.1903                 1.5693
 IR Inten    --    272.8525                70.4583               147.6152

                     34                     35                     36
                      A                      A                      A
 Frequencies --   1218.2813              1246.6904              1286.7714
 Red. masses --      1.9846                 4.4572                 2.1816
 Frc consts  --      1.7355                 4.0816                 2.1283
 IR Inten    --    763.4014                38.6487               303.0700

                     37                     38                     39
                      A                      A                      A
 Frequencies --   1320.6089              1358.2031              1405.4411
 Red. masses --      4.8651                 7.9115                 4.5690
 Frc consts  --      4.9990                 8.5988                 5.3174
 IR Inten    --    975.2482               887.2788               525.5750

                     40                     41                     42
                      A                      A                      A
 Frequencies --   1435.1868              1464.1621              1512.4940
 Red. masses --      2.7119                 2.5984                 3.7835
 Frc consts  --      3.2910                 3.2820                 5.0995
 IR Inten    --     30.5959               355.7582               320.6356

                     43                     44                     45
                      A                      A                      A
 Frequencies --   1551.8726              1581.4379              1608.3354
 Red. masses --      6.5889                 6.6223                 5.3176
 Frc consts  --      9.3493                 9.7580                 8.1044
 IR Inten    --     14.8579               224.1953                29.2016

                     46                     47                     48
                      A                      A                      A
 Frequencies --   3097.0492              3136.7287              3150.5923
 Red. masses --      1.0882                 1.0844                 1.0876
 Frc consts  --      6.1495                 6.2864                 6.3605
 IR Inten    --    107.2918                19.0376                24.5400

                     49                     50                     51
                      A                      A                      A
 Frequencies --   3166.3855              3173.8808              3826.5264
 Red. masses --      1.0933                 1.0932                 1.0662
 Frc consts  --      6.4584                 6.4881                 9.1982
 IR Inten    --     67.9386                56.5243                92.1691

 - Thermochemistry -
 -------------------
 Temperature   298.150 Kelvin.  Pressure   1.00000 Atm.
 Atom     1 has atomic number  6 and mass  12.00000

 Molecular mass:   174.03169 amu.
 Principal axes and moments of inertia in atomic units:
                           1         2         3
     Eigenvalues --  1494.121172269.505393763.61304
           X            0.90796  -0.41904  -0.00359
           Y            0.40506   0.87542   0.26373
           Z           -0.10737  -0.24092   0.96459
 This molecule is an asymmetric top.
 Rotational symmetry number  1.
 Warning -- assumption of classical behavior for rotation
           may cause significant error
 Rotational temperatures (Kelvin)      0.05797     0.03816     0.02301
 Rotational constants (GHZ):           1.20789     0.79521     0.47952
 Zero-point vibrational energy     346272.0 (Joules/Mol)
                                   82.76100 (Kcal/Mol)
 Warning -- explicit consideration of  15 degrees of freedom as
           vibrations may cause significant error
 Vibrational temperatures:    142.82   179.65   248.07   258.58   347.80
          (Kelvin)            364.98   471.64   510.68   548.63   608.12
                              613.33   682.53   745.41   748.30   851.91
                              920.29   959.30  1001.99  1031.98  1056.15
                             1091.74  1153.54  1183.92  1189.63  1363.02
                             1398.54  1413.63  1461.68  1484.60  1614.44
                             1643.92  1697.07  1732.17  1752.84  1793.71
                             1851.38  1900.06  1954.15  2022.12  2064.91
                             2106.60  2176.14  2232.80  2275.34  2314.04
                             4455.96  4513.05  4533.00  4555.72  4566.51
                             5505.52

 Zero-point correction=                           0.131888 (Hartree/Particle)
 Thermal correction to Energy=                    0.142059
 Thermal correction to Enthalpy=                  0.143003
 Thermal correction to Gibbs Free Energy=         0.096451
 Sum of electronic and zero-point Energies=           -610.625876
 Sum of electronic and thermal Energies=              -610.615705
 Sum of electronic and thermal Enthalpies=            -610.614760
 Sum of electronic and thermal Free Energies=         -610.661313

                     E (Thermal)             CV                S
                      KCal/Mol        Cal/Mol-Kelvin    Cal/Mol-Kelvin
 Total                   89.143             40.432             97.978
 Electronic               0.000              0.000              0.000
 Translational            0.889              2.981             41.370
 Rotational               0.889              2.981             30.924
 Vibrational             87.366             34.471             25.685
 Vibration     1          0.604              1.950              3.469
 Vibration     2          0.610              1.928              3.024
 Vibration     3          0.626              1.876              2.409
 Vibration     4          0.629              1.867              2.331
 Vibration     5          0.658              1.776              1.790
 Vibration     6          0.665              1.757              1.705
 Vibration     7          0.711              1.620              1.271
 Vibration     8          0.731              1.565              1.144
 Vibration     9          0.751              1.510              1.034
 Vibration    10          0.785              1.421              0.883
 Vibration    11          0.788              1.413              0.871
 Vibration    12          0.831              1.307              0.725
 Vibration    13          0.873              1.210              0.614
 Vibration    14          0.875              1.205              0.610
 Vibration    15          0.950              1.049              0.463

 Optimization completed.
    -- Stationary point found.
 Normal termination of Gaussian 16 at Sun Feb 11 16:29:27 2024.
