 Q-Chem 5.4, Q-Chem, Inc., Pleasanton, CA (2021)
 Q-Chem 5.4.0 for Intel X86 EM64T Linux

User input:
--------------------------------------------------------------
$molecule
-1 2
C                  1.6267570000      0.9139680000     -0.6697280000
C                  0.3491510000      1.5684090000     -0.5268430000
C                 -0.7787370000      0.9095740000     -0.1161100000
C                 -0.7749320000     -0.5010990000      0.1960440000
C                  0.4982510000     -1.1994090000      0.0338980000
C                  1.6217150000     -0.5205760000     -0.3833380000
O                  2.6767640000      1.5392460000     -1.0053360000
O                 -1.8163850000     -1.1085840000      0.5802470000
C                  0.5196080000     -2.6694840000      0.3561880000
O                  2.8211580000     -1.2160370000     -0.4482100000
C                  3.4883820000     -1.1929920000     -1.7081490000
H                  0.3339260000      2.6326000000     -0.7459310000
H                 -1.7268370000      1.4281380000     -0.0038680000
H                  0.4340560000     -2.8328850000      1.4377290000
H                  1.4423270000     -3.1367620000      0.0116640000
H                 -0.3464510000     -3.1644900000     -0.0920940000
H                  4.3989480000     -1.7843500000     -1.5814370000
H                  3.7368310000     -0.1709610000     -1.9982530000
H                  2.8641760000     -1.6610000000     -2.4828620000
$end

$rem
BASIS  =  6-311++G(d,p)
GUI  =  2
JOB_TYPE  =  SP
METHOD  =  B3LYP
SCF_CONVERGENCE  = 8
SOLVENT_METHOD = sm12
$end

$smx
solvent dimethylformamide
charges CM5
$end

--------------------------------------------------------------

             Standard Nuclear Orientation (Angstroms)
    I     Atom           X                Y                Z
 ----------------------------------------------------------------
    1      C       1.6267570000     0.9139680000    -0.6697280000
    2      C       0.3491510000     1.5684090000    -0.5268430000
    3      C      -0.7787370000     0.9095740000    -0.1161100000
    4      C      -0.7749320000    -0.5010990000     0.1960440000
    5      C       0.4982510000    -1.1994090000     0.0338980000
    6      C       1.6217150000    -0.5205760000    -0.3833380000
    7      O       2.6767640000     1.5392460000    -1.0053360000
    8      O      -1.8163850000    -1.1085840000     0.5802470000
    9      C       0.5196080000    -2.6694840000     0.3561880000
   10      O       2.8211580000    -1.2160370000    -0.4482100000
   11      C       3.4883820000    -1.1929920000    -1.7081490000
   12      H       0.3339260000     2.6326000000    -0.7459310000
   13      H      -1.7268370000     1.4281380000    -0.0038680000
   14      H       0.4340560000    -2.8328850000     1.4377290000
   15      H       1.4423270000    -3.1367620000     0.0116640000
   16      H      -0.3464510000    -3.1644900000    -0.0920940000
   17      H       4.3989480000    -1.7843500000    -1.5814370000
   18      H       3.7368310000    -0.1709610000    -1.9982530000
   19      H       2.8641760000    -1.6610000000    -2.4828620000
 ----------------------------------------------------------------

   17    -535.5221204601      9.83e-09  Convergence criterion met
 Total energy in the final basis set =     -535.6041870295

                    Orbital Energies (a.u.)
 --------------------------------------------------------------

 Alpha MOs
 -- Occupied --
-19.1385 -19.0770 -19.0752 -10.2219 -10.2207 -10.2201 -10.2107 -10.1733
-10.1689 -10.1677 -10.1651  -1.0520  -0.9958  -0.9935  -0.8270  -0.7704
 -0.7184  -0.6726  -0.6691  -0.5845  -0.5670  -0.5021  -0.4903  -0.4619
 -0.4598  -0.4357  -0.4221  -0.4191  -0.4048  -0.3984  -0.3905  -0.3693
 -0.3686  -0.3656  -0.3457  -0.2958  -0.2806  -0.2446  -0.2376  -0.2338
 -0.1625

 Beta MOs
 -- Occupied --
-19.1383 -19.0696 -19.0681 -10.2205 -10.2198 -10.2190 -10.2107 -10.1725
-10.1677 -10.1661 -10.1652  -1.0510  -0.9836  -0.9807  -0.8214  -0.7677
 -0.7158  -0.6709  -0.6602  -0.5810  -0.5638  -0.5006  -0.4874  -0.4588
 -0.4566  -0.4341  -0.4176  -0.4162  -0.4022  -0.3926  -0.3761  -0.3670
 -0.3626  -0.3453  -0.3387  -0.2925  -0.2494  -0.2360  -0.2307  -0.2270

          Ground-State Mulliken Net Atomic Charges

     Atom                 Charge (a.u.)    Spin (a.u.)
  --------------------------------------------------------
      1 C                    -0.423865       0.069880
      2 C                     0.005471       0.102137
      3 C                     0.191620       0.122046
      4 C                    -1.924119       0.060702
      5 C                     1.704389       0.055871
      6 C                    -1.575527       0.064811
      7 O                    -0.354482       0.270239
      8 O                    -0.357317       0.256272
      9 C                     0.397773       0.008209
     10 O                    -0.099756       0.000491
     11 C                    -0.026763       0.001965
     12 H                     0.219201      -0.007750
     13 H                     0.204023      -0.010346
     14 H                     0.168275       0.003862
     15 H                     0.203789      -0.000102
     16 H                     0.157263       0.002641
     17 H                     0.243142       0.000156
     18 H                     0.133184      -0.001339
     19 H                     0.133698       0.000253
  --------------------------------------------------------
  Sum of atomic charges =    -1.000000

                    Cartesian Multipole Moments
 -----------------------------------------------------------------
    Charge (ESU x 10^10)
                -4.8032
    Dipole Moment (Debye)
         X      -2.0333      Y      -0.4738      Z      -0.0886
       Tot       2.0897
    Quadrupole Moments (Debye-Ang)
        XX     -94.4560     XY     -14.0558     YY     -78.8172
        XZ       5.0244     YZ       6.3551     ZZ     -70.5112

 Total job time:  229.73s(wall), 1781.87s(cpu)
        *  Thank you very much for using Q-Chem.  Have a nice day.  *
