 Gaussian 16, Revision A.03,
 Gaussian 16:  ES64L-G16RevA.03 25-Dec-2016

 ----------------------------------------------
 #P UB3LYP/6-311++G(d,p) nosym opt freq SCF=YQC
 ----------------------------------------------

 -------
 Reduced
 -------
 Symbolic Z-matrix:
 Charge = -2 Multiplicity = 1

 SCF Done:  E(UB3LYP) =  -610.426182354     a.u. after    8 cycles
 SCF Done:  E(UB3LYP) =  -610.434046338     A.U. after   33 cycles
 SCF Done:  E(UB3LYP) =  -610.434046458     a.u. after    2 cycles
 SCF Done:  E(UB3LYP) =  -610.474579079     a.u. after   39 cycles
 SCF Done:  E(UB3LYP) =  -610.474989440     A.U. after   29 cycles
 SCF Done:  E(UB3LYP) =  -610.479507500     a.u. after   43 cycles
 SCF Done:  E(UB3LYP) =  -610.481200703     A.U. after   21 cycles
 SCF Done:  E(UB3LYP) =  -610.496327295     a.u. after   27 cycles
 SCF Done:  E(UB3LYP) =  -610.496500270     A.U. after   16 cycles
 SCF Done:  E(UB3LYP) =  -610.502917335     a.u. after   25 cycles
 SCF Done:  E(UB3LYP) =  -610.515135815     a.u. after    9 cycles
 SCF Done:  E(UB3LYP) =  -610.515208265     A.U. after   14 cycles
 SCF Done:  E(UB3LYP) =  -610.515201610     a.u. after    3 cycles
 SCF Done:  E(UB3LYP) =  -610.515229862     A.U. after   13 cycles
 SCF Done:  E(UB3LYP) =  -610.515214405     a.u. after    1 cycles
 SCF Done:  E(UB3LYP) =  -610.515234116     A.U. after   12 cycles
 SCF Done:  E(UB3LYP) =  -610.515230352     a.u. after    1 cycles
 SCF Done:  E(UB3LYP) =  -610.515234493     A.U. after   11 cycles
 Optimization completed.
    -- Stationary point found.
 Normal termination of Gaussian 16 at Wed Dec 27 04:09:32 2023.

 ----------------------------------------------------------------------
 #P Geom=AllCheck Guess=TCheck SCRF=Check GenChk UB3LYP/6-311++G(d,p) F
 req
 ----------------------------------------------------------------------

 Structure from the checkpoint file:  "280-an.chk"
 -------
 Reduced
 -------
 Charge = -2 Multiplicity = 1

                          Input orientation:
 ---------------------------------------------------------------------
 Center     Atomic      Atomic             Coordinates (Angstroms)
 Number     Number       Type             X           Y           Z
 ---------------------------------------------------------------------
      1          8           0        2.366400    1.624413    0.354232
      2          6           0        1.730212    0.489060    0.228902
      3          6           0        2.394140   -0.755132    0.254897
      4          6           0        1.690280   -1.970524    0.118749
      5          6           0        0.317732   -1.994764   -0.046490
      6          6           0       -0.422373   -0.783178   -0.083608
      7          6           0       -1.886060   -0.841630   -0.261872
      8          8           0       -2.509330   -1.963229   -0.383881
      9          6           0       -2.526719    0.421894   -0.285554
     10          6           0       -1.830485    1.645810   -0.150092
     11          6           0       -0.460020    1.689020    0.016495
     12          8           0        0.195352    2.903412    0.146538
     13          6           0        0.275545    0.464124    0.053194
     14          1           0        1.164156    2.625467    0.251428
     15          1           0        3.474867   -0.743775    0.384969
     16          1           0        2.247363   -2.909368    0.145221
     17          1           0       -0.238257   -2.919652   -0.152330
     18          1           0       -3.608440    0.427913   -0.415355
     19          1           0       -2.374362    2.590138   -0.175442
 ---------------------------------------------------------------------

 SCF Done:  E(UB3LYP) =  -610.515234493     a.u. after    1 cycles
 SCF Done:  E(UB3LYP) =  -610.515234493     A.U. after    1 cycles

 Alpha  occ. eigenvalues --  -18.83492 -18.78652 -18.75400  -9.94002  -9.92670
 Alpha  occ. eigenvalues --   -9.91776  -9.89905  -9.88587  -9.88190  -9.88178
 Alpha  occ. eigenvalues --   -9.87725  -9.87588  -9.86691  -0.74636  -0.69181
 Alpha  occ. eigenvalues --   -0.66809  -0.55748  -0.51680  -0.44987  -0.43972
 Alpha  occ. eigenvalues --   -0.39643  -0.33393  -0.32014  -0.27043  -0.23227
 Alpha  occ. eigenvalues --   -0.21501  -0.20444  -0.18486  -0.14873  -0.13485
 Alpha  occ. eigenvalues --   -0.12692  -0.12408  -0.11420  -0.10029  -0.08851
 Alpha  occ. eigenvalues --   -0.07988  -0.07171  -0.06291  -0.05051  -0.02458
 Alpha  occ. eigenvalues --    0.01106   0.03856   0.03869   0.07111   0.07945
 Alpha  occ. eigenvalues --    0.13251
 Alpha virt. eigenvalues --    0.18164   0.19183   0.20119   0.21032   0.22305
 Alpha virt. eigenvalues --    0.23785   0.25904   0.26356   0.27419   0.27839
 Alpha virt. eigenvalues --    0.29403   0.29488   0.30104   0.30740   0.30861

  Beta  occ. eigenvalues --  -18.83492 -18.78652 -18.75400  -9.94002  -9.92670
  Beta  occ. eigenvalues --   -9.91776  -9.89905  -9.88587  -9.88190  -9.88178
  Beta  occ. eigenvalues --   -9.87725  -9.87588  -9.86691  -0.74636  -0.69181
  Beta  occ. eigenvalues --   -0.66809  -0.55748  -0.51680  -0.44987  -0.43972
  Beta  occ. eigenvalues --   -0.39643  -0.33393  -0.32014  -0.27043  -0.23227
  Beta  occ. eigenvalues --   -0.21501  -0.20444  -0.18486  -0.14873  -0.13485
  Beta  occ. eigenvalues --   -0.12692  -0.12408  -0.11420  -0.10029  -0.08851
  Beta  occ. eigenvalues --   -0.07988  -0.07171  -0.06291  -0.05051  -0.02458
  Beta  occ. eigenvalues --    0.01106   0.03856   0.03869   0.07111   0.07945
  Beta  occ. eigenvalues --    0.13251
  Beta virt. eigenvalues --    0.18164   0.19183   0.20119   0.21032   0.22305
  Beta virt. eigenvalues --    0.23785   0.25904   0.26356   0.27419   0.27839
  Beta virt. eigenvalues --    0.29403   0.29488   0.30104   0.30740   0.30861

 Mulliken charges and spin densities:
               1          2
     1  O   -0.568487   0.000000
     2  C   -0.573459  -0.000000
     3  C   -0.086414   0.000000
     4  C   -0.166150   0.000000
     5  C   -0.184550   0.000000
     6  C    0.487982  -0.000000
     7  C   -0.904536  -0.000000
     8  O   -0.555452   0.000000
     9  C    0.087040  -0.000000
    10  C    0.139107   0.000000
    11  C   -0.337981  -0.000000
    12  O   -0.465286   0.000000
    13  C    0.442335   0.000000
    14  H    0.339404  -0.000000
    15  H    0.060676   0.000000
    16  H    0.061237   0.000000
    17  H    0.109592   0.000000
    18  H    0.043499   0.000000
    19  H    0.071442   0.000000
 Sum of Mulliken charges =  -2.00000  -0.00000

 Dipole moment (field-independent basis, Debye):
    X=              2.2328    Y=             -0.2640    Z=              0.2535  Tot=              2.2626
 Quadrupole moment (field-independent basis, Debye-Ang):
   XX=           -132.3178   YY=           -124.3059   ZZ=            -88.0398
   XY=            -18.9339   XZ=             -6.2300   YZ=             -3.8507

  Exact polarizability: 224.440 -11.227 196.290  15.095   2.973  96.589
 Approx polarizability: 358.315  -8.753 336.236  25.925   7.323 142.660

                      1                      2                      3
                      A                      A                      A
 Frequencies --     96.4713               123.8836               178.9050
 Red. masses --      9.3649                 6.8310                 5.1877
 Frc consts  --      0.0514                 0.0618                 0.0978
 IR Inten    --      4.7936                 1.2499                 0.2042

                      4                      5                      6
                      A                      A                      A
 Frequencies --    246.2623               298.9825               354.4368
 Red. masses --      5.0106                 7.7731                 7.7857
 Frc consts  --      0.1790                 0.4094                 0.5763
 IR Inten    --      0.8116                17.9825                 0.1267

                      7                      8                      9
                      A                      A                      A
 Frequencies --    371.1799               412.6304               458.7151
 Red. masses --      7.7029                10.4727                 3.8975
 Frc consts  --      0.6253                 1.0506                 0.4832
 IR Inten    --     23.1752                 0.4439                 0.1229

                     10                     11                     12
                      A                      A                      A
 Frequencies --    463.4335               490.5528               524.8341
 Red. masses --      9.3684                 7.3772                 3.1232
 Frc consts  --      1.1855                 1.0460                 0.5069
 IR Inten    --      0.3157                 0.6534                 0.0044

                     13                     14                     15
                      A                      A                      A
 Frequencies --    533.3088               607.8721               619.2415
 Red. masses --      7.5276                 4.0449                 4.4755
 Frc consts  --      1.2614                 0.8806                 1.0111
 IR Inten    --      4.4832                 2.7173                 1.8706

                     16                     17                     18
                      A                      A                      A
 Frequencies --    651.0944               685.7346               712.3496
 Red. masses --      7.5024                 1.7932                 1.5201
 Frc consts  --      1.8739                 0.4968                 0.4545
 IR Inten    --     24.0278                30.2600                46.5198

                     19                     20                     21
                      A                      A                      A
 Frequencies --    750.9797               769.5809               785.7609
 Red. masses --      7.1685                 1.6789                 5.3260
 Frc consts  --      2.3820                 0.5858                 1.9375
 IR Inten    --     70.1384                48.6385                 4.2088

                     22                     23                     24
                      A                      A                      A
 Frequencies --    787.7017               803.7013               827.4648
 Red. masses --      3.1609                 2.8349                 1.3736
 Frc consts  --      1.1555                 1.0789                 0.5541
 IR Inten    --      1.6146                10.1723                 3.2417

                     25                     26                     27
                      A                      A                      A
 Frequencies --    894.3159               955.6428               960.7034
 Red. masses --      1.2129                 5.6803                 1.0503
 Frc consts  --      0.5716                 3.0564                 0.5711
 IR Inten    --      2.1436                80.9680                65.9175

                     28                     29                     30
                      A                      A                      A
 Frequencies --   1026.4179              1061.6666              1121.4858
 Red. masses --      3.2785                 1.6034                 1.8092
 Frc consts  --      2.0351                 1.0648                 1.3407
 IR Inten    --     75.0928                11.1137                19.4301

                     31                     32                     33
                      A                      A                      A
 Frequencies --   1144.6045              1160.1043              1210.7197
 Red. masses --      1.2394                 1.9526                 5.0056
 Frc consts  --      0.9567                 1.5483                 4.3231
 IR Inten    --     36.5027                27.1823                77.7283

                     34                     35                     36
                      A                      A                      A
 Frequencies --   1265.5147              1283.5642              1322.4321
 Red. masses --      3.6891                 2.0689                 4.8010
 Frc consts  --      3.4810                 2.0083                 4.9468
 IR Inten    --     19.0999               244.9433                20.1318

                     37                     38                     39
                      A                      A                      A
 Frequencies --   1342.0240              1373.6075              1416.4907
 Red. masses --      5.0366                 3.6583                 3.4306
 Frc consts  --      5.3445                 4.0668                 4.0555
 IR Inten    --      4.6386                 6.8449                33.1625

                     40                     41                     42
                      A                      A                      A
 Frequencies --   1441.1967              1489.5226              1535.4083
 Red. masses --      4.1338                 3.5749                 3.1409
 Frc consts  --      5.0588                 4.6731                 4.3627
 IR Inten    --    454.9527               746.1216               190.6389

                     43                     44                     45
                      A                      A                      A
 Frequencies --   1574.8289              1591.0810              1657.7442
 Red. masses --      5.4015                 4.8579                 1.9232
 Frc consts  --      7.8928                 7.2458                 3.1139
 IR Inten    --      6.0090                25.4439                32.4498

                     46                     47                     48
                      A                      A                      A
 Frequencies --   2849.4379              3059.9878              3083.1725
 Red. masses --      1.0759                 1.0843                 1.0836
 Frc consts  --      5.1468                 5.9819                 6.0692
 IR Inten    --    616.1176                96.0630                73.2605

                     49                     50                     51
                      A                      A                      A
 Frequencies --   3109.9564              3114.1220              3167.6913
 Red. masses --      1.0914                 1.0897                 1.0900
 Frc consts  --      6.2191                 6.2260                 6.4440
 IR Inten    --    178.6894                81.0046                27.9176

 - Thermochemistry -
 -------------------
 Temperature   298.150 Kelvin.  Pressure   1.00000 Atm.
 Atom     1 has atomic number  8 and mass  15.99491

 Molecular mass:   174.03169 amu.
 Principal axes and moments of inertia in atomic units:
                           1         2         3
     Eigenvalues --  1566.574302010.172373576.74638
           X            0.90139  -0.41632  -0.11909
           Y            0.41433   0.90915  -0.04213
           Z            0.12581  -0.01137   0.99199
 This molecule is an asymmetric top.
 Rotational symmetry number  1.
 Warning -- assumption of classical behavior for rotation
           may cause significant error
 Rotational temperatures (Kelvin)      0.05529     0.04309     0.02422
 Rotational constants (GHZ):           1.15203     0.89780     0.50458
 Zero-point vibrational energy     345532.5 (Joules/Mol)
                                   82.58425 (Kcal/Mol)
 Warning -- explicit consideration of  15 degrees of freedom as
           vibrations may cause significant error
 Vibrational temperatures:    138.80   178.24   257.40   354.32   430.17
          (Kelvin)            509.96   534.05   593.68   659.99   666.78
                              705.80   755.12   767.31   874.59   890.95
                              936.78   986.62  1024.91  1080.49  1107.26
                             1130.53  1133.33  1156.35  1190.54  1286.72
                             1374.96  1382.24  1476.79  1527.50  1613.57
                             1646.83  1669.13  1741.96  1820.79  1846.76
                             1902.68  1930.87  1976.31  2038.01  2073.56
                             2143.09  2209.11  2265.83  2289.21  2385.12
                             4099.71  4402.64  4436.00  4474.53  4480.53
                             4557.60

 Zero-point correction=                           0.131606 (Hartree/Particle)
 Thermal correction to Energy=                    0.141046
 Thermal correction to Enthalpy=                  0.141990
 Thermal correction to Gibbs Free Energy=         0.096922
 Sum of electronic and zero-point Energies=           -610.383628
 Sum of electronic and thermal Energies=              -610.374189
 Sum of electronic and thermal Enthalpies=            -610.373245
 Sum of electronic and thermal Free Energies=         -610.418312

                     E (Thermal)             CV                S
                      KCal/Mol        Cal/Mol-Kelvin    Cal/Mol-Kelvin
 Total                   88.507             38.793             94.852
 Electronic               0.000              0.000              0.000
 Translational            0.889              2.981             41.370
 Rotational               0.889              2.981             30.800
 Vibrational             86.730             32.831             22.683
 Vibration     1          0.603              1.952              3.524
 Vibration     2          0.610              1.929              3.039
 Vibration     3          0.629              1.868              2.340
 Vibration     4          0.661              1.769              1.757
 Vibration     5          0.692              1.676              1.423
 Vibration     6          0.730              1.566              1.146
 Vibration     7          0.743              1.531              1.075
 Vibration     8          0.776              1.443              0.917
 Vibration     9          0.817              1.342              0.770
 Vibration    10          0.821              1.331              0.756
 Vibration    11          0.846              1.271              0.682
 Vibration    12          0.880              1.195              0.599
 Vibration    13          0.888              1.176              0.580
 Vibration    14          0.967              1.015              0.436
 Vibration    15          0.979              0.991              0.418

                           ! Non-Optimized Parameters !
 Normal termination of Gaussian 16 at Wed Dec 27 04:25:37 2023.
