 Q-Chem 5.4, Q-Chem, Inc., Pleasanton, CA (2021)
 Q-Chem 5.4.0 for Intel X86 EM64T Linux

User input:
--------------------------------------------------------------
$molecule
-1 2
C                 -0.4669120000      1.1266480000     -0.4058730000
C                 -1.3696530000      0.0745050000     -0.8748630000
C                 -1.1941660000     -1.2463700000     -0.6044710000
C                 -0.0741630000     -1.7250180000      0.1887950000
C                  0.8146750000     -0.7005360000      0.6683220000
C                  0.6514970000      0.6603270000      0.4321300000
O                 -0.6526890000      2.3109610000     -0.7541530000
O                  0.1004260000     -2.9525530000      0.4405940000
C                  1.6019760000      1.6201920000      1.0413620000
C                  2.9892080000      1.0954910000      1.4425720000
O                  1.3459360000      2.7952910000      1.2602690000
H                 -2.2027010000      0.4206650000     -1.4805840000
H                 -1.8856860000     -1.9974260000     -0.9777950000
H                  1.6388480000     -1.0601080000      1.2747730000
H                  3.4410040000      0.4801770000      0.6606370000
H                  2.9221280000      0.4815670000      2.3467940000
H                  3.6229350000      1.9567570000      1.6561000000
$end

$rem
BASIS  =  6-311++G(d,p)
GUI  =  2
JOB_TYPE  =  SP
METHOD  =  B3LYP
SCF_CONVERGENCE  = 8
SOLVENT_METHOD = sm12
$end

$smx
solvent dimethylformamide
charges CM5
$end

--------------------------------------------------------------

             Standard Nuclear Orientation (Angstroms)
    I     Atom           X                Y                Z
 ----------------------------------------------------------------
    1      C      -0.4669120000     1.1266480000    -0.4058730000
    2      C      -1.3696530000     0.0745050000    -0.8748630000
    3      C      -1.1941660000    -1.2463700000    -0.6044710000
    4      C      -0.0741630000    -1.7250180000     0.1887950000
    5      C       0.8146750000    -0.7005360000     0.6683220000
    6      C       0.6514970000     0.6603270000     0.4321300000
    7      O      -0.6526890000     2.3109610000    -0.7541530000
    8      O       0.1004260000    -2.9525530000     0.4405940000
    9      C       1.6019760000     1.6201920000     1.0413620000
   10      C       2.9892080000     1.0954910000     1.4425720000
   11      O       1.3459360000     2.7952910000     1.2602690000
   12      H      -2.2027010000     0.4206650000    -1.4805840000
   13      H      -1.8856860000    -1.9974260000    -0.9777950000
   14      H       1.6388480000    -1.0601080000     1.2747730000
   15      H       3.4410040000     0.4801770000     0.6606370000
   16      H       2.9221280000     0.4815670000     2.3467940000
   17      H       3.6229350000     1.9567570000     1.6561000000
 ----------------------------------------------------------------

   18    -534.3304809428      3.06e-09  Convergence criterion met
 Total energy in the final basis set =     -534.4153120692

                    Orbital Energies (a.u.)
 --------------------------------------------------------------

 Alpha MOs
 -- Occupied --
-19.1044 -19.0847 -19.0830 -10.2581 -10.2351 -10.2277 -10.1825 -10.1813
-10.1801 -10.1784 -10.1703  -1.0373  -1.0087  -1.0036  -0.8365  -0.7772
 -0.7275  -0.6945  -0.6316  -0.5910  -0.5284  -0.4884  -0.4795  -0.4618
 -0.4462  -0.4413  -0.4207  -0.4119  -0.4093  -0.3922  -0.3835  -0.3823
 -0.3733  -0.3561  -0.2907  -0.2761  -0.2656  -0.2473  -0.2283  -0.1730

 Beta MOs
 -- Occupied --
-19.1035 -19.0766 -19.0766 -10.2581 -10.2347 -10.2269 -10.1813 -10.1797
-10.1790 -10.1772 -10.1703  -1.0355  -0.9979  -0.9896  -0.8305  -0.7748
 -0.7260  -0.6846  -0.6279  -0.5876  -0.5255  -0.4864  -0.4761  -0.4599
 -0.4439  -0.4384  -0.4190  -0.4023  -0.3971  -0.3902  -0.3800  -0.3715
 -0.3572  -0.3484  -0.2673  -0.2623  -0.2558  -0.2399  -0.2238

          Ground-State Mulliken Net Atomic Charges

     Atom                 Charge (a.u.)    Spin (a.u.)
  --------------------------------------------------------
      1 C                    -1.818599      -0.005637
      2 C                     0.289949       0.094151
      3 C                     0.296513       0.022703
      4 C                    -0.850739       0.095925
      5 C                    -0.690890       0.151779
      6 C                     1.101974       0.091811
      7 O                    -0.334382       0.233366
      8 O                    -0.371505       0.287718
      9 C                    -0.021604       0.014473
     10 C                     0.326542       0.002928
     11 O                    -0.290130       0.033318
     12 H                     0.237604      -0.007443
     13 H                     0.251219      -0.002986
     14 H                     0.188956      -0.011930
     15 H                     0.194389      -0.000557
     16 H                     0.205996       0.000565
     17 H                     0.284709      -0.000185
  --------------------------------------------------------
  Sum of atomic charges =    -1.000000

                    Cartesian Multipole Moments
 -----------------------------------------------------------------
    Charge (ESU x 10^10)
                -4.8032
    Dipole Moment (Debye)
         X       0.6285      Y      -2.1378      Z      -0.6420
       Tot       2.3189
    Quadrupole Moments (Debye-Ang)
        XX     -65.1447     XY       0.2614     YY    -114.6073
        XZ      -0.7309     YZ       1.7102     ZZ     -69.7803

 Total job time:  236.05s(wall), 1555.73s(cpu)
        *  Thank you very much for using Q-Chem.  Have a nice day.  *
