 Gaussian 16, Revision A.03,
 Gaussian 16:  ES64L-G16RevA.03 25-Dec-2016

 --------------------------------------
 #P UB3LYP/6-311++G(d,p) nosym opt freq
 --------------------------------------

 -------
 Radical
 -------
 Symbolic Z-matrix:
 Charge = -1 Multiplicity = 2

 SCF Done:  E(UB3LYP) =  -1065.16907963     A.U. after   23 cycles
 SCF Done:  E(UB3LYP) =  -1065.22092160     A.U. after   17 cycles
 SCF Done:  E(UB3LYP) =  -1065.24803525     A.U. after   18 cycles
 SCF Done:  E(UB3LYP) =  -1065.26388098     A.U. after   16 cycles
 SCF Done:  E(UB3LYP) =  -1065.26509509     A.U. after   15 cycles
 SCF Done:  E(UB3LYP) =  -1065.26541940     A.U. after   15 cycles
 SCF Done:  E(UB3LYP) =  -1065.26548090     A.U. after   16 cycles
 SCF Done:  E(UB3LYP) =  -1065.26556245     A.U. after   14 cycles
 SCF Done:  E(UB3LYP) =  -1065.26556603     A.U. after   14 cycles
 SCF Done:  E(UB3LYP) =  -1065.26557601     A.U. after   13 cycles
 SCF Done:  E(UB3LYP) =  -1065.26557689     A.U. after   10 cycles
 SCF Done:  E(UB3LYP) =  -1065.26557726     A.U. after   11 cycles
 SCF Done:  E(UB3LYP) =  -1065.26557746     A.U. after    9 cycles
 Optimization completed.
    -- Stationary point found.
 Normal termination of Gaussian 16 at Thu Dec 21 20:44:03 2023.

 ----------------------------------------------------------------------
 #P Geom=AllCheck Guess=TCheck SCRF=Check GenChk UB3LYP/6-311++G(d,p) F
 req
 ----------------------------------------------------------------------

 Structure from the checkpoint file:  "207-rad.chk"
 -------
 Radical
 -------
 Charge = -1 Multiplicity = 2

                          Input orientation:
 ---------------------------------------------------------------------
 Center     Atomic      Atomic             Coordinates (Angstroms)
 Number     Number       Type             X           Y           Z
 ---------------------------------------------------------------------
      1          8           0        4.567617   -1.406307   -0.848824
      2          6           0        3.427216   -0.674989   -0.528604
      3          6           0        3.497393    0.665334   -0.153830
      4          6           0        2.329490    1.351174    0.156138
      5          8           0        2.418505    2.643138    0.515143
      6          6           0        1.068833    0.681412    0.089210
      7          6           0       -0.126112    1.441248    0.422763
      8          8           0       -0.020082    2.667506    0.761516
      9          6           0       -1.414057    0.772108    0.358589
     10          6           0       -2.633424    1.435727    0.667013
     11          8           0       -2.630594    2.760473    1.043627
     12          6           0       -3.838568    0.753981    0.591209
     13          6           0       -3.897619   -0.591933    0.213959
     14          6           0       -2.733482   -1.279732   -0.095961
     15          8           0       -2.821745   -2.575403   -0.455874
     16          6           0       -1.470192   -0.609631   -0.029185
     17          6           0       -0.273974   -1.368797   -0.362623
     18          8           0       -0.372054   -2.595497   -0.702362
     19          6           0        1.014843   -0.699045   -0.298531
     20          6           0        2.226512   -1.370276   -0.608643
     21          8           0        2.264534   -2.687990   -0.987512
     22          1           0        5.337175   -0.837411   -0.761963
     23          1           0        4.447186    1.188218   -0.098304
     24          1           0        1.443636    2.911859    0.687167
     25          1           0       -3.547470    3.007823    1.203441
     26          1           0       -4.758839    1.282922    0.832007
     27          1           0       -4.843888   -1.117219    0.157356
     28          1           0       -1.854895   -2.848182   -0.627987
     29          1           0        3.194056   -2.900510   -1.138936
 ---------------------------------------------------------------------

 SCF Done:  E(UB3LYP) =  -1065.26557746     A.U. after    2 cycles

 Alpha  occ. eigenvalues --  -19.07245 -19.03905 -19.03395 -19.00609 -19.00059
 Alpha  occ. eigenvalues --  -18.96553 -18.96305 -10.12978 -10.12183 -10.12138
 Alpha  occ. eigenvalues --  -10.11885 -10.11783 -10.11454 -10.11288 -10.06854
 Alpha  occ. eigenvalues --  -10.06532 -10.06513 -10.06288 -10.06184 -10.06082
 Alpha  occ. eigenvalues --  -10.05582  -0.98223  -0.95079  -0.94153  -0.93426
 Alpha  occ. eigenvalues --   -0.92813  -0.88344  -0.88008  -0.74605  -0.73117
 Alpha  occ. eigenvalues --   -0.67681  -0.63905  -0.62682  -0.61939  -0.56700
 Alpha  occ. eigenvalues --   -0.54240  -0.52851  -0.49567  -0.48262  -0.45990
 Alpha  occ. eigenvalues --   -0.44551  -0.43377  -0.41821  -0.38872  -0.38594
 Alpha  occ. eigenvalues --   -0.36502  -0.35552  -0.34923  -0.34034  -0.33791
 Alpha  occ. eigenvalues --   -0.31653  -0.31167  -0.30991  -0.30293  -0.29508
 Alpha  occ. eigenvalues --   -0.29018  -0.28784  -0.28573  -0.27119  -0.26820
 Alpha  occ. eigenvalues --   -0.25957  -0.25158  -0.24868  -0.24302  -0.23747
 Alpha  occ. eigenvalues --   -0.23175  -0.19297  -0.18557  -0.15145  -0.13505
 Alpha  occ. eigenvalues --   -0.13164  -0.12066  -0.10394  -0.09090  -0.02184
 Alpha virt. eigenvalues --    0.06140   0.07290   0.07601   0.08751   0.09661
 Alpha virt. eigenvalues --    0.09768   0.11165   0.12286   0.13370   0.13476
 Alpha virt. eigenvalues --    0.13959   0.14719   0.14830   0.15703   0.16216

  Beta  occ. eigenvalues --  -19.07225 -19.03880 -19.03357 -19.00589 -19.00025
  Beta  occ. eigenvalues --  -18.96100 -18.95770 -10.12891 -10.12185 -10.12118
  Beta  occ. eigenvalues --  -10.11822 -10.11619 -10.11280 -10.11270 -10.06806
  Beta  occ. eigenvalues --  -10.06457 -10.06447 -10.06204 -10.06158 -10.06074
  Beta  occ. eigenvalues --  -10.05459  -0.98153  -0.95018  -0.94067  -0.93296
  Beta  occ. eigenvalues --   -0.92635  -0.87645  -0.87187  -0.74362  -0.72959
  Beta  occ. eigenvalues --   -0.67287  -0.63684  -0.62439  -0.61735  -0.56177
  Beta  occ. eigenvalues --   -0.54001  -0.52640  -0.49429  -0.48151  -0.45841
  Beta  occ. eigenvalues --   -0.44429  -0.43259  -0.41709  -0.38707  -0.38465
  Beta  occ. eigenvalues --   -0.36305  -0.35465  -0.34817  -0.33893  -0.33319
  Beta  occ. eigenvalues --   -0.31083  -0.31029  -0.30881  -0.30107  -0.29205
  Beta  occ. eigenvalues --   -0.28623  -0.28573  -0.27893  -0.27018  -0.26547
  Beta  occ. eigenvalues --   -0.25873  -0.24747  -0.24163  -0.23653  -0.22977
  Beta  occ. eigenvalues --   -0.22596  -0.18615  -0.17989  -0.13543  -0.12886
  Beta  occ. eigenvalues --   -0.12772  -0.11671  -0.09214  -0.08469
  Beta virt. eigenvalues --    0.03082   0.06140   0.07290   0.08837   0.09663
  Beta virt. eigenvalues --    0.09773   0.09817   0.11174   0.12289   0.13491
  Beta virt. eigenvalues --    0.13645   0.13983   0.14841   0.14961   0.15722

 Mulliken charges and spin densities:
               1          2
     1  O   -0.313774   0.005340
     2  C   -0.430101   0.051827
     3  C    0.275053   0.068417
     4  C   -0.416416   0.011544
     5  O   -0.402904   0.007397
     6  C    0.614540  -0.000680
     7  C   -0.345116   0.083826
     8  O   -0.410533   0.164773
     9  C    0.304036   0.024002
    10  C   -0.252903   0.034999
    11  O   -0.212509   0.007348
    12  C   -0.129544   0.059856
    13  C    0.003878   0.087092
    14  C   -0.470733   0.025980
    15  O   -0.393861   0.011614
    16  C    0.621411   0.011017
    17  C   -0.403104   0.097190
    18  O   -0.396361   0.195321
    19  C    0.594159   0.011199
    20  C   -0.500305   0.058896
    21  O   -0.259084   0.010569
    22  H    0.263851  -0.000200
    23  H    0.123277  -0.006016
    24  H    0.400677  -0.003228
    25  H    0.240416  -0.000553
    26  H    0.085612  -0.006139
    27  H    0.150381  -0.007336
    28  H    0.386932  -0.003834
    29  H    0.273025  -0.000223
 Sum of Mulliken charges =  -1.00000   1.00000

 Dipole moment (field-independent basis, Debye):
    X=              1.6532    Y=              1.1948    Z=              0.1782  Tot=              2.0476
 Quadrupole moment (field-independent basis, Debye-Ang):
   XX=           -123.3141   YY=           -161.7668   ZZ=           -128.0793
   XY=            -15.0603   XZ=             -4.5473   YZ=             -8.6993

  Exact polarizability: 366.590  -3.698 234.426 -27.375  39.119 112.097
 Approx polarizability: 567.414  -3.181 445.961 -41.099  82.345 185.264

 ******    1 imaginary frequencies (negative Signs) ******

                      1                      2                      3
                      A                      A                      A
 Frequencies --   -198.0693                24.9027                53.7819
 Red. masses --      1.0902                 8.8778                 8.3898
 Frc consts  --      0.0252                 0.0032                 0.0143
 IR Inten    --    150.8658                 2.0260                 3.4383

                      4                      5                      6
                      A                      A                      A
 Frequencies --     85.9219               109.7068               132.0677
 Red. masses --     11.4233                 9.4563                 6.4705
 Frc consts  --      0.0497                 0.0671                 0.0665
 IR Inten    --      0.1301                 1.2867                 8.2926

                      7                      8                      9
                      A                      A                      A
 Frequencies --    140.4970               174.9128               181.3611
 Red. masses --      1.1226                 8.4310                 7.3308
 Frc consts  --      0.0131                 0.1520                 0.1421
 IR Inten    --     62.5088                 9.7360                 6.0468

                     10                     11                     12
                      A                      A                      A
 Frequencies --    222.8092               265.6860               279.8101
 Red. masses --      7.9742                 8.5897                 3.8849
 Frc consts  --      0.2332                 0.3572                 0.1792
 IR Inten    --      1.5239                 0.2655                 4.0601

                     13                     14                     15
                      A                      A                      A
 Frequencies --    315.9397               334.9283               340.7732
 Red. masses --      7.6041                 1.1919                 5.5154
 Frc consts  --      0.4472                 0.0788                 0.3774
 IR Inten    --      1.0047                25.8497                 3.9885

                     16                     17                     18
                      A                      A                      A
 Frequencies --    369.4959               377.3787               383.8707
 Red. masses --      6.5375                10.7178                 7.0527
 Frc consts  --      0.5259                 0.8993                 0.6123
 IR Inten    --      2.1800                 2.0881                20.1772

                     19                     20                     21
                      A                      A                      A
 Frequencies --    406.3560               424.7646               428.0792
 Red. masses --      7.9290                 6.4373                 7.7411
 Frc consts  --      0.7714                 0.6843                 0.8358
 IR Inten    --     13.5844                 0.0221                 0.2429

                     22                     23                     24
                      A                      A                      A
 Frequencies --    454.3178               462.5321               463.5656
 Red. masses --     11.1545                 9.2025                11.3190
 Frc consts  --      1.3565                 1.1599                 1.4331
 IR Inten    --     11.0736                27.1292                25.7675

                     25                     26                     27
                      A                      A                      A
 Frequencies --    483.4613               508.3645               533.5767
 Red. masses --      8.3753                 4.6525                 6.7369
 Frc consts  --      1.1534                 0.7084                 1.1301
 IR Inten    --     18.2632                 1.9624                 1.2953

                     28                     29                     30
                      A                      A                      A
 Frequencies --    548.8138               571.8077               616.5572
 Red. masses --      7.0861                 4.1480                 5.5379
 Frc consts  --      1.2575                 0.7991                 1.2403
 IR Inten    --      0.8723                10.6711                 6.3843

                     31                     32                     33
                      A                      A                      A
 Frequencies --    623.7037               655.1508               694.8923
 Red. masses --      3.6009                 8.5767                 6.7596
 Frc consts  --      0.8253                 2.1690                 1.9231
 IR Inten    --      1.0894                 0.0863                 1.8807

                     34                     35                     36
                      A                      A                      A
 Frequencies --    703.0142               734.0712               747.6249
 Red. masses --      5.2900                 6.7890                 3.5712
 Frc consts  --      1.5404                 2.1554                 1.1761
 IR Inten    --     68.7288                24.7354                18.6420

                     37                     38                     39
                      A                      A                      A
 Frequencies --    758.4118               774.7718               789.4440
 Red. masses --      8.8579                 1.7508                 2.2201
 Frc consts  --      3.0019                 0.6192                 0.8152
 IR Inten    --      2.7127                 6.5593                57.9247

                     40                     41                     42
                      A                      A                      A
 Frequencies --    791.2159               849.0290               853.3861
 Red. masses --      8.1676                 9.7343                 1.3173
 Frc consts  --      3.0125                 4.1343                 0.5652
 IR Inten    --     97.4378                10.8489                 3.2481

                     43                     44                     45
                      A                      A                      A
 Frequencies --    925.4151               971.7533               981.4069
 Red. masses --      5.6352                 9.4291                 1.0525
 Frc consts  --      2.8434                 5.2461                 0.5973
 IR Inten    --     14.5592               214.1021                67.8420

                     46                     47                     48
                      A                      A                      A
 Frequencies --   1009.2408              1011.3918              1069.3329
 Red. masses --      1.0533                 5.8586                 3.3486
 Frc consts  --      0.6321                 3.5309                 2.2560
 IR Inten    --     75.3778                10.5553               218.0415

                     49                     50                     51
                      A                      A                      A
 Frequencies --   1141.0553              1162.7984              1187.7963
 Red. masses --      2.1731                 1.3227                 1.8843
 Frc consts  --      1.6670                 1.0537                 1.5663
 IR Inten    --      1.0551               124.8160                38.7180

                     52                     53                     54
                      A                      A                      A
 Frequencies --   1214.1437              1219.1286              1238.6769
 Red. masses --      2.7318                 1.5907                 5.6053
 Frc consts  --      2.3727                 1.3930                 5.0671
 IR Inten    --     86.4377               126.0427                33.9742

                     55                     56                     57
                      A                      A                      A
 Frequencies --   1261.9902              1277.5356              1294.1888
 Red. masses --      4.1221                 2.4021                 3.6309
 Frc consts  --      3.8679                 2.3099                 3.5831
 IR Inten    --    108.5217                 7.0069                81.0987

                     58                     59                     60
                      A                      A                      A
 Frequencies --   1316.9987              1319.1438              1334.8685
 Red. masses --      2.9204                 3.7986                 5.6803
 Frc consts  --      2.9844                 3.8946                 5.9635
 IR Inten    --    120.7381                66.2455               143.3328

                     61                     62                     63
                      A                      A                      A
 Frequencies --   1365.3997              1392.6842              1427.1508
 Red. masses --      5.8877                 6.2252                 3.1880
 Frc consts  --      6.4672                 7.1140                 3.8257
 IR Inten    --     49.4691               128.8975               417.2176

                     64                     65                     66
                      A                      A                      A
 Frequencies --   1439.7975              1447.3135              1499.4176
 Red. masses --      3.3823                 5.6160                 2.9898
 Frc consts  --      4.1312                 6.9311                 3.9604
 IR Inten    --     66.0396                38.4479                34.8777

                     67                     68                     69
                      A                      A                      A
 Frequencies --   1523.7588              1568.3862              1583.7917
 Red. masses --      3.3585                 3.5270                 3.0126
 Frc consts  --      4.5944                 5.1116                 4.4523
 IR Inten    --    931.0922                51.5753               136.9117

                     70                     71                     72
                      A                      A                      A
 Frequencies --   1599.3485              1635.0114              1651.2279
 Red. masses --      4.2760                 3.8494                 3.3936
 Frc consts  --      6.4442                 6.0630                 5.4516
 IR Inten    --    242.8689                26.4954                 9.1699

                     73                     74                     75
                      A                      A                      A
 Frequencies --   1660.2540              2651.1717              2751.0723
 Red. masses --      2.5425                 1.0805                 1.0773
 Frc consts  --      4.1292                 4.4747                 4.8037
 IR Inten    --    303.3464               449.9534               450.6883

                     76                     77                     78
                      A                      A                      A
 Frequencies --   3117.2022              3156.6720              3179.4424
 Red. masses --      1.0879                 1.0901                 1.0915
 Frc consts  --      6.2284                 6.4000                 6.5007
 IR Inten    --     49.4756                19.8800                22.9645

                     79                     80                     81
                      A                      A                      A
 Frequencies --   3784.5958              3813.8446              3862.3221
 Red. masses --      1.0650                 1.0654                 1.0663
 Frc consts  --      8.9873                 9.1308                 9.3719
 IR Inten    --    100.3174                23.1433                87.6267

 - Thermochemistry -
 -------------------
 Temperature   298.150 Kelvin.  Pressure   1.00000 Atm.
 Atom     1 has atomic number  8 and mass  15.99491

 Molecular mass:   288.02700 amu.
 Principal axes and moments of inertia in atomic units:
                           1         2         3
     Eigenvalues --  3513.867886916.41028**********
           X            0.98153   0.16666   0.09398
           Y           -0.13564   0.95253  -0.27256
           Z           -0.13494   0.25478   0.95754
 This molecule is an asymmetric top.
 Rotational symmetry number  1.
 Warning -- assumption of classical behavior for rotation
           may cause significant error
 Rotational temperatures (Kelvin)      0.02465     0.01252     0.00830
 Rotational constants (GHZ):           0.51361     0.26094     0.17303
    1 imaginary frequencies ignored.
 Zero-point vibrational energy     512704.4 (Joules/Mol)
                                  122.53930 (Kcal/Mol)
 Warning -- explicit consideration of  29 degrees of freedom as
           vibrations may cause significant error
 Vibrational temperatures:     35.83    77.38   123.62   157.84   190.02
          (Kelvin)            202.14   251.66   260.94   320.57   382.26
                              402.58   454.57   481.89   490.30   531.62
                              542.96   552.30   584.66   611.14   615.91
                              653.66   665.48   666.97   695.59   731.42
                              767.70   789.62   822.70   887.09   897.37
                              942.62   999.80  1011.48  1056.16  1075.67
                             1091.19  1114.72  1135.83  1138.38  1221.56
                             1227.83  1331.47  1398.14  1412.03  1452.07
                             1455.17  1538.53  1641.72  1673.01  1708.97
                             1746.88  1754.05  1782.18  1815.72  1838.09
                             1862.05  1894.87  1897.95  1920.58  1964.51
                             2003.76  2053.35  2071.55  2082.36  2157.33
                             2192.35  2256.56  2278.72  2301.11  2352.42
                             2375.75  2388.74  3814.44  3958.18  4484.96
                             4541.75  4574.51  5445.19  5487.27  5557.02

 Zero-point correction=                           0.195279 (Hartree/Particle)
 Thermal correction to Energy=                    0.211860
 Thermal correction to Enthalpy=                  0.212804
 Thermal correction to Gibbs Free Energy=         0.150492
 Sum of electronic and zero-point Energies=          -1065.070299
 Sum of electronic and thermal Energies=             -1065.053717
 Sum of electronic and thermal Enthalpies=           -1065.052773
 Sum of electronic and thermal Free Energies=        -1065.115086

                     E (Thermal)             CV                S
                      KCal/Mol        Cal/Mol-Kelvin    Cal/Mol-Kelvin
 Total                  132.944             65.642            131.148
 Electronic               0.000              0.000              1.377
 Translational            0.889              2.981             42.871
 Rotational               0.889              2.981             33.893
 Vibrational            131.167             59.680             53.006
 Vibration     1          0.593              1.985              6.199
 Vibration     2          0.596              1.976              4.673
 Vibration     3          0.601              1.959              3.751
 Vibration     4          0.606              1.941              3.274
 Vibration     5          0.612              1.921              2.916
 Vibration     6          0.615              1.913              2.797
 Vibration     7          0.627              1.873              2.382
 Vibration     8          0.630              1.865              2.314
 Vibration     9          0.648              1.806              1.936
 Vibration    10          0.672              1.736              1.624
 Vibration    11          0.680              1.711              1.535
 Vibration    12          0.703              1.643              1.331
 Vibration    13          0.716              1.606              1.236
 Vibration    14          0.720              1.594              1.209
 Vibration    15          0.742              1.535              1.082
 Vibration    16          0.748              1.518              1.050
 Vibration    17          0.753              1.505              1.024
 Vibration    18          0.771              1.456              0.940
 Vibration    19          0.787              1.416              0.876
 Vibration    20          0.790              1.409              0.865
 Vibration    21          0.813              1.351              0.783
 Vibration    22          0.820              1.333              0.759
 Vibration    23          0.821              1.331              0.756
 Vibration    24          0.840              1.287              0.701
 Vibration    25          0.864              1.231              0.638
 Vibration    26          0.889              1.176              0.579
 Vibration    27          0.904              1.142              0.547
 Vibration    28          0.928              1.092              0.501
 Vibration    29          0.976              0.997              0.422

 Optimization completed.
    -- Stationary point found.
 Normal termination of Gaussian 16 at Thu Dec 21 22:14:59 2023.
