 Q-Chem 5.4, Q-Chem, Inc., Pleasanton, CA (2021)
 Q-Chem 5.4.0 for Intel X86 EM64T Linux

User input:
--------------------------------------------------------------
$molecule
0 1
C                 -0.3334710000      3.8109950000     -0.2056620000
C                 -1.5447070000      3.2136660000     -0.5407160000
C                 -1.5730370000      1.8839630000     -0.9651690000
C                  0.8501670000      3.0746720000     -0.2966390000
C                  0.8248960000      1.7367040000     -0.7230820000
C                 -0.3934330000      1.1472810000     -1.0559330000
C                  2.1414920000      3.6928150000      0.0548910000
C                  3.3757370000      2.8644950000     -0.0650000000
C                  3.3757440000      1.5688610000     -0.4645200000
C                  2.0909650000      0.9330110000     -0.8244710000
O                  2.2658950000      4.8495400000      0.4417140000
O                  2.0489200000     -0.2313510000     -1.1968930000
H                 -0.2860120000      4.8408060000      0.1266280000
H                 -2.4653510000      3.7814560000     -0.4719450000
H                 -2.5177430000      1.4203970000     -1.2258680000
H                 -0.3975720000      0.1149630000     -1.3830460000
O                  4.5024830000      3.5154230000      0.2675260000
C                  4.6373250000      0.7615990000     -0.5871510000
C                  5.2427180000      0.8101810000     -2.0066570000
C                  6.5217370000     -0.0244340000     -2.1283600000
C                  7.1396830000      0.0127580000     -3.5306460000
C                  8.4196420000     -0.8211490000     -3.6582840000
H                  4.2273360000      4.4145530000      0.5297190000
H                  4.4095260000     -0.2771630000     -0.3353930000
H                  5.3719710000      1.1336310000      0.1315290000
H                  5.4574680000      1.8521200000     -2.2699140000
H                  4.4987990000      0.4474780000     -2.7238000000
H                  6.3009820000     -1.0645090000     -1.8567950000
H                  7.2588900000      0.3330220000     -1.3978040000
H                  7.3575650000      1.0537010000     -3.8025510000
H                  6.4013130000     -0.3439430000     -4.2601780000
H                  8.2015960000     -1.8617240000     -3.3851640000
H                  9.1580610000     -0.4643990000     -2.9285380000
C                  9.0378250000     -0.7862540000     -5.0605870000
H                  9.2563270000      0.2543940000     -5.3335750000
H                  8.2987510000     -1.1420910000     -5.7901570000
C                 10.3166990000     -1.6210640000     -5.1899450000
H                 10.0989440000     -2.6621110000     -4.9174160000
H                 11.0567710000     -1.2658590000     -4.4608130000
C                 10.9355900000     -1.5871550000     -6.5920130000
C                 12.2124170000     -2.4243680000     -6.7116000000
H                 11.1541670000     -0.5473280000     -6.8643680000
H                 10.1966900000     -1.9424510000     -7.3206840000
H                 12.9834870000     -2.0708730000     -6.0196050000
H                 12.6278400000     -2.3788660000     -7.7222540000
H                 12.0187440000     -3.4764840000     -6.4794490000
$end
$rem
MAX_SCF_CYCLES=200
BASIS  =  6-311++G(d,p)
GUI  =  2
JOB_TYPE  =  SP
METHOD  =  B3LYP
SCF_ALGORITHM = DIIS_GDM
THRESH = 14
SOLVENT_METHOD = PCM
$end
$pcm
theory = CPCM
$end
$solvent
dielectric 37.219
opticaldielectric 1.43
$end

--------------------------------------------------------------

             Standard Nuclear Orientation (Angstroms)
    I     Atom           X                Y                Z
 ----------------------------------------------------------------
    1      C      -0.3334710000     3.8109950000    -0.2056620000
    2      C      -1.5447070000     3.2136660000    -0.5407160000
    3      C      -1.5730370000     1.8839630000    -0.9651690000
    4      C       0.8501670000     3.0746720000    -0.2966390000
    5      C       0.8248960000     1.7367040000    -0.7230820000
    6      C      -0.3934330000     1.1472810000    -1.0559330000
    7      C       2.1414920000     3.6928150000     0.0548910000
    8      C       3.3757370000     2.8644950000    -0.0650000000
    9      C       3.3757440000     1.5688610000    -0.4645200000
   10      C       2.0909650000     0.9330110000    -0.8244710000
   11      O       2.2658950000     4.8495400000     0.4417140000
   12      O       2.0489200000    -0.2313510000    -1.1968930000
   13      H      -0.2860120000     4.8408060000     0.1266280000
   14      H      -2.4653510000     3.7814560000    -0.4719450000
   15      H      -2.5177430000     1.4203970000    -1.2258680000
   16      H      -0.3975720000     0.1149630000    -1.3830460000
   17      O       4.5024830000     3.5154230000     0.2675260000
   18      C       4.6373250000     0.7615990000    -0.5871510000
   19      C       5.2427180000     0.8101810000    -2.0066570000
   20      C       6.5217370000    -0.0244340000    -2.1283600000
   21      C       7.1396830000     0.0127580000    -3.5306460000
   22      C       8.4196420000    -0.8211490000    -3.6582840000
   23      H       4.2273360000     4.4145530000     0.5297190000
   24      H       4.4095260000    -0.2771630000    -0.3353930000
   25      H       5.3719710000     1.1336310000     0.1315290000
   26      H       5.4574680000     1.8521200000    -2.2699140000
   27      H       4.4987990000     0.4474780000    -2.7238000000
   28      H       6.3009820000    -1.0645090000    -1.8567950000
   29      H       7.2588900000     0.3330220000    -1.3978040000
   30      H       7.3575650000     1.0537010000    -3.8025510000
   31      H       6.4013130000    -0.3439430000    -4.2601780000
   32      H       8.2015960000    -1.8617240000    -3.3851640000
   33      H       9.1580610000    -0.4643990000    -2.9285380000
   34      C       9.0378250000    -0.7862540000    -5.0605870000
   35      H       9.2563270000     0.2543940000    -5.3335750000
   36      H       8.2987510000    -1.1420910000    -5.7901570000
   37      C      10.3166990000    -1.6210640000    -5.1899450000
   38      H      10.0989440000    -2.6621110000    -4.9174160000
   39      H      11.0567710000    -1.2658590000    -4.4608130000
   40      C      10.9355900000    -1.5871550000    -6.5920130000
   41      C      12.2124170000    -2.4243680000    -6.7116000000
   42      H      11.1541670000    -0.5473280000    -6.8643680000
   43      H      10.1966900000    -1.9424510000    -7.3206840000
   44      H      12.9834870000    -2.0708730000    -6.0196050000
   45      H      12.6278400000    -2.3788660000    -7.7222540000
   46      H      12.0187440000    -3.4764840000    -6.4794490000
 ----------------------------------------------------------------

   16    -964.4576135194      7.40e-06  Convergence criterion met
 Total energy in the final basis set =     -964.4576135194

                    Orbital Energies (a.u.)
 --------------------------------------------------------------

 Alpha MOs
 -- Occupied --
-19.1779 -19.1494 -19.1298 -10.2934 -10.2811 -10.2667 -10.2103 -10.2091
-10.2032 -10.2004 -10.1984 -10.1967 -10.1966 -10.1747 -10.1654 -10.1590
-10.1583 -10.1571 -10.1563 -10.1560 -10.1557 -10.1520  -1.1081  -1.0671
 -1.0636  -0.8922  -0.8435  -0.8097  -0.7968  -0.7808  -0.7787  -0.7555
 -0.7241  -0.6970  -0.6744  -0.6542  -0.6375  -0.6113  -0.6037  -0.5837
 -0.5740  -0.5721  -0.5698  -0.5422  -0.5182  -0.4974  -0.4820  -0.4774
 -0.4716  -0.4679  -0.4652  -0.4521  -0.4505  -0.4360  -0.4340  -0.4314
 -0.4245  -0.4131  -0.4112  -0.4045  -0.4021  -0.3974  -0.3827  -0.3774
 -0.3732  -0.3699  -0.3689  -0.3535  -0.3454  -0.3446  -0.3294  -0.3275
 -0.3206  -0.3188  -0.3164  -0.3057  -0.3009  -0.2894  -0.2799  -0.2794
 -0.2560

          Ground-State Mulliken Net Atomic Charges

     Atom                 Charge (a.u.)
  ----------------------------------------
      1 C                     0.130557
      2 C                    -0.390973
      3 C                    -0.424537
      4 C                     0.572603
      5 C                    -0.148118
      6 C                     0.145668
      7 C                    -0.829846
      8 C                    -0.444231
      9 C                     1.908701
     10 C                    -0.734984
     11 O                    -0.323271
     12 O                    -0.294689
     13 H                     0.202761
     14 H                     0.227255
     15 H                     0.222956
     16 H                     0.202478
     17 O                    -0.235201
     18 C                    -0.402851
     19 C                    -0.786102
     20 C                    -0.227568
     21 C                     0.034059
     22 C                     0.019825
     23 H                     0.321145
     24 H                     0.223758
     25 H                     0.239478
     26 H                     0.182717
     27 H                     0.183032
     28 H                     0.127792
     29 H                     0.124787
     30 H                     0.131924
     31 H                     0.132007
     32 H                     0.136486
     33 H                     0.136323
     34 C                    -0.196366
     35 H                     0.132583
     36 H                     0.132173
     37 C                    -0.407434
     38 H                     0.128384
     39 H                     0.128410
     40 C                    -0.281030
     41 C                    -0.711110
     42 H                     0.135250
     43 H                     0.135334
     44 H                     0.144545
     45 H                     0.150716
     46 H                     0.144607
  ----------------------------------------
  Sum of atomic charges =     0.000000

                    Cartesian Multipole Moments
 -----------------------------------------------------------------
    Charge (ESU x 10^10)
                -0.0000
    Dipole Moment (Debye)
         X      -2.6945      Y       1.5878      Z      -0.0657
       Tot       3.1282
    Quadrupole Moments (Debye-Ang)
        XX    -129.4403     XY      -3.1618     YY    -137.3280
        XZ       2.3740     YZ      -3.1125     ZZ    -136.8401

 Total job time:  383.41s(wall), 2552.29s(cpu)
        *  Thank you very much for using Q-Chem.  Have a nice day.  *
