 Gaussian 16, Revision A.03,
 Gaussian 16:  ES64L-G16RevA.03 25-Dec-2016

 --------------------------------------
 #P UB3LYP/6-311++G(d,p) nosym opt freq
 --------------------------------------

 --------
 Oxidized
 --------
 Symbolic Z-matrix:
 Charge =  0 Multiplicity = 1

 SCF Done:  E(UB3LYP) =  -964.444358109     A.U. after   18 cycles
 SCF Done:  E(UB3LYP) =  -964.444358087     A.U. after    9 cycles
 Optimization completed.
    -- Stationary point found.
 Normal termination of Gaussian 16 at Mon Jan  8 01:49:05 2024.

 ----------------------------------------------------------------------
 #P Geom=AllCheck Guess=TCheck SCRF=Check GenChk UB3LYP/6-311++G(d,p) F
 req
 ----------------------------------------------------------------------

 Structure from the checkpoint file:  "287.chk"
 --------
 Oxidized
 --------
 Charge =  0 Multiplicity = 1

                          Input orientation:
 ---------------------------------------------------------------------
 Center     Atomic      Atomic             Coordinates (Angstroms)
 Number     Number       Type             X           Y           Z
 ---------------------------------------------------------------------
      1          6           0       -0.333471    3.810995   -0.205662
      2          6           0       -1.544707    3.213666   -0.540716
      3          6           0       -1.573037    1.883963   -0.965169
      4          6           0        0.850167    3.074672   -0.296639
      5          6           0        0.824896    1.736704   -0.723082
      6          6           0       -0.393433    1.147281   -1.055933
      7          6           0        2.141492    3.692815    0.054891
      8          6           0        3.375737    2.864495   -0.065000
      9          6           0        3.375744    1.568861   -0.464520
     10          6           0        2.090965    0.933011   -0.824471
     11          8           0        2.265895    4.849540    0.441714
     12          8           0        2.048920   -0.231351   -1.196893
     13          1           0       -0.286012    4.840806    0.126628
     14          1           0       -2.465351    3.781456   -0.471945
     15          1           0       -2.517743    1.420397   -1.225868
     16          1           0       -0.397572    0.114963   -1.383046
     17          8           0        4.502483    3.515423    0.267526
     18          6           0        4.637325    0.761599   -0.587151
     19          6           0        5.242718    0.810181   -2.006657
     20          6           0        6.521737   -0.024434   -2.128360
     21          6           0        7.139683    0.012758   -3.530646
     22          6           0        8.419642   -0.821149   -3.658284
     23          1           0        4.227336    4.414553    0.529719
     24          1           0        4.409526   -0.277163   -0.335393
     25          1           0        5.371971    1.133631    0.131529
     26          1           0        5.457468    1.852120   -2.269914
     27          1           0        4.498799    0.447478   -2.723800
     28          1           0        6.300982   -1.064509   -1.856795
     29          1           0        7.258890    0.333022   -1.397804
     30          1           0        7.357565    1.053701   -3.802551
     31          1           0        6.401313   -0.343943   -4.260178
     32          1           0        8.201596   -1.861724   -3.385164
     33          1           0        9.158061   -0.464399   -2.928538
     34          6           0        9.037825   -0.786254   -5.060587
     35          1           0        9.256327    0.254394   -5.333575
     36          1           0        8.298751   -1.142091   -5.790157
     37          6           0       10.316699   -1.621064   -5.189945
     38          1           0       10.098944   -2.662111   -4.917416
     39          1           0       11.056771   -1.265859   -4.460813
     40          6           0       10.935590   -1.587155   -6.592013
     41          6           0       12.212417   -2.424368   -6.711600
     42          1           0       11.154167   -0.547328   -6.864368
     43          1           0       10.196690   -1.942451   -7.320684
     44          1           0       12.983487   -2.070873   -6.019605
     45          1           0       12.627840   -2.378866   -7.722254
     46          1           0       12.018744   -3.476484   -6.479449
 ---------------------------------------------------------------------

 SCF Done:  E(UB3LYP) =  -964.444358087     A.U. after    2 cycles

 Alpha  occ. eigenvalues --  -19.17883 -19.14994 -19.12594 -10.29384 -10.27802
 Alpha  occ. eigenvalues --  -10.26742 -10.21564 -10.21384 -10.20789 -10.20772
 Alpha  occ. eigenvalues --  -10.20645 -10.20484 -10.20303 -10.17619 -10.16781
 Alpha  occ. eigenvalues --  -10.16304 -10.16265 -10.16166 -10.16101 -10.16072
 Alpha  occ. eigenvalues --  -10.16045 -10.15591  -1.10932  -1.06751  -1.05873
 Alpha  occ. eigenvalues --   -0.89782  -0.84622  -0.81390  -0.80124  -0.78624
 Alpha  occ. eigenvalues --   -0.78398  -0.75948  -0.72764  -0.70001  -0.67831
 Alpha  occ. eigenvalues --   -0.65891  -0.64170  -0.61553  -0.60783  -0.58692
 Alpha  occ. eigenvalues --   -0.57815  -0.57641  -0.57386  -0.54397  -0.52182
 Alpha  occ. eigenvalues --   -0.50131  -0.48693  -0.48360  -0.47354  -0.46935
 Alpha  occ. eigenvalues --   -0.46637  -0.45857  -0.44985  -0.43897  -0.43559
 Alpha  occ. eigenvalues --   -0.43443  -0.42406  -0.41577  -0.41383  -0.40912
 Alpha  occ. eigenvalues --   -0.40574  -0.39943  -0.38859  -0.38032  -0.37845
 Alpha  occ. eigenvalues --   -0.37366  -0.37324  -0.35658  -0.34873  -0.34784
 Alpha  occ. eigenvalues --   -0.33320  -0.33100  -0.32491  -0.32327  -0.32139
 Alpha  occ. eigenvalues --   -0.30828  -0.30176  -0.29380  -0.28516  -0.27549
 Alpha  occ. eigenvalues --   -0.25814
 Alpha virt. eigenvalues --   -0.12639  -0.06056  -0.03075  -0.01288  -0.00610
 Alpha virt. eigenvalues --   -0.00281   0.00619   0.00628   0.00971   0.01152
 Alpha virt. eigenvalues --    0.01933   0.02055   0.02276   0.02493   0.03211

  Beta  occ. eigenvalues --  -19.17883 -19.14994 -19.12594 -10.29384 -10.27802
  Beta  occ. eigenvalues --  -10.26742 -10.21564 -10.21384 -10.20789 -10.20772
  Beta  occ. eigenvalues --  -10.20645 -10.20484 -10.20303 -10.17619 -10.16781
  Beta  occ. eigenvalues --  -10.16304 -10.16265 -10.16166 -10.16101 -10.16072
  Beta  occ. eigenvalues --  -10.16045 -10.15591  -1.10932  -1.06751  -1.05873
  Beta  occ. eigenvalues --   -0.89782  -0.84622  -0.81390  -0.80124  -0.78624
  Beta  occ. eigenvalues --   -0.78398  -0.75948  -0.72764  -0.70001  -0.67831
  Beta  occ. eigenvalues --   -0.65891  -0.64170  -0.61553  -0.60783  -0.58692
  Beta  occ. eigenvalues --   -0.57815  -0.57641  -0.57386  -0.54397  -0.52182
  Beta  occ. eigenvalues --   -0.50131  -0.48693  -0.48360  -0.47354  -0.46935
  Beta  occ. eigenvalues --   -0.46637  -0.45857  -0.44985  -0.43897  -0.43559
  Beta  occ. eigenvalues --   -0.43443  -0.42406  -0.41577  -0.41383  -0.40912
  Beta  occ. eigenvalues --   -0.40574  -0.39943  -0.38859  -0.38032  -0.37845
  Beta  occ. eigenvalues --   -0.37366  -0.37324  -0.35658  -0.34873  -0.34784
  Beta  occ. eigenvalues --   -0.33320  -0.33100  -0.32491  -0.32327  -0.32139
  Beta  occ. eigenvalues --   -0.30828  -0.30176  -0.29380  -0.28516  -0.27549
  Beta  occ. eigenvalues --   -0.25814
  Beta virt. eigenvalues --   -0.12639  -0.06056  -0.03075  -0.01288  -0.00610
  Beta virt. eigenvalues --   -0.00281   0.00619   0.00628   0.00971   0.01152
  Beta virt. eigenvalues --    0.01933   0.02055   0.02276   0.02493   0.03211

 Mulliken charges and spin densities:
               1          2
     1  C    0.126011  -0.000000
     2  C   -0.327901   0.000000
     3  C   -0.342668  -0.000000
     4  C    0.563229  -0.000000
     5  C   -0.086646   0.000000
     6  C    0.120089  -0.000000
     7  C   -0.916102   0.000000
     8  C   -0.491591  -0.000000
     9  C    1.958113  -0.000000
    10  C   -0.859068   0.000000
    11  O   -0.277976  -0.000000
    12  O   -0.209893  -0.000000
    13  H    0.185900   0.000000
    14  H    0.180165   0.000000
    15  H    0.177638  -0.000000
    16  H    0.191648  -0.000000
    17  O   -0.197236   0.000000
    18  C   -0.350923   0.000000
    19  C   -0.771810   0.000000
    20  C   -0.213953  -0.000000
    21  C    0.041496   0.000000
    22  C    0.010567  -0.000000
    23  H    0.287852  -0.000000
    24  H    0.227582  -0.000000
    25  H    0.234056   0.000000
    26  H    0.171785   0.000000
    27  H    0.180968   0.000000
    28  H    0.118424   0.000000
    29  H    0.111113   0.000000
    30  H    0.121073   0.000000
    31  H    0.122829   0.000000
    32  H    0.127680  -0.000000
    33  H    0.126400  -0.000000
    34  C   -0.185142  -0.000000
    35  H    0.122640  -0.000000
    36  H    0.122963  -0.000000
    37  C   -0.388099   0.000000
    38  H    0.119028  -0.000000
    39  H    0.118703  -0.000000
    40  C   -0.252969   0.000000
    41  C   -0.663874   0.000000
    42  H    0.127213   0.000000
    43  H    0.127568  -0.000000
    44  H    0.135045   0.000000
    45  H    0.142813  -0.000000
    46  H    0.135260  -0.000000
 Sum of Mulliken charges =  -0.00000   0.00000

 Dipole moment (field-independent basis, Debye):
    X=             -1.9757    Y=              0.9192    Z=             -0.1548  Tot=              2.1845
 Quadrupole moment (field-independent basis, Debye-Ang):
   XX=           -130.6654   YY=           -138.2153   ZZ=           -136.5742
   XY=             -2.9162   XZ=              1.4324   YZ=             -2.2258

  Exact polarizability: 303.831 -29.309 247.630 -19.105  39.597 183.606
 Approx polarizability: 390.562   3.491 455.454  18.147  68.796 268.982

                      1                      2                      3
                      A                      A                      A
 Frequencies --     13.0181                22.5280                26.6729
 Red. masses --      5.3404                 5.1520                 1.7744
 Frc consts  --      0.0005                 0.0015                 0.0007
 IR Inten    --      0.1035                 0.4652                 0.0380

                      4                      5                      6
                      A                      A                      A
 Frequencies --     40.0202                51.9299                73.2241
 Red. masses --      3.0159                 5.1112                 2.6053
 Frc consts  --      0.0028                 0.0081                 0.0082
 IR Inten    --      0.1263                 1.9031                 0.6105

                      7                      8                      9
                      A                      A                      A
 Frequencies --     78.9819                95.8890               105.7445
 Red. masses --      3.9388                 2.1058                 5.1379
 Frc consts  --      0.0145                 0.0114                 0.0338
 IR Inten    --      1.6553                 0.0652                 0.0380

                     10                     11                     12
                      A                      A                      A
 Frequencies --    123.9362               126.7563               143.6788
 Red. masses --      1.9529                 5.7094                 4.0159
 Frc consts  --      0.0177                 0.0540                 0.0488
 IR Inten    --      0.0364                 0.0109                 0.0070

                     13                     14                     15
                      A                      A                      A
 Frequencies --    150.3312               161.2815               171.7608
 Red. masses --      2.0702                 1.9553                 6.5916
 Frc consts  --      0.0276                 0.0300                 0.1146
 IR Inten    --      0.0324                 0.0030                 0.6426

                     16                     17                     18
                      A                      A                      A
 Frequencies --    214.8964               244.3774               251.5327
 Red. masses --      4.0266                 1.1193                 4.3243
 Frc consts  --      0.1096                 0.0394                 0.1612
 IR Inten    --      0.0375                 0.0001                 0.1973

                     19                     20                     21
                      A                      A                      A
 Frequencies --    285.7191               302.7085               320.3254
 Red. masses --      3.9406                 2.9330                 4.7119
 Frc consts  --      0.1895                 0.1583                 0.2849
 IR Inten    --      0.0998                 2.5008                 0.5902

                     22                     23                     24
                      A                      A                      A
 Frequencies --    361.4310               372.0486               389.0732
 Red. masses --      5.5398                 3.5572                 9.7185
 Frc consts  --      0.4264                 0.2901                 0.8668
 IR Inten    --      8.2349                 0.2209                22.8868

                     25                     26                     27
                      A                      A                      A
 Frequencies --    419.5883               429.9764               445.3224
 Red. masses --     10.0138                 3.6078                 4.8067
 Frc consts  --      1.0387                 0.3930                 0.5616
 IR Inten    --      8.0665                 2.2789                 2.9038

                     28                     29                     30
                      A                      A                      A
 Frequencies --    450.9885               478.5175               491.4697
 Red. masses --      4.7787                 3.4207                 4.5575
 Frc consts  --      0.5727                 0.4615                 0.6486
 IR Inten    --      5.6748                 1.1846                 1.4945

                     31                     32                     33
                      A                      A                      A
 Frequencies --    528.5561               589.3211               646.7282
 Red. masses --      6.1517                 5.8963                 1.1480
 Frc consts  --      1.0126                 1.2065                 0.2829
 IR Inten    --      3.5110                 6.9110                69.3160

                     34                     35                     36
                      A                      A                      A
 Frequencies --    654.5511               677.8848               707.5163
 Red. masses --      5.8081                 6.0042                 3.3431
 Frc consts  --      1.4661                 1.6256                 0.9860
 IR Inten    --      7.6619                 2.5671                 2.6724

                     37                     38                     39
                      A                      A                      A
 Frequencies --    713.7218               731.2729               733.8594
 Red. masses --      4.6391                 1.0592                 1.1091
 Frc consts  --      1.3923                 0.3337                 0.3519
 IR Inten    --      3.6625                 5.2186                 0.9285

                     40                     41                     42
                      A                      A                      A
 Frequencies --    736.1832               744.6711               764.6175
 Red. masses --      2.4287                 1.1992                 6.5530
 Frc consts  --      0.7755                 0.3918                 2.2572
 IR Inten    --     76.8490                 2.1111                 2.2778

                     43                     44                     45
                      A                      A                      A
 Frequencies --    772.0137               805.7168               816.7997
 Red. masses --      1.2638                 1.8828                 1.4377
 Frc consts  --      0.4438                 0.7202                 0.5651
 IR Inten    --      0.1530                12.0561                 1.0395

                     46                     47                     48
                      A                      A                      A
 Frequencies --    862.7688               895.8914               909.2790
 Red. masses --      1.9188                 1.9855                 1.5444
 Frc consts  --      0.8415                 0.9389                 0.7523
 IR Inten    --     10.1568                 1.8221                 4.0027

                     49                     50                     51
                      A                      A                      A
 Frequencies --    913.0081               949.6082               971.9919
 Red. masses --      1.3253                 5.7758                 1.3905
 Frc consts  --      0.6509                 3.0687                 0.7740
 IR Inten    --      0.0095                27.2082                 1.9509

                     52                     53                     54
                      A                      A                      A
 Frequencies --    990.0364               996.1569               998.0492
 Red. masses --      4.5075                 3.2850                 1.5063
 Frc consts  --      2.6031                 1.9206                 0.8840
 IR Inten    --     19.6377                 2.4013                 1.6473

                     55                     56                     57
                      A                      A                      A
 Frequencies --   1016.3451              1021.5160              1029.6228
 Red. masses --      1.3268                 3.1065                 2.0838
 Frc consts  --      0.8075                 1.9099                 1.3015
 IR Inten    --      0.1361                19.9267                 1.9295

                     58                     59                     60
                      A                      A                      A
 Frequencies --   1047.0158              1051.9689              1058.4663
 Red. masses --      1.7773                 2.7826                 1.7667
 Frc consts  --      1.1479                 1.8143                 1.1662
 IR Inten    --     15.8139                 1.1039                 7.5708

                     61                     62                     63
                      A                      A                      A
 Frequencies --   1063.4137              1065.4206              1072.1724
 Red. masses --      2.5953                 2.2469                 2.6451
 Frc consts  --      1.7292                 1.5027                 1.7915
 IR Inten    --      0.3423                 0.1646                 2.6400

                     64                     65                     66
                      A                      A                      A
 Frequencies --   1110.5381              1135.6635              1137.8230
 Red. masses --      2.1880                 1.8703                 2.3425
 Frc consts  --      1.5899                 1.4212                 1.7868
 IR Inten    --      1.8969                18.3071                15.0129

                     67                     68                     69
                      A                      A                      A
 Frequencies --   1182.4060              1195.6621              1211.4691
 Red. masses --      1.1766                 2.2686                 1.7760
 Frc consts  --      0.9692                 1.9109                 1.5357
 IR Inten    --     21.4641                29.9286                 9.0878

                     70                     71                     72
                      A                      A                      A
 Frequencies --   1229.5315              1233.7359              1251.2002
 Red. masses --      2.3703                 1.2648                 1.5300
 Frc consts  --      2.1112                 1.1343                 1.4112
 IR Inten    --     42.1591                 0.8181                56.3624

                     73                     74                     75
                      A                      A                      A
 Frequencies --   1274.4295              1284.4384              1290.4584
 Red. masses --      1.3202                 1.4163                 1.8395
 Frc consts  --      1.2633                 1.3767                 1.8048
 IR Inten    --      2.2750                72.5327                47.0596

                     76                     77                     78
                      A                      A                      A
 Frequencies --   1308.1615              1311.0905              1318.0996
 Red. masses --      1.8414                 1.5813                 1.4381
 Frc consts  --      1.8566                 1.6015                 1.4721
 IR Inten    --    106.4600                86.1274                 1.1937

                     79                     80                     81
                      A                      A                      A
 Frequencies --   1326.4159              1326.6864              1336.2304
 Red. masses --      1.1088                 1.3681                 1.1396
 Frc consts  --      1.1493                 1.4187                 1.1988
 IR Inten    --     18.1192                42.1762                10.8726

                     82                     83                     84
                      A                      A                      A
 Frequencies --   1339.0078              1344.8118              1351.1719
 Red. masses --      1.1650                 1.4137                 1.3850
 Frc consts  --      1.2306                 1.5063                 1.4898
 IR Inten    --      6.9600                20.4685                 3.5865

                     85                     86                     87
                      A                      A                      A
 Frequencies --   1366.8314              1375.0152              1391.4610
 Red. masses --      6.3030                 1.4101                 1.5036
 Frc consts  --      6.9379                 1.5708                 1.7153
 IR Inten    --     67.9829                 1.5135                 8.3084

                     88                     89                     90
                      A                      A                      A
 Frequencies --   1399.6249              1400.4525              1401.8514
 Red. masses --      1.6142                 1.7436                 1.8614
 Frc consts  --      1.8631                 2.0148                 2.1553
 IR Inten    --      4.8139               136.6157               196.6472

                     91                     92                     93
                      A                      A                      A
 Frequencies --   1412.8145              1479.4248              1484.1770
 Red. masses --      1.2512                 1.1916                 1.1194
 Frc consts  --      1.4715                 1.5367                 1.4529
 IR Inten    --      2.2709                 5.0730                 0.1847

                     94                     95                     96
                      A                      A                      A
 Frequencies --   1484.4781              1486.0753              1488.1814
 Red. masses --      1.1232                 1.7273                 1.1094
 Frc consts  --      1.4583                 2.2474                 1.4476
 IR Inten    --      0.1311                 9.8851                 1.9187

                     97                     98                     99
                      A                      A                      A
 Frequencies --   1489.9159              1496.1687              1499.6184
 Red. masses --      1.0797                 1.0805                 1.0397
 Frc consts  --      1.4122                 1.4250                 1.3776
 IR Inten    --      1.0218                 0.8030                 7.9216

                    100                    101                    102
                      A                      A                      A
 Frequencies --   1503.2957              1506.6310              1510.0415
 Red. masses --      1.0891                 2.6397                 1.0945
 Frc consts  --      1.4502                 3.5303                 1.4705
 IR Inten    --      2.3360                 3.9467                 0.3851

                    103                    104                    105
                      A                      A                      A
 Frequencies --   1514.8564              1613.4245              1627.8853
 Red. masses --      1.0980                 6.6589                 5.9389
 Frc consts  --      1.4845                10.2129                 9.2727
 IR Inten    --     14.1068                 2.0771                78.9114

                    106                    107                    108
                      A                      A                      A
 Frequencies --   1690.5964              1702.1512              1704.5283
 Red. masses --      7.9949                11.1960                11.2402
 Frc consts  --     13.4631                19.1122                19.2412
 IR Inten    --     47.0045                58.3657               405.4608

                    109                    110                    111
                      A                      A                      A
 Frequencies --   2989.7634              2990.8575              2993.6125
 Red. masses --      1.0573                 1.0576                 1.0578
 Frc consts  --      5.5685                 5.5739                 5.5852
 IR Inten    --      0.6392                 0.5687                 1.4169

                    112                    113                    114
                      A                      A                      A
 Frequencies --   2996.5805              3003.2556              3006.1901
 Red. masses --      1.0588                 1.0600                 1.0977
 Frc consts  --      5.6015                 5.6329                 5.8447
 IR Inten    --      0.2858                12.6835                 2.3995

                    115                    116                    117
                      A                      A                      A
 Frequencies --   3008.0717              3010.0659              3016.5140
 Red. masses --      1.0607                 1.0989                 1.0381
 Frc consts  --      5.6547                 5.8662                 5.5653
 IR Inten    --    132.9052                 1.1362                43.9956

                    118                    119                    120
                      A                      A                      A
 Frequencies --   3016.6552              3019.3119              3028.2244
 Red. masses --      1.0876                 1.0717                 1.1031
 Frc consts  --      5.8314                 5.7561                 5.9599
 IR Inten    --     19.7456                32.1737                 2.2498

                    121                    122                    123
                      A                      A                      A
 Frequencies --   3039.5685              3047.1228              3049.9883
 Red. masses --      1.1048                 1.0612                 1.1027
 Frc consts  --      6.0141                 5.8055                 6.0436
 IR Inten    --      0.1914                31.2757                84.4990

                    124                    125                    126
                      A                      A                      A
 Frequencies --   3059.7959              3076.9075              3081.1774
 Red. masses --      1.1042                 1.1024                 1.1009
 Frc consts  --      6.0906                 6.1495                 6.1580
 IR Inten    --     73.9245                73.9397                46.5753

                    127                    128                    129
                      A                      A                      A
 Frequencies --   3094.2831              3171.6840              3185.7528
 Red. masses --      1.1056                 1.0870                 1.0915
 Frc consts  --      6.2370                 6.4429                 6.5267
 IR Inten    --     14.4172                 3.1444                 8.3657

                    130                    131                    132
                      A                      A                      A
 Frequencies --   3199.5430              3202.9327              3617.6476
 Red. masses --      1.0933                 1.0948                 1.0642
 Frc consts  --      6.5942                 6.6171                 8.2061
 IR Inten    --      1.6357                 8.5486               154.3782

 - Thermochemistry -
 -------------------
 Temperature   298.150 Kelvin.  Pressure   1.00000 Atm.
 Atom     1 has atomic number  6 and mass  12.00000

 Molecular mass:   300.17254 amu.
 Principal axes and moments of inertia in atomic units:
                           1         2         3
     Eigenvalues --  2534.50224********************
           X            0.82521   0.54642   0.14303
           Y           -0.36297   0.70703  -0.60692
           Z           -0.43276   0.44892   0.78179
 This molecule is an asymmetric top.
 Rotational symmetry number  1.
 Warning -- assumption of classical behavior for rotation
           may cause significant error
 Rotational temperatures (Kelvin)      0.03417     0.00343     0.00324
 Rotational constants (GHZ):           0.71207     0.07137     0.06756
 Zero-point vibrational energy    1027675.4 (Joules/Mol)
                                  245.62032 (Kcal/Mol)
 Warning -- explicit consideration of  32 degrees of freedom as
           vibrations may cause significant error
 Vibrational temperatures:     18.73    32.41    38.38    57.58    74.72
          (Kelvin)            105.35   113.64   137.96   152.14   178.32
                              182.37   206.72   216.29   232.05   247.13
                              309.19   351.60   361.90   411.09   435.53
                              460.88   520.02   535.29   559.79   603.69
                              618.64   640.72   648.87   688.48   707.12
                              760.47   847.90   930.50   941.75   975.32
                             1017.96  1026.89  1052.14  1055.86  1059.20
                             1071.42  1100.11  1110.76  1159.25  1175.19
                             1241.33  1288.99  1308.25  1313.61  1366.27
                             1398.48  1424.44  1433.25  1435.97  1462.29
                             1469.73  1481.40  1506.42  1513.55  1522.90
                             1530.02  1532.90  1542.62  1597.82  1633.97
                             1637.07  1701.22  1720.29  1743.03  1769.02
                             1775.07  1800.20  1833.62  1848.02  1856.68
                             1882.15  1886.37  1896.45  1908.42  1908.81
                             1922.54  1926.53  1934.88  1944.03  1966.57
                             1978.34  2002.00  2013.75  2014.94  2016.95
                             2032.72  2128.56  2135.40  2135.83  2138.13
                             2141.16  2143.66  2152.65  2157.62  2162.91
                             2167.71  2172.61  2179.54  2321.36  2342.16
                             2432.39  2449.02  2452.44  4301.60  4303.18
                             4307.14  4311.41  4321.01  4325.24  4327.94
                             4330.81  4340.09  4340.29  4344.12  4356.94
                             4373.26  4384.13  4388.25  4402.36  4426.98
                             4433.13  4451.98  4563.35  4583.59  4603.43
                             4608.31  5204.99

 Zero-point correction=                           0.391421 (Hartree/Particle)
 Thermal correction to Energy=                    0.413720
 Thermal correction to Enthalpy=                  0.414664
 Thermal correction to Gibbs Free Energy=         0.336231
 Sum of electronic and zero-point Energies=           -964.052937
 Sum of electronic and thermal Energies=              -964.030639
 Sum of electronic and thermal Enthalpies=            -964.029694
 Sum of electronic and thermal Free Energies=         -964.108127

                     E (Thermal)             CV                S
                      KCal/Mol        Cal/Mol-Kelvin    Cal/Mol-Kelvin
 Total                  259.613             82.982            165.076
 Electronic               0.000              0.000              0.000
 Translational            0.889              2.981             42.994
 Rotational               0.889              2.981             35.791
 Vibrational            257.835             77.020             86.290
 Vibration     1          0.593              1.987              7.487
 Vibration     2          0.593              1.985              6.398
 Vibration     3          0.593              1.984              6.063
 Vibration     4          0.594              1.981              5.258
 Vibration     5          0.596              1.977              4.743
 Vibration     6          0.599              1.967              4.065
 Vibration     7          0.600              1.963              3.916
 Vibration     8          0.603              1.952              3.536
 Vibration     9          0.605              1.945              3.346
 Vibration    10          0.610              1.929              3.038
 Vibration    11          0.611              1.926              2.995
 Vibration    12          0.616              1.909              2.754
 Vibration    13          0.618              1.902              2.668
 Vibration    14          0.622              1.890              2.535
 Vibration    15          0.626              1.877              2.416
 Vibration    16          0.645              1.818              2.002
 Vibration    17          0.660              1.772              1.771
 Vibration    18          0.664              1.760              1.720
 Vibration    19          0.684              1.700              1.499
 Vibration    20          0.694              1.669              1.402
 Vibration    21          0.706              1.635              1.308
 Vibration    22          0.736              1.552              1.116
 Vibration    23          0.744              1.530              1.071
 Vibration    24          0.757              1.494              1.004
 Vibration    25          0.782              1.428              0.893
 Vibration    26          0.791              1.405              0.859
 Vibration    27          0.805              1.371              0.810
 Vibration    28          0.810              1.359              0.793
 Vibration    29          0.835              1.298              0.714
 Vibration    30          0.847              1.269              0.680
 Vibration    31          0.884              1.187              0.590
 Vibration    32          0.947              1.055              0.468

                           ! Non-Optimized Parameters !
 Normal termination of Gaussian 16 at Mon Jan  8 05:40:50 2024.
