 Q-Chem 5.4, Q-Chem, Inc., Pleasanton, CA (2021)
 Q-Chem 5.4.0 for Intel X86 EM64T Linux

User input:
--------------------------------------------------------------
$molecule
-2 1
C                  0.2351460000      1.6921070000     -1.6391620000
C                 -1.1987230000      1.8038750000     -1.4530120000
C                 -2.0711420000      0.7667580000     -1.6706050000
C                 -1.6562370000     -0.5613280000     -2.0934550000
C                 -0.2559710000     -0.6927100000     -2.2367370000
C                  0.6899000000      0.3458910000     -1.9785570000
O                  0.9799600000      2.7234470000     -1.5545200000
O                 -2.5245710000     -1.4996990000     -2.2864240000
C                  3.1911950000      0.8038570000     -1.4460380000
C                  4.4631160000      0.8558630000     -2.0352170000
C                  3.0464440000      1.3312460000     -0.1548280000
C                  4.1323730000      1.8789360000      0.5220770000
C                  5.5492270000      1.4284750000     -1.3718580000
C                  5.3936360000      1.9393400000     -0.0834940000
H                 -1.5617310000      2.7898540000     -1.1643640000
H                 -3.1432480000      0.9134180000     -1.5300700000
H                  0.1357980000     -1.6615700000     -2.5295540000
H                  4.5817960000      0.4190190000     -3.0203490000
H                  2.0685590000      1.3084530000      0.3082930000
H                  3.9955830000      2.2729580000      1.5259900000
H                  6.5244350000      1.4634010000     -1.8544320000
H                  6.2420870000      2.3683800000      0.4456660000
C                  2.0969640000      0.0266190000     -2.1539330000
O                  2.5009210000     -0.9516900000     -2.8252610000
$end
$rem
MAX_SCF_CYCLES=200
BASIS  =  6-311++G(d,p)
GUI  =  2
JOB_TYPE  =  SP
METHOD  =  B3LYP
SOLVENT_METHOD = COSMO
$end
$solvent
dielectric 37.219
opticaldielectric 1.43
$end

--------------------------------------------------------------

             Standard Nuclear Orientation (Angstroms)
    I     Atom           X                Y                Z
 ----------------------------------------------------------------
    1      C      -1.0293156222    -1.1110366180     0.5413460132
    2      C      -2.3347296255    -1.7234495607     0.3865271347
    3      C      -3.4531516606    -1.0286059645    -0.0012844497
    4      C      -3.4519442583     0.3909536692    -0.3168944835
    5      C      -2.1751860301     0.9884683779    -0.2101216789
    6      C      -0.9787942113     0.2946443123     0.1466354935
    7      O      -0.0588007857    -1.7745810217     1.0346857895
    8      O      -4.5384326856     0.9940498273    -0.6741045418
    9      C       1.6138862272     0.4095827686     0.0258740966
   10      C       2.7282995891     1.0356705681     0.6035560805
   11      C       1.8428645457    -0.6958713829    -0.8059043125
   12      C       3.1347163730    -1.1493574165    -1.0566547501
   13      C       4.0237006713     0.5684099961     0.3773474074
   14      C       4.2378926544    -0.5253585638    -0.4610233553
   15      H      -2.3927686443    -2.7815007319     0.6403110110
   16      H      -4.4139902297    -1.5388969508    -0.0853253356
   17      H      -2.0864506692     2.0431410433    -0.4503425128
   18      H       2.5532778990     1.9098154456     1.2205170366
   19      H       0.9920540408    -1.1962656730    -1.2497361432
   20      H       3.2858330804    -2.0029799985    -1.7126260759
   21      H       4.8711946021     1.0675388925     0.8439870074
   22      H       5.2475536094    -0.8807325876    -0.6565963227
   23      C       0.2538555454     1.0639049613     0.1831468973
   24      O       0.2810748617     2.3145499041     0.2612325994
 ----------------------------------------------------------------

   15    -726.0411900046      5.11e-06  Convergence criterion met
 Total energy in the final basis set =     -726.0411900046
    6    -726.3276549561      5.18e-06  Convergence criterion met
 Total energy in the final basis set =     -726.3276549561

                    Orbital Energies (a.u.)
 --------------------------------------------------------------

 Alpha MOs
 -- Occupied --
-19.0791 -19.0377 -19.0264 -10.2317 -10.1977 -10.1800 -10.1721 -10.1704
-10.1682 -10.1672 -10.1667 -10.1661 -10.1446 -10.1398 -10.1379 -10.1244
 -1.0039  -0.9595  -0.9403  -0.8498  -0.7904  -0.7520  -0.7396  -0.7208
 -0.6622  -0.6241  -0.5992  -0.5825  -0.5507  -0.5296  -0.4912  -0.4547
 -0.4489  -0.4387  -0.4384  -0.4226  -0.4133  -0.4090  -0.3917  -0.3821
 -0.3732  -0.3678  -0.3537  -0.3468  -0.3401  -0.3341  -0.3278  -0.3244
 -0.2563  -0.2532  -0.2398  -0.2365  -0.2268  -0.2085  -0.2056  -0.1343

          Ground-State Mulliken Net Atomic Charges

     Atom                 Charge (a.u.)
  ----------------------------------------
      1 C                    -1.058242
      2 C                    -0.113441
      3 C                    -0.066278
      4 C                    -0.385586
      5 C                    -0.046906
      6 C                     1.407733
      7 O                    -0.577183
      8 O                    -0.770262
      9 C                     1.256671
     10 C                     0.163098
     11 C                    -0.693560
     12 C                    -0.453539
     13 C                    -0.328539
     14 C                    -0.297515
     15 H                     0.177710
     16 H                     0.175721
     17 H                     0.166687
     18 H                     0.215566
     19 H                     0.194266
     20 H                     0.204923
     21 H                     0.203880
     22 H                     0.197443
     23 C                    -1.147657
     24 O                    -0.424988
  ----------------------------------------
  Sum of atomic charges =    -2.000000

                    Cartesian Multipole Moments
 -----------------------------------------------------------------
    Charge (ESU x 10^10)
                -9.6064
    Dipole Moment (Debye)
         X      18.5740      Y      -4.2581      Z      -1.2545
       Tot      19.0971
    Quadrupole Moments (Debye-Ang)
        XX    -180.7128     XY      18.0339     YY    -126.9993
        XZ     -11.8690     YZ      11.3307     ZZ    -106.5473

 Total job time:  57.60s(wall), 430.19s(cpu)
        *  Thank you very much for using Q-Chem.  Have a nice day.  *
