 Q-Chem 5.4, Q-Chem, Inc., Pleasanton, CA (2021)
 Q-Chem 5.4.0 for Intel X86 EM64T Linux

User input:
--------------------------------------------------------------
$molecule
0 1
C                  1.2095470000     -0.6456890000      1.8476190000
C                  0.8118800000     -1.6720200000      0.8487220000
C                 -0.2762680000     -1.5371220000      0.0804520000
C                 -1.1420300000     -0.3385180000      0.1827590000
C                 -0.7374360000      0.7160110000      1.1553740000
C                  0.3545560000      0.5776180000      1.9170940000
O                  2.1690340000     -0.8186640000      2.5737070000
O                 -2.1452900000     -0.2106800000     -0.4948320000
S                  0.8374810000      1.9822650000      2.9902290000
C                  0.7958900000      1.3396870000      4.6691890000
C                 -0.3985420000      1.4167100000      5.3849210000
C                  1.9606010000      0.8179510000      5.2280660000
C                  1.9189240000      0.3536480000      6.5401550000
C                 -0.4251430000      0.9423840000      6.6937970000
C                  0.7304910000      0.4126900000      7.2681450000
O                  2.2119620000      2.3371210000      2.6415560000
O                 -0.2531670000      2.9541530000      2.8575390000
H                  1.4585170000     -2.5412440000      0.8005630000
H                 -0.5794200000     -2.2863050000     -0.6422790000
H                 -1.3596130000      1.6028010000      1.2113560000
H                 -1.2763650000      1.8580520000      4.9301090000
H                  2.8697280000      0.7799530000      4.6437220000
H                  2.8159210000     -0.0512880000      6.9936100000
H                 -1.3430910000      0.9982630000      7.2669710000
H                  0.7057500000      0.0487630000      8.2890750000
$end
$rem
MAX_SCF_CYCLES=200
BASIS  =  6-311++G(d,p)
GUI  =  2
JOB_TYPE  =  SP
METHOD  =  B3LYP
SOLVENT_METHOD = PCM
$end
$pcm
theory = CPCM
$end
$solvent
dielectric 37.219
opticaldielectric 1.43
$end

--------------------------------------------------------------

             Standard Nuclear Orientation (Angstroms)
    I     Atom           X                Y                Z
 ----------------------------------------------------------------
    1      C       1.2095470000    -0.6456890000     1.8476190000
    2      C       0.8118800000    -1.6720200000     0.8487220000
    3      C      -0.2762680000    -1.5371220000     0.0804520000
    4      C      -1.1420300000    -0.3385180000     0.1827590000
    5      C      -0.7374360000     0.7160110000     1.1553740000
    6      C       0.3545560000     0.5776180000     1.9170940000
    7      O       2.1690340000    -0.8186640000     2.5737070000
    8      O      -2.1452900000    -0.2106800000    -0.4948320000
    9      S       0.8374810000     1.9822650000     2.9902290000
   10      C       0.7958900000     1.3396870000     4.6691890000
   11      C      -0.3985420000     1.4167100000     5.3849210000
   12      C       1.9606010000     0.8179510000     5.2280660000
   13      C       1.9189240000     0.3536480000     6.5401550000
   14      C      -0.4251430000     0.9423840000     6.6937970000
   15      C       0.7304910000     0.4126900000     7.2681450000
   16      O       2.2119620000     2.3371210000     2.6415560000
   17      O      -0.2531670000     2.9541530000     2.8575390000
   18      H       1.4585170000    -2.5412440000     0.8005630000
   19      H      -0.5794200000    -2.2863050000    -0.6422790000
   20      H      -1.3596130000     1.6028010000     1.2113560000
   21      H      -1.2763650000     1.8580520000     4.9301090000
   22      H       2.8697280000     0.7799530000     4.6437220000
   23      H       2.8159210000    -0.0512880000     6.9936100000
   24      H      -1.3430910000     0.9982630000     7.2669710000
   25      H       0.7057500000     0.0487630000     8.2890750000
 ----------------------------------------------------------------

    9   -1161.3227255842      6.04e-06  Convergence criterion met
 Total energy in the final basis set =    -1161.3227255842

                    Orbital Energies (a.u.)
 --------------------------------------------------------------

 Alpha MOs
 -- Occupied --
-89.0766 -19.1586 -19.1581 -19.1430 -19.1412 -10.3088 -10.3033 -10.2526
-10.2371 -10.2267 -10.2224 -10.2206 -10.2045 -10.2032 -10.1964 -10.1943
-10.1939  -8.1403  -6.1030  -6.1022  -6.1013  -1.1382  -1.0915  -1.0882
 -1.0352  -0.8887  -0.8841  -0.8196  -0.7913  -0.7733  -0.7351  -0.7014
 -0.6516  -0.6369  -0.6321  -0.5975  -0.5582  -0.5430  -0.5319  -0.5153
 -0.4982  -0.4923  -0.4914  -0.4704  -0.4672  -0.4654  -0.4623  -0.4496
 -0.4455  -0.4372  -0.4254  -0.3974  -0.3898  -0.3697  -0.3673  -0.3557
 -0.3417  -0.3309  -0.3293  -0.3177  -0.3079  -0.2937  -0.2835  -0.2783

          Ground-State Mulliken Net Atomic Charges

     Atom                 Charge (a.u.)
  ----------------------------------------
      1 C                    -0.546750
      2 C                    -0.261288
      3 C                     0.209040
      4 C                    -0.468892
      5 C                    -0.067454
      6 C                     0.511764
      7 O                    -0.222443
      8 O                    -0.265996
      9 S                     0.467926
     10 C                     0.599432
     11 C                    -0.061436
     12 C                    -0.291816
     13 C                    -0.433472
     14 C                    -0.499842
     15 C                    -0.336905
     16 O                    -0.187254
     17 O                    -0.226570
     18 H                     0.273626
     19 H                     0.273552
     20 H                     0.306245
     21 H                     0.263741
     22 H                     0.281662
     23 H                     0.236350
     24 H                     0.232857
     25 H                     0.213921
  ----------------------------------------
  Sum of atomic charges =     0.000000

                    Cartesian Multipole Moments
 -----------------------------------------------------------------
    Charge (ESU x 10^10)
                -0.0000
    Dipole Moment (Debye)
         X      -1.3431      Y      -6.0715      Z       3.1009
       Tot       6.9486
    Quadrupole Moments (Debye-Ang)
        XX    -116.5220     XY      -7.7008     YY    -117.4470
        XZ     -10.0439     YZ      -9.7096     ZZ     -68.1192

 Total job time:  43.32s(wall), 297.88s(cpu)
        *  Thank you very much for using Q-Chem.  Have a nice day.  *
