 Gaussian 16, Revision A.03,
 Gaussian 16:  ES64L-G16RevA.03 25-Dec-2016

 --------------------------------------
 #P UB3LYP/6-311++G(d,p) nosym opt freq
 --------------------------------------

 --------
 Oxidized
 --------
 Symbolic Z-matrix:
 Charge =  0 Multiplicity = 1

 SCF Done:  E(UB3LYP) =  -918.066679684     A.U. after   15 cycles
 SCF Done:  E(UB3LYP) =  -918.070173180     A.U. after   13 cycles
 SCF Done:  E(UB3LYP) =  -918.070396137     A.U. after   11 cycles
 SCF Done:  E(UB3LYP) =  -918.070407995     A.U. after   10 cycles
 SCF Done:  E(UB3LYP) =  -918.070408856     A.U. after    9 cycles
 SCF Done:  E(UB3LYP) =  -918.070409420     A.U. after    9 cycles
 Optimization completed.
    -- Stationary point found.
 Normal termination of Gaussian 16 at Thu Dec 21 05:58:06 2023.

 ----------------------------------------------------------------------
 #P Geom=AllCheck Guess=TCheck SCRF=Check GenChk UB3LYP/6-311++G(d,p) F
 req
 ----------------------------------------------------------------------

 Structure from the checkpoint file:  "141.chk"
 --------
 Oxidized
 --------
 Charge =  0 Multiplicity = 1

                          Input orientation:
 ---------------------------------------------------------------------
 Center     Atomic      Atomic             Coordinates (Angstroms)
 Number     Number       Type             X           Y           Z
 ---------------------------------------------------------------------
      1          6           0       -3.289641    3.609415    0.084506
      2          6           0       -4.520987    2.965915    0.090370
      3          6           0       -4.569494    1.564069    0.067310
      4          6           0       -2.095713    2.885960    0.056057
      5          6           0       -2.153666    1.476645    0.033037
      6          6           0       -3.380774    0.827115    0.038719
      7          6           0       -0.803686    3.613284    0.050846
      8          6           0        0.444974    2.787049    0.019880
      9          6           0        0.387021    1.377735   -0.003141
     10          6           0       -0.905005    0.650409    0.002147
     11          6           0        1.672081    3.436581    0.014138
     12          6           0        2.860802    2.699632   -0.014503
     13          6           0        2.812294    1.297784   -0.037570
     14          6           0        1.580948    0.654283   -0.031658
     15          8           0       -0.751677    4.833785    0.070470
     16          8           0       -0.957019   -0.570085   -0.017843
     17          1           0       -3.416393   -0.254678    0.020895
     18          1           0        1.526873   -0.427492   -0.049256
     19          1           0       -3.235566    4.691190    0.102095
     20          1           0        1.707699    4.518375    0.031955
     21          8           0        4.005707    3.426519   -0.017944
     22          8           0       -5.714404    0.837195    0.070705
     23          6           0       -6.965991    1.517388    0.096607
     24          6           0        5.257315    2.746361   -0.043858
     25          1           0       -5.428189    3.554342    0.112731
     26          1           0        3.719493    0.709356   -0.059973
     27          1           0       -7.724605    0.737206    0.092272
     28          1           0       -7.091744    2.151909   -0.786529
     29          1           0       -7.071112    2.121815    1.003252
     30          1           0        6.015907    3.526564   -0.039515
     31          1           0        5.362452    2.141949   -0.950511
     32          1           0        5.383089    2.111833    0.839269
 ---------------------------------------------------------------------

 SCF Done:  E(UB3LYP) =  -918.070409420     A.U. after    1 cycles

 Alpha  occ. eigenvalues --  -19.17592 -19.17592 -19.11607 -19.11606 -10.26978
 Alpha  occ. eigenvalues --  -10.26977 -10.26064 -10.26064 -10.24171 -10.24171
 Alpha  occ. eigenvalues --  -10.20417 -10.20416 -10.19763 -10.19763 -10.19704
 Alpha  occ. eigenvalues --  -10.19703 -10.19580 -10.19580 -10.18951 -10.18951
 Alpha  occ. eigenvalues --   -1.09210  -1.09209  -1.05105  -1.04913  -0.88840
 Alpha  occ. eigenvalues --   -0.87773  -0.80896  -0.78400  -0.78223  -0.77115
 Alpha  occ. eigenvalues --   -0.72744  -0.72680  -0.66979  -0.66866  -0.62538
 Alpha  occ. eigenvalues --   -0.62198  -0.58462  -0.56771  -0.56094  -0.53692
 Alpha  occ. eigenvalues --   -0.51490  -0.51172  -0.49468  -0.49111  -0.49084
 Alpha  occ. eigenvalues --   -0.48110  -0.45654  -0.44766  -0.44666  -0.44588
 Alpha  occ. eigenvalues --   -0.44524  -0.43923  -0.42941  -0.42164  -0.40602
 Alpha  occ. eigenvalues --   -0.40269  -0.39607  -0.39279  -0.38788  -0.37940
 Alpha  occ. eigenvalues --   -0.35210  -0.34931  -0.34496  -0.33286  -0.28180
 Alpha  occ. eigenvalues --   -0.27497  -0.27383  -0.26284  -0.25241  -0.24366
 Alpha virt. eigenvalues --   -0.10438  -0.06864  -0.02321  -0.02203  -0.01479
 Alpha virt. eigenvalues --   -0.01379   0.00872   0.01005   0.01250   0.02157
 Alpha virt. eigenvalues --    0.02430   0.02487   0.03349   0.03448   0.04247

  Beta  occ. eigenvalues --  -19.17592 -19.17592 -19.11607 -19.11606 -10.26978
  Beta  occ. eigenvalues --  -10.26977 -10.26064 -10.26064 -10.24171 -10.24171
  Beta  occ. eigenvalues --  -10.20417 -10.20416 -10.19763 -10.19763 -10.19704
  Beta  occ. eigenvalues --  -10.19703 -10.19580 -10.19580 -10.18951 -10.18951
  Beta  occ. eigenvalues --   -1.09210  -1.09209  -1.05105  -1.04913  -0.88840
  Beta  occ. eigenvalues --   -0.87773  -0.80896  -0.78400  -0.78223  -0.77115
  Beta  occ. eigenvalues --   -0.72744  -0.72680  -0.66979  -0.66866  -0.62538
  Beta  occ. eigenvalues --   -0.62198  -0.58462  -0.56771  -0.56094  -0.53692
  Beta  occ. eigenvalues --   -0.51490  -0.51172  -0.49468  -0.49111  -0.49084
  Beta  occ. eigenvalues --   -0.48110  -0.45654  -0.44766  -0.44666  -0.44588
  Beta  occ. eigenvalues --   -0.44524  -0.43923  -0.42941  -0.42164  -0.40602
  Beta  occ. eigenvalues --   -0.40269  -0.39607  -0.39279  -0.38788  -0.37940
  Beta  occ. eigenvalues --   -0.35210  -0.34931  -0.34496  -0.33286  -0.28180
  Beta  occ. eigenvalues --   -0.27497  -0.27383  -0.26284  -0.25241  -0.24366
  Beta virt. eigenvalues --   -0.10438  -0.06864  -0.02321  -0.02203  -0.01479
  Beta virt. eigenvalues --   -0.01379   0.00872   0.01005   0.01250   0.02157
  Beta virt. eigenvalues --    0.02430   0.02487   0.03349   0.03448   0.04247

 Mulliken charges and spin densities:
               1          2
     1  C    0.026338  -0.000000
     2  C    0.153567  -0.000000
     3  C   -0.766200   0.000000
     4  C    0.537570   0.000000
     5  C    0.798436  -0.000000
     6  C   -0.458466  -0.000000
     7  C   -0.685869   0.000000
     8  C    0.798438  -0.000000
     9  C    0.537572  -0.000000
    10  C   -0.685866   0.000000
    11  C   -0.458471  -0.000000
    12  C   -0.766177  -0.000000
    13  C    0.153566   0.000000
    14  C    0.026334  -0.000000
    15  O   -0.219907   0.000000
    16  O   -0.219907  -0.000000
    17  H    0.203321   0.000000
    18  H    0.186153  -0.000000
    19  H    0.186153  -0.000000
    20  H    0.203322  -0.000000
    21  O   -0.149206   0.000000
    22  O   -0.149200  -0.000000
    23  C   -0.325298  -0.000000
    24  C   -0.325294   0.000000
    25  H    0.195824  -0.000000
    26  H    0.195821  -0.000000
    27  H    0.189194   0.000000
    28  H    0.157238  -0.000000
    29  H    0.157291  -0.000000
    30  H    0.189191  -0.000000
    31  H    0.157298   0.000000
    32  H    0.157233   0.000000
 Sum of Mulliken charges =  -0.00000   0.00000

 Dipole moment (field-independent basis, Debye):
    X=              0.0000    Y=              0.0000    Z=              0.0004  Tot=              0.0004
 Quadrupole moment (field-independent basis, Debye-Ang):
   XX=            -61.0275   YY=           -132.0390   ZZ=           -117.4575
   XY=             -9.0357   XZ=             -0.8798   YZ=             -0.1133

  Exact polarizability: 346.445  17.728 206.509  -2.968   1.503 103.687
 Approx polarizability: 453.872  37.472 407.576  -3.279   3.575 165.607

                      1                      2                      3
                      A                      A                      A
 Frequencies --     27.0438                71.4145                77.4465
 Red. masses --      5.7527                 3.4696                 4.3502
 Frc consts  --      0.0025                 0.0104                 0.0154
 IR Inten    --      4.7409                 0.0000                 0.0136

                      4                      5                      6
                      A                      A                      A
 Frequencies --     89.9882               104.6526               124.7557
 Red. masses --      3.8529                 5.3887                 4.6374
 Frc consts  --      0.0184                 0.0348                 0.0425
 IR Inten    --      6.7293                 0.0000                 2.6306

                      7                      8                      9
                      A                      A                      A
 Frequencies --    154.5174               188.3319               192.4666
 Red. masses --      6.6386                 5.0375                 4.8445
 Frc consts  --      0.0934                 0.1053                 0.1057
 IR Inten    --      6.5008                 0.0000                 0.0000

                     10                     11                     12
                      A                      A                      A
 Frequencies --    220.2625               224.7128               255.5720
 Red. masses --      1.1996                 1.1780                 5.1603
 Frc consts  --      0.0343                 0.0350                 0.1986
 IR Inten    --      0.0142                 0.0000                 0.0000

                     13                     14                     15
                      A                      A                      A
 Frequencies --    286.0535               289.8176               313.6404
 Red. masses --      3.6669                 3.7762                 4.4871
 Frc consts  --      0.1768                 0.1869                 0.2601
 IR Inten    --      8.4317                 2.2237                 0.0000

                     16                     17                     18
                      A                      A                      A
 Frequencies --    328.9732               356.8416               414.6606
 Red. masses --      6.4024                 9.8936                 7.3701
 Frc consts  --      0.4082                 0.7423                 0.7466
 IR Inten    --      0.0000                12.3293                 0.0000

                     19                     20                     21
                      A                      A                      A
 Frequencies --    435.1542               448.2029               454.4254
 Red. masses --      3.4029                 3.4198                 6.3060
 Frc consts  --      0.3796                 0.4048                 0.7672
 IR Inten    --      0.5949                 0.0000                 9.3761

                     22                     23                     24
                      A                      A                      A
 Frequencies --    473.7746               519.8300               536.0902
 Red. masses --     11.9610                 6.4145                 4.3189
 Frc consts  --      1.5818                 1.0213                 0.7313
 IR Inten    --      0.0000                 0.0000                 0.0000

                     25                     26                     27
                      A                      A                      A
 Frequencies --    579.0798               593.0855               635.2189
 Red. masses --      3.7696                 5.1852                 6.8095
 Frc consts  --      0.7448                 1.0746                 1.6189
 IR Inten    --     12.8644                55.6955                 0.0000

                     28                     29                     30
                      A                      A                      A
 Frequencies --    676.2342               683.1107               701.2393
 Red. masses --      6.2921                 3.3730                 7.0113
 Frc consts  --      1.6953                 0.9274                 2.0313
 IR Inten    --      0.3104                 0.0000                 0.0000

                     31                     32                     33
                      A                      A                      A
 Frequencies --    715.7833               717.2505               762.5054
 Red. masses --      7.0051                 3.9749                 6.5885
 Frc consts  --      2.1146                 1.2048                 2.2570
 IR Inten    --     26.7601                 5.0656                43.1983

                     34                     35                     36
                      A                      A                      A
 Frequencies --    786.3323               797.7854               842.5865
 Red. masses --      4.3425                 6.0397                 1.4923
 Frc consts  --      1.5820                 2.2648                 0.6242
 IR Inten    --      0.0000                 0.0000                36.1253

                     37                     38                     39
                      A                      A                      A
 Frequencies --    843.4544               884.1910               923.4252
 Red. masses --      1.6637                 6.6474                 1.4323
 Frc consts  --      0.6974                 3.0619                 0.7196
 IR Inten    --      0.0002                55.1984                 0.0000

                     40                     41                     42
                      A                      A                      A
 Frequencies --    923.9863               981.2541               985.6325
 Red. masses --      1.4505                 5.4170                 1.3213
 Frc consts  --      0.7296                 3.0731                 0.7563
 IR Inten    --     26.5894                 0.0000                 0.0001

                     43                     44                     45
                      A                      A                      A
 Frequencies --    986.9901               989.1789              1053.5943
 Red. masses --      4.4437                 1.3555                 3.5801
 Frc consts  --      2.5505                 0.7814                 2.3415
 IR Inten    --    164.5461                 5.1958                 0.0000

                     46                     47                     48
                      A                      A                      A
 Frequencies --   1055.8397              1111.8967              1132.5780
 Red. masses --      2.3586                 3.9422                 2.0119
 Frc consts  --      1.5492                 2.8715                 1.5206
 IR Inten    --     55.5291               164.7299                 0.0000

                     49                     50                     51
                      A                      A                      A
 Frequencies --   1162.7364              1166.5115              1166.5290
 Red. masses --      1.8409                 1.2729                 1.2729
 Frc consts  --      1.4663                 1.0205                 1.0206
 IR Inten    --      0.0000                 1.3796                 0.0134

                     52                     53                     54
                      A                      A                      A
 Frequencies --   1176.8175              1203.0001              1206.7312
 Red. masses --      1.5841                 1.4650                 1.4186
 Frc consts  --      1.2926                 1.2492                 1.2171
 IR Inten    --      9.9377                 0.0000                17.2969

                     55                     56                     57
                      A                      A                      A
 Frequencies --   1234.1777              1250.3612              1275.2575
 Red. masses --      1.6184                 1.9189                 5.7416
 Frc consts  --      1.4524                 1.7676                 5.5015
 IR Inten    --      0.0000               107.8097                 0.0000

                     58                     59                     60
                      A                      A                      A
 Frequencies --   1298.8431              1307.0713              1318.3948
 Red. masses --      2.0052                 7.4786                 2.1916
 Frc consts  --      1.9931                 7.5279                 2.2444
 IR Inten    --    149.5324              1443.1027                 0.0000

                     61                     62                     63
                      A                      A                      A
 Frequencies --   1352.9122              1368.1585              1454.7951
 Red. masses --      9.1086                10.0445                 3.6971
 Frc consts  --      9.8229                11.0777                 4.6102
 IR Inten    --    246.6341                 0.0000               129.5043

                     64                     65                     66
                      A                      A                      A
 Frequencies --   1465.6444              1475.0733              1475.4020
 Red. masses --      3.9009                 1.2682                 1.2662
 Frc consts  --      4.9371                 1.6258                 1.6239
 IR Inten    --      0.0000                 8.4338                 0.0000

                     67                     68                     69
                      A                      A                      A
 Frequencies --   1494.1590              1494.2166              1503.0105
 Red. masses --      1.0454                 1.0454                 1.0614
 Frc consts  --      1.3751                 1.3752                 1.4127
 IR Inten    --      0.0036                20.4049                70.5340

                     70                     71                     72
                      A                      A                      A
 Frequencies --   1503.1696              1514.1867              1524.5165
 Red. masses --      1.0594                 2.8524                 2.8770
 Frc consts  --      1.4104                 3.8531                 3.9396
 IR Inten    --      0.0023                39.5948                 0.0000

                     73                     74                     75
                      A                      A                      A
 Frequencies --   1596.0544              1606.7642              1625.7343
 Red. masses --      6.7691                 7.8119                 6.5166
 Frc consts  --     10.1597                11.8826                10.1478
 IR Inten    --     61.3199                 0.0000               624.1521

                     76                     77                     78
                      A                      A                      A
 Frequencies --   1635.8562              1711.6178              1725.4336
 Red. masses --      6.1435                12.7573                11.7957
 Frc consts  --      9.6863                22.0202                20.6905
 IR Inten    --      0.0000                 0.0000               301.2729

                     79                     80                     81
                      A                      A                      A
 Frequencies --   3011.3510              3011.4938              3073.7348
 Red. masses --      1.0342                 1.0343                 1.1066
 Frc consts  --      5.5258                 5.5266                 6.1598
 IR Inten    --    121.9442                 0.0099                 0.4386

                     82                     83                     84
                      A                      A                      A
 Frequencies --   3073.7507              3141.3211              3141.3485
 Red. masses --      1.1066                 1.0998                 1.0997
 Frc consts  --      6.1599                 6.3940                 6.3940
 IR Inten    --     62.5139                38.6497                 0.0017

                     85                     86                     87
                      A                      A                      A
 Frequencies --   3192.1142              3192.1435              3206.7402
 Red. masses --      1.0885                 1.0884                 1.0911
 Frc consts  --      6.5346                 6.5346                 6.6103
 IR Inten    --      0.3734                 0.0001                12.9449

                     88                     89                     90
                      A                      A                      A
 Frequencies --   3206.8940              3209.0776              3209.1057
 Red. masses --      1.0909                 1.0929                 1.0930
 Frc consts  --      6.6103                 6.6311                 6.6316
 IR Inten    --      0.0000                14.7570                 0.3075

 - Thermochemistry -
 -------------------
 Temperature   298.150 Kelvin.  Pressure   1.00000 Atm.
 Atom     1 has atomic number  6 and mass  12.00000

 Molecular mass:   268.07356 amu.
 Principal axes and moments of inertia in atomic units:
                           1         2         3
     Eigenvalues --  1771.83292********************
           X            0.99392  -0.10931   0.01344
           Y            0.10953   0.99384  -0.01688
           Z           -0.01151   0.01825   0.99977
 This molecule is an asymmetric top.
 Rotational symmetry number  1.
 Warning -- assumption of classical behavior for rotation
           may cause significant error
 Rotational temperatures (Kelvin)      0.04888     0.00800     0.00689
 Rotational constants (GHZ):           1.01857     0.16669     0.14351
 Zero-point vibrational energy     639482.2 (Joules/Mol)
                                  152.83991 (Kcal/Mol)
 Warning -- explicit consideration of  26 degrees of freedom as
           vibrations may cause significant error
 Vibrational temperatures:     38.91   102.75   111.43   129.47   150.57
          (Kelvin)            179.50   222.32   270.97   276.92   316.91
                              323.31   367.71   411.57   416.98   451.26
                              473.32   513.42   596.60   626.09   644.86
                              653.82   681.66   747.92   771.31   833.17
                              853.32   913.94   972.95   982.84  1008.93
                             1029.85  1031.96  1097.08  1131.36  1147.84
                             1212.29  1213.54  1272.15  1328.60  1329.41
                             1411.81  1418.11  1420.06  1423.21  1515.89
                             1519.12  1599.77  1629.53  1672.92  1678.35
                             1678.38  1693.18  1730.85  1736.22  1775.71
                             1798.99  1834.81  1868.75  1880.58  1896.88
                             1946.54  1968.47  2093.13  2108.74  2122.30
                             2122.77  2149.76  2149.84  2162.50  2162.73
                             2178.58  2193.44  2296.37  2311.78  2339.07
                             2353.63  2462.64  2482.51  4332.66  4332.87
                             4422.42  4422.44  4519.66  4519.70  4592.74
                             4592.78  4613.78  4614.01  4617.15  4617.19

 Zero-point correction=                           0.243566 (Hartree/Particle)
 Thermal correction to Energy=                    0.260215
 Thermal correction to Enthalpy=                  0.261160
 Thermal correction to Gibbs Free Energy=         0.198979
 Sum of electronic and zero-point Energies=           -917.826844
 Sum of electronic and thermal Energies=              -917.810194
 Sum of electronic and thermal Enthalpies=            -917.809250
 Sum of electronic and thermal Free Energies=         -917.871430

                     E (Thermal)             CV                S
                      KCal/Mol        Cal/Mol-Kelvin    Cal/Mol-Kelvin
 Total                  163.288             64.323            130.870
 Electronic               0.000              0.000              0.000
 Translational            0.889              2.981             42.657
 Rotational               0.889              2.981             33.844
 Vibrational            161.510             58.362             54.368
 Vibration     1          0.593              1.984              6.035
 Vibration     2          0.598              1.968              4.114
 Vibration     3          0.599              1.964              3.955
 Vibration     4          0.602              1.956              3.660
 Vibration     5          0.605              1.946              3.366
 Vibration     6          0.610              1.928              3.025
 Vibration     7          0.620              1.898              2.616
 Vibration     8          0.633              1.856              2.244
 Vibration     9          0.634              1.850              2.204
 Vibration    10          0.647              1.810              1.957
 Vibration    11          0.649              1.803              1.921
 Vibration    12          0.666              1.753              1.692
 Vibration    13          0.684              1.700              1.497
 Vibration    14          0.686              1.693              1.475
 Vibration    15          0.701              1.648              1.343
 Vibration    16          0.712              1.618              1.265
 Vibration    17          0.732              1.561              1.136
 Vibration    18          0.778              1.438              0.910
 Vibration    19          0.796              1.394              0.842
 Vibration    20          0.807              1.365              0.801
 Vibration    21          0.813              1.351              0.783
 Vibration    22          0.831              1.308              0.727
 Vibration    23          0.875              1.206              0.610
 Vibration    24          0.891              1.170              0.574
 Vibration    25          0.936              1.077              0.487
 Vibration    26          0.951              1.047              0.462

                           ! Non-Optimized Parameters !
 Normal termination of Gaussian 16 at Thu Dec 21 06:46:49 2023.
