 Gaussian 16, Revision A.03,
 Gaussian 16:  ES64L-G16RevA.03 25-Dec-2016

 --------------------------------------
 #P UB3LYP/6-311++G(d,p) nosym opt freq
 --------------------------------------

 -------
 Reduced
 -------
 Symbolic Z-matrix:
 Charge = -2 Multiplicity = 1

 SCF Done:  E(UB3LYP) =  -566.145480301     A.U. after   19 cycles
 SCF Done:  E(UB3LYP) =  -566.145480146     A.U. after   11 cycles
 Optimization completed.
    -- Stationary point found.
 Normal termination of Gaussian 16 at Sat Jan  6 05:43:13 2024.

 ----------------------------------------------------------------------
 #P Geom=AllCheck Guess=TCheck SCRF=Check GenChk UB3LYP/6-311++G(d,p) F
 req
 ----------------------------------------------------------------------

 Structure from the checkpoint file:  "001-an.chk"
 -------
 Reduced
 -------
 Charge = -2 Multiplicity = 1

                          Input orientation:
 ---------------------------------------------------------------------
 Center     Atomic      Atomic             Coordinates (Angstroms)
 Number     Number       Type             X           Y           Z
 ---------------------------------------------------------------------
      1          8           0       -1.136648    1.776108   -1.904242
      2          6           0       -0.808001    0.904889   -1.029656
      3          6           0       -1.795555   -0.004708   -0.471200
      4          6           0       -1.518000   -0.961600    0.465932
      5          6           0       -0.198234   -1.197267    1.029138
      6          8           0       -0.009232   -2.110594    1.902090
      7          6           0        0.808652   -0.319322    0.503018
      8          6           0        0.511540    0.705017   -0.500218
      9          6           0        1.539667    1.544130   -0.985892
     10          7           0        2.386159    2.238977   -1.389573
     11          6           0        2.125404   -0.475152    0.991840
     12          7           0        3.211749   -0.607347    1.397661
     13          1           0       -2.809601    0.118247   -0.851405
     14          1           0       -2.307899   -1.611378    0.842506
 ---------------------------------------------------------------------

 SCF Done:  E(UB3LYP) =  -566.145480146     A.U. after    1 cycles

 Alpha  occ. eigenvalues --  -18.78076 -18.78075 -14.03028 -14.03027  -9.95007
 Alpha  occ. eigenvalues --   -9.95006  -9.93621  -9.93619  -9.91354  -9.91322
 Alpha  occ. eigenvalues --   -9.90964  -9.90898  -0.70273  -0.69902  -0.63146
 Alpha  occ. eigenvalues --   -0.62591  -0.55537  -0.49774  -0.43876  -0.37314
 Alpha  occ. eigenvalues --   -0.33529  -0.24051  -0.22731  -0.20954  -0.17785
 Alpha  occ. eigenvalues --   -0.13987  -0.12599  -0.11352  -0.10940  -0.09840
 Alpha  occ. eigenvalues --   -0.09677  -0.09518  -0.08224  -0.06286  -0.05799
 Alpha  occ. eigenvalues --   -0.05543   0.00551   0.02272   0.04336   0.04340
 Alpha  occ. eigenvalues --    0.11178
 Alpha virt. eigenvalues --    0.18379   0.20366   0.21412   0.23509   0.24448
 Alpha virt. eigenvalues --    0.26417   0.26701   0.27368   0.28212   0.28532
 Alpha virt. eigenvalues --    0.28687   0.29139   0.30088   0.30529   0.30859

  Beta  occ. eigenvalues --  -18.78076 -18.78075 -14.03028 -14.03027  -9.95007
  Beta  occ. eigenvalues --   -9.95006  -9.93621  -9.93619  -9.91354  -9.91322
  Beta  occ. eigenvalues --   -9.90964  -9.90898  -0.70273  -0.69902  -0.63146
  Beta  occ. eigenvalues --   -0.62591  -0.55537  -0.49774  -0.43876  -0.37314
  Beta  occ. eigenvalues --   -0.33529  -0.24051  -0.22731  -0.20954  -0.17785
  Beta  occ. eigenvalues --   -0.13987  -0.12599  -0.11352  -0.10940  -0.09840
  Beta  occ. eigenvalues --   -0.09677  -0.09518  -0.08224  -0.06286  -0.05799
  Beta  occ. eigenvalues --   -0.05543   0.00551   0.02272   0.04336   0.04340
  Beta  occ. eigenvalues --    0.11178
  Beta virt. eigenvalues --    0.18379   0.20366   0.21412   0.23509   0.24448
  Beta virt. eigenvalues --    0.26417   0.26701   0.27368   0.28212   0.28532
  Beta virt. eigenvalues --    0.28687   0.29139   0.30088   0.30529   0.30859

 Mulliken charges and spin densities:
               1          2
     1  O   -0.520401   0.000000
     2  C   -1.142700  -0.000000
     3  C    0.294767   0.000000
     4  C    0.294657   0.000000
     5  C   -1.142515  -0.000000
     6  O   -0.520402  -0.000000
     7  C    1.675043   0.000000
     8  C    1.674745   0.000000
     9  C   -1.042542  -0.000000
    10  N   -0.359394   0.000000
    11  C   -1.042615  -0.000000
    12  N   -0.359384   0.000000
    13  H    0.095370  -0.000000
    14  H    0.095371   0.000000
 Sum of Mulliken charges =  -2.00000  -0.00000

 Dipole moment (field-independent basis, Debye):
    X=             -7.7049    Y=             -2.2449    Z=             -0.0103  Tot=              8.0253
 Quadrupole moment (field-independent basis, Debye-Ang):
   XX=           -118.6867   YY=           -111.5973   ZZ=           -106.7569
   XY=             -2.3129   XZ=             -9.4872   YZ=             32.4884

  Exact polarizability: 196.870  22.227 127.351  13.030 -44.242 115.197
 Approx polarizability: 350.404  48.287 199.229  21.421 -72.533 175.841

                      1                      2                      3
                      A                      A                      A
 Frequencies --     63.7863               111.3826               137.4116
 Red. masses --     13.3685                 6.7745                13.6378
 Frc consts  --      0.0320                 0.0495                 0.1517
 IR Inten    --      0.0000                 7.2498                 0.0000

                      4                      5                      6
                      A                      A                      A
 Frequencies --    176.1510               178.8825               311.7000
 Red. masses --      9.6951                13.2656                 7.4087
 Frc consts  --      0.1772                 0.2501                 0.4241
 IR Inten    --     13.2028                 2.3904                 0.0000

                      7                      8                      9
                      A                      A                      A
 Frequencies --    339.3902               379.3340               385.7666
 Red. masses --     14.6058                11.2832                 6.8698
 Frc consts  --      0.9912                 0.9566                 0.6023
 IR Inten    --      1.9105                 0.8418                 0.0001

                     10                     11                     12
                      A                      A                      A
 Frequencies --    454.4297               479.3832               520.0618
 Red. masses --     11.8866                11.0130                 4.1054
 Frc consts  --      1.4462                 1.4912                 0.6542
 IR Inten    --     16.8202                 3.9410                11.7701

                     13                     14                     15
                      A                      A                      A
 Frequencies --    539.4873               591.1927               614.6170
 Red. masses --     12.1097                 8.4639                 9.3734
 Frc consts  --      2.0766                 1.7429                 2.0862
 IR Inten    --      2.9360                 0.0000                 0.2347

                     16                     17                     18
                      A                      A                      A
 Frequencies --    651.1019               657.5848               758.4967
 Red. masses --      3.2382                 4.6714                 7.8696
 Frc consts  --      0.8088                 1.1901                 2.6675
 IR Inten    --      0.2339                 0.3666                 0.0003

                     19                     20                     21
                      A                      A                      A
 Frequencies --    759.0691               834.8055               937.6293
 Red. masses --      8.4267                 2.2268                 1.2769
 Frc consts  --      2.8607                 0.9143                 0.6614
 IR Inten    --     19.9265                30.9850                 0.0000

                     22                     23                     24
                      A                      A                      A
 Frequencies --    973.5747              1002.0419              1147.4719
 Red. masses --      7.6264                 5.0680                 1.2902
 Frc consts  --      4.2590                 2.9982                 1.0009
 IR Inten    --     37.3436                22.2366                77.7793

                     25                     26                     27
                      A                      A                      A
 Frequencies --   1154.9093              1215.7384              1336.7071
 Red. masses --      3.6725                10.0633                 8.5102
 Frc consts  --      2.8861                 8.7634                 8.9590
 IR Inten    --     59.4674               151.9207               148.6870

                     28                     29                     30
                      A                      A                      A
 Frequencies --   1341.5193              1431.4607              1458.0090
 Red. masses --      2.2522                 8.1254                10.8853
 Frc consts  --      2.3881                 9.8096                13.6336
 IR Inten    --     47.6871               103.8584                11.2828

                     31                     32                     33
                      A                      A                      A
 Frequencies --   1498.6923              1617.9391              2221.7475
 Red. masses --      5.7118                 7.1026                12.6725
 Frc consts  --      7.5587                10.9545                36.8556
 IR Inten    --    851.9281               147.7571               140.0785

                     34                     35                     36
                      A                      A                      A
 Frequencies --   2227.6991              3085.1457              3114.1216
 Red. masses --     12.6765                 1.0834                 1.0936
 Frc consts  --     37.0648                 6.0754                 6.2486
 IR Inten    --    826.9017                42.6465               122.4407

 - Thermochemistry -
 -------------------
 Temperature   298.150 Kelvin.  Pressure   1.00000 Atm.
 Atom     1 has atomic number  8 and mass  15.99491

 Molecular mass:   158.01163 amu.
 Principal axes and moments of inertia in atomic units:
                           1         2         3
     Eigenvalues --  1476.538741764.370813240.90936
           X           -0.20294   0.96003  -0.19278
           Y            0.69959   0.27990   0.65744
           Z           -0.68512   0.00145   0.72843
 This molecule is an asymmetric top.
 Rotational symmetry number  1.
 Warning -- assumption of classical behavior for rotation
           may cause significant error
 Rotational temperatures (Kelvin)      0.05866     0.04909     0.02673
 Rotational constants (GHZ):           1.22228     1.02288     0.55686
 Zero-point vibrational energy     207602.6 (Joules/Mol)
                                   49.61821 (Kcal/Mol)
 Warning -- explicit consideration of  15 degrees of freedom as
           vibrations may cause significant error
 Vibrational temperatures:     91.77   160.25   197.70   253.44   257.37
          (Kelvin)            448.47   488.31   545.78   555.03   653.82
                              689.73   748.25   776.20   850.59   884.30
                              936.79   946.12  1091.31  1092.13  1201.10
                             1349.04  1400.76  1441.71  1650.96  1661.66
                             1749.18  1923.22  1930.15  2059.55  2097.75
                             2156.28  2327.85  3196.60  3205.16  4438.84
                             4480.53

 Zero-point correction=                           0.079072 (Hartree/Particle)
 Thermal correction to Energy=                    0.088675
 Thermal correction to Enthalpy=                  0.089619
 Thermal correction to Gibbs Free Energy=         0.043596
 Sum of electronic and zero-point Energies=           -566.066408
 Sum of electronic and thermal Energies=              -566.056805
 Sum of electronic and thermal Enthalpies=            -566.055861
 Sum of electronic and thermal Free Energies=         -566.101884

                     E (Thermal)             CV                S
                      KCal/Mol        Cal/Mol-Kelvin    Cal/Mol-Kelvin
 Total                   55.644             35.216             96.863
 Electronic               0.000              0.000              0.000
 Translational            0.889              2.981             41.082
 Rotational               0.889              2.981             30.513
 Vibrational             53.867             29.255             25.268
 Vibration     1          0.597              1.972              4.336
 Vibration     2          0.607              1.940              3.245
 Vibration     3          0.614              1.916              2.840
 Vibration     4          0.628              1.872              2.369
 Vibration     5          0.629              1.868              2.340
 Vibration     6          0.700              1.651              1.353
 Vibration     7          0.719              1.597              1.215
 Vibration     8          0.749              1.514              1.042
 Vibration     9          0.754              1.501              1.016
 Vibration    10          0.813              1.351              0.782
 Vibration    11          0.836              1.296              0.712
 Vibration    12          0.875              1.206              0.610
 Vibration    13          0.895              1.163              0.566
 Vibration    14          0.949              1.051              0.465
 Vibration    15          0.974              1.001              0.425

 Optimization completed.
    -- Stationary point found.
 Normal termination of Gaussian 16 at Sat Jan  6 05:48:09 2024.
