 Q-Chem 5.4, Q-Chem, Inc., Pleasanton, CA (2021)
 Q-Chem 5.4.0 for Intel X86 EM64T Linux

User input:
--------------------------------------------------------------
$molecule
-2 1
O                 -1.1366480000      1.7761080000     -1.9042420000
C                 -0.8080010000      0.9048890000     -1.0296560000
C                 -1.7955550000     -0.0047080000     -0.4712000000
C                 -1.5180000000     -0.9616000000      0.4659320000
C                 -0.1982340000     -1.1972670000      1.0291380000
O                 -0.0092320000     -2.1105940000      1.9020900000
C                  0.8086520000     -0.3193220000      0.5030180000
C                  0.5115400000      0.7050170000     -0.5002180000
C                  1.5396670000      1.5441300000     -0.9858920000
N                  2.3861590000      2.2389770000     -1.3895730000
C                  2.1254040000     -0.4751520000      0.9918400000
N                  3.2117490000     -0.6073470000      1.3976610000
H                 -2.8096010000      0.1182470000     -0.8514050000
H                 -2.3078990000     -1.6113780000      0.8425060000
$end
$rem
MAX_SCF_CYCLES=200
BASIS  =  6-311++G(d,p)
GUI  =  2
JOB_TYPE  =  SP
METHOD  =  B3LYP
SOLVENT_METHOD = PCM
$end
$pcm
theory = CPCM
$end
$solvent
dielectric 37.219
opticaldielectric 1.43
$end

--------------------------------------------------------------

             Standard Nuclear Orientation (Angstroms)
    I     Atom           X                Y                Z
 ----------------------------------------------------------------
    1      O      -1.1366480000     1.7761080000    -1.9042420000
    2      C      -0.8080010000     0.9048890000    -1.0296560000
    3      C      -1.7955550000    -0.0047080000    -0.4712000000
    4      C      -1.5180000000    -0.9616000000     0.4659320000
    5      C      -0.1982340000    -1.1972670000     1.0291380000
    6      O      -0.0092320000    -2.1105940000     1.9020900000
    7      C       0.8086520000    -0.3193220000     0.5030180000
    8      C       0.5115400000     0.7050170000    -0.5002180000
    9      C       1.5396670000     1.5441300000    -0.9858920000
   10      N       2.3861590000     2.2389770000    -1.3895730000
   11      C       2.1254040000    -0.4751520000     0.9918400000
   12      N       3.2117490000    -0.6073470000     1.3976610000
   13      H      -2.8096010000     0.1182470000    -0.8514050000
   14      H      -2.3078990000    -1.6113780000     0.8425060000
 ----------------------------------------------------------------

   10    -566.4212757242      2.91e-06  Convergence criterion met
 Total energy in the final basis set =     -566.4212757242

                    Orbital Energies (a.u.)
 --------------------------------------------------------------

 Alpha MOs
 -- Occupied --
-19.0492 -19.0491 -14.2944 -14.2943 -10.2129 -10.2128 -10.2014 -10.2013
-10.1756 -10.1753 -10.1601 -10.1594  -0.9709  -0.9678  -0.8975  -0.8920
 -0.8155  -0.7539  -0.7021  -0.6305  -0.5924  -0.4979  -0.4924  -0.4691
 -0.4281  -0.4032  -0.3946  -0.3756  -0.3730  -0.3643  -0.3615  -0.3591
 -0.3458  -0.3298  -0.3246  -0.3215  -0.2548  -0.2402  -0.2268  -0.2256
 -0.1544

          Ground-State Mulliken Net Atomic Charges

     Atom                 Charge (a.u.)
  ----------------------------------------
      1 O                    -0.640856
      2 C                    -0.694578
      3 C                     0.070975
      4 C                     0.068751
      5 C                    -0.688539
      6 O                    -0.640742
      7 C                     1.631445
      8 C                     1.628360
      9 C                    -1.151366
     10 N                    -0.412469
     11 C                    -1.149356
     12 N                    -0.412549
     13 H                     0.195436
     14 H                     0.195488
  ----------------------------------------
  Sum of atomic charges =    -2.000000

                    Cartesian Multipole Moments
 -----------------------------------------------------------------
    Charge (ESU x 10^10)
                -9.6064
    Dipole Moment (Debye)
         X      -9.2750      Y      -2.7056      Z      -0.0099
       Tot       9.6615
    Quadrupole Moments (Debye-Ang)
        XX    -114.0943     XY      -0.7211     YY    -112.0026
        XZ      -9.9369     YZ      34.0625     ZZ    -107.4290

 Total job time:  15.24s(wall), 112.61s(cpu)
        *  Thank you very much for using Q-Chem.  Have a nice day.  *
