 Gaussian 16, Revision A.03,
 Gaussian 16:  ES64L-G16RevA.03 25-Dec-2016

 ----------------------------------------------------------------------
 #P UB3LYP/6-311++G(d,p) nosym opt freq SCRF=(PCM,Solvent=n,n-DiMethylF
 ormamide)
 ----------------------------------------------------------------------

 --------
 Oxidized
 --------
 Symbolic Z-matrix:
 Charge =  0 Multiplicity = 1

 SCF Done:  E(UB3LYP) =  -1505.78082605     A.U. after   18 cycles
 SCF Done:  E(UB3LYP) =  -1505.78088996     A.U. after   17 cycles
 SCF Done:  E(UB3LYP) =  -1505.78057428     A.U. after   18 cycles
 SCF Done:  E(UB3LYP) =  -1505.78126570     A.U. after   16 cycles
 SCF Done:  E(UB3LYP) =  -1505.78140951     A.U. after   14 cycles
 SCF Done:  E(UB3LYP) =  -1505.78135187     A.U. after   16 cycles
 SCF Done:  E(UB3LYP) =  -1505.78144895     A.U. after   13 cycles
 SCF Done:  E(UB3LYP) =  -1505.78145258     A.U. after   13 cycles
 SCF Done:  E(UB3LYP) =  -1505.78145446     A.U. after   14 cycles
 SCF Done:  E(UB3LYP) =  -1505.78145691     A.U. after   13 cycles
 SCF Done:  E(UB3LYP) =  -1505.78145709     A.U. after   11 cycles
 SCF Done:  E(UB3LYP) =  -1505.78145718     A.U. after   11 cycles
 SCF Done:  E(UB3LYP) =  -1505.78145722     A.U. after   11 cycles
 SCF Done:  E(UB3LYP) =  -1505.78145724     A.U. after   11 cycles
 SCF Done:  E(UB3LYP) =  -1505.78145726     A.U. after   10 cycles
 Optimization completed.
    -- Stationary point found.
 Normal termination of Gaussian 16 at Sat Feb 10 14:21:15 2024.

 ----------------------------------------------------------------------
 #P Geom=AllCheck Guess=TCheck SCRF=Check GenChk UB3LYP/6-311++G(d,p) F
 req
 ----------------------------------------------------------------------

 Structure from the checkpoint file:  "069.chk"
 --------
 Oxidized
 --------
 Charge =  0 Multiplicity = 1

                          Input orientation:
 ---------------------------------------------------------------------
 Center     Atomic      Atomic             Coordinates (Angstroms)
 Number     Number       Type             X           Y           Z
 ---------------------------------------------------------------------
      1          6           0        1.183639    1.475553   -0.221842
      2          6           0        0.007332    1.041413    0.561900
      3          6           0       -0.182305   -0.239703    0.894297
      4          6           0        0.779890   -1.282011    0.494660
      5          6           0        1.976827   -0.876343   -0.340072
      6          6           0        2.139479    0.414810   -0.673808
      7          8           0        1.370330    2.652077   -0.476010
      8          8           0        0.633739   -2.447443    0.817027
      9         16           0        3.518592    0.953136   -1.755657
     10          6           0        4.530405    2.037124   -0.747529
     11          6           0        4.431612    3.416218   -0.919901
     12          6           0        5.417597    1.462835    0.163991
     13          6           0        6.221590    2.303522    0.929109
     14          6           0        5.250412    4.242030   -0.153673
     15          6           0        6.138809    3.687514    0.768619
     16          8           0        2.942342    1.711447   -2.872128
     17          8           0        4.293290   -0.263416   -2.044516
     18          1           0       -0.677489    1.828108    0.855822
     19          1           0       -1.033152   -0.572537    1.476810
     20          1           0        3.732274    3.826970   -1.634985
     21          1           0        5.483707    0.387263    0.269218
     22          1           0        6.916428    1.876976    1.642248
     23          1           0        5.193327    5.316629   -0.277839
     24          1           0        6.770416    4.336315    1.364100
     25          6           0        2.942378   -2.037241   -0.587722
     26          6           0        2.725622   -2.927041   -1.747621
     27          6           0        1.731962   -2.664321   -2.700058
     28          6           0        3.534135   -4.065849   -1.883642
     29          6           0        1.550146   -3.527927   -3.776273
     30          6           0        2.359023   -4.656699   -3.906855
     31          6           0        3.351221   -4.924766   -2.959390
     32          8           0        3.782812   -2.224559    0.271991
     33          1           0        1.102505   -1.786679   -2.610800
     34          1           0        4.297671   -4.262495   -1.141333
     35          1           0        0.781734   -3.320670   -4.511322
     36          1           0        2.217624   -5.328417   -4.745789
     37          1           0        3.977365   -5.803051   -3.063206
 ---------------------------------------------------------------------

 SCF Done:  E(UB3LYP) =  -1505.78145726     A.U. after    2 cycles

 Alpha  occ. eigenvalues --  -89.07965 -19.16540 -19.16161 -19.14500 -19.14253
 Alpha  occ. eigenvalues --  -19.14182 -10.31346 -10.31282 -10.30284 -10.26239
 Alpha  occ. eigenvalues --  -10.25919 -10.23125 -10.22938 -10.22815 -10.20956
 Alpha  occ. eigenvalues --  -10.20783 -10.20603 -10.20137 -10.20112 -10.19891
 Alpha  occ. eigenvalues --  -10.19854 -10.19738 -10.19723 -10.19309 -10.19267
 Alpha  occ. eigenvalues --   -8.14329  -6.10591  -6.10528  -6.10425  -1.13763
 Alpha  occ. eigenvalues --   -1.09819  -1.09375  -1.07874  -1.03217  -0.89571
 Alpha  occ. eigenvalues --   -0.89138  -0.88151  -0.83192  -0.80004  -0.78558
 Alpha  occ. eigenvalues --   -0.77779  -0.76999  -0.74681  -0.70805  -0.68442
 Alpha  occ. eigenvalues --   -0.65251  -0.64073  -0.63630  -0.62531  -0.60478
 Alpha  occ. eigenvalues --   -0.58332  -0.56240  -0.55513  -0.54575  -0.53068
 Alpha  occ. eigenvalues --   -0.51432  -0.50303  -0.50037  -0.49498  -0.48481
 Alpha  occ. eigenvalues --   -0.48219  -0.47354  -0.47012  -0.46732  -0.46117
 Alpha  occ. eigenvalues --   -0.45634  -0.45513  -0.45109  -0.44393  -0.44073
 Alpha  occ. eigenvalues --   -0.43787  -0.42394  -0.40129  -0.39358  -0.38365
 Alpha  occ. eigenvalues --   -0.37994  -0.37484  -0.36733  -0.36506  -0.35492
 Alpha  occ. eigenvalues --   -0.34333  -0.33506  -0.33104  -0.32389  -0.31434
 Alpha  occ. eigenvalues --   -0.30976  -0.28862  -0.28360  -0.28093  -0.27899
 Alpha  occ. eigenvalues --   -0.27707
 Alpha virt. eigenvalues --   -0.15848  -0.08908  -0.07305  -0.05037  -0.03699
 Alpha virt. eigenvalues --   -0.03256  -0.02736  -0.00885  -0.00167   0.00240
 Alpha virt. eigenvalues --    0.00917   0.01051   0.01335   0.01631   0.01906

  Beta  occ. eigenvalues --  -89.07965 -19.16540 -19.16161 -19.14500 -19.14253
  Beta  occ. eigenvalues --  -19.14182 -10.31346 -10.31282 -10.30284 -10.26239
  Beta  occ. eigenvalues --  -10.25919 -10.23125 -10.22938 -10.22815 -10.20956
  Beta  occ. eigenvalues --  -10.20783 -10.20603 -10.20137 -10.20112 -10.19891
  Beta  occ. eigenvalues --  -10.19854 -10.19738 -10.19723 -10.19309 -10.19267
  Beta  occ. eigenvalues --   -8.14329  -6.10591  -6.10528  -6.10425  -1.13763
  Beta  occ. eigenvalues --   -1.09819  -1.09375  -1.07874  -1.03217  -0.89571
  Beta  occ. eigenvalues --   -0.89138  -0.88151  -0.83192  -0.80004  -0.78558
  Beta  occ. eigenvalues --   -0.77779  -0.76999  -0.74681  -0.70805  -0.68442
  Beta  occ. eigenvalues --   -0.65251  -0.64073  -0.63630  -0.62531  -0.60478
  Beta  occ. eigenvalues --   -0.58332  -0.56240  -0.55513  -0.54575  -0.53068
  Beta  occ. eigenvalues --   -0.51432  -0.50303  -0.50037  -0.49498  -0.48481
  Beta  occ. eigenvalues --   -0.48219  -0.47354  -0.47012  -0.46732  -0.46117
  Beta  occ. eigenvalues --   -0.45634  -0.45513  -0.45109  -0.44393  -0.44073
  Beta  occ. eigenvalues --   -0.43787  -0.42394  -0.40129  -0.39358  -0.38365
  Beta  occ. eigenvalues --   -0.37994  -0.37484  -0.36733  -0.36506  -0.35492
  Beta  occ. eigenvalues --   -0.34333  -0.33506  -0.33104  -0.32389  -0.31434
  Beta  occ. eigenvalues --   -0.30976  -0.28862  -0.28360  -0.28093  -0.27899
  Beta  occ. eigenvalues --   -0.27707
  Beta virt. eigenvalues --   -0.15848  -0.08908  -0.07305  -0.05037  -0.03699
  Beta virt. eigenvalues --   -0.03256  -0.02736  -0.00885  -0.00167   0.00240
  Beta virt. eigenvalues --    0.00917   0.01051   0.01335   0.01631   0.01906

 Mulliken charges and spin densities:
               1          2
     1  C   -0.312276  -0.000000
     2  C    0.251183   0.000000
     3  C   -0.319780  -0.000000
     4  C   -0.049018  -0.000000
     5  C    0.838130   0.000000
     6  C   -0.366367  -0.000000
     7  O   -0.208579   0.000000
     8  O   -0.212992  -0.000000
     9  S    0.204656  -0.000000
    10  C    0.685107  -0.000000
    11  C   -0.040484   0.000000
    12  C   -0.268802  -0.000000
    13  C   -0.511922   0.000000
    14  C   -0.473699   0.000000
    15  C   -0.292533   0.000000
    16  O   -0.121472   0.000000
    17  O   -0.090012  -0.000000
    18  H    0.269545   0.000000
    19  H    0.258609   0.000000
    20  H    0.266731   0.000000
    21  H    0.238092  -0.000000
    22  H    0.226742   0.000000
    23  H    0.221996  -0.000000
    24  H    0.201848   0.000000
    25  C   -0.255952   0.000000
    26  C    0.482208  -0.000000
    27  C   -0.927171   0.000000
    28  C    0.533690   0.000000
    29  C   -0.174065   0.000000
    30  C   -0.374983   0.000000
    31  C   -0.462879  -0.000000
    32  O   -0.243264  -0.000000
    33  H    0.175622  -0.000000
    34  H    0.223407   0.000000
    35  H    0.227550  -0.000000
    36  H    0.190067  -0.000000
    37  H    0.211067  -0.000000
 Sum of Mulliken charges =  -0.00000  -0.00000

 Dipole moment (field-independent basis, Debye):
    X=             -2.4501    Y=              1.7288    Z=              2.6877  Tot=              4.0268
 Quadrupole moment (field-independent basis, Debye-Ang):
   XX=           -143.9078   YY=           -137.8356   ZZ=           -152.6039
   XY=             13.4956   XZ=             16.6108   YZ=             25.8276

  Exact polarizability: 307.448  15.863 449.893  35.760  23.135 305.549
 Approx polarizability: 348.377   1.714 549.022  58.410  -7.597 366.241

                      1                      2                      3
                      A                      A                      A
 Frequencies --      9.6004                25.2535                33.4669
 Red. masses --      7.2875                 4.6618                 5.0793
 Frc consts  --      0.0004                 0.0018                 0.0034
 IR Inten    --      4.9368                 1.7689                 1.8437

                      4                      5                      6
                      A                      A                      A
 Frequencies --     40.0430                50.2128                56.7618
 Red. masses --      6.2332                 4.5099                 5.7961
 Frc consts  --      0.0059                 0.0067                 0.0110
 IR Inten    --      0.7186                 0.6544                 6.3678

                      7                      8                      9
                      A                      A                      A
 Frequencies --     84.3667               100.0677               142.5860
 Red. masses --      8.7081                 7.7580                12.2270
 Frc consts  --      0.0365                 0.0458                 0.1465
 IR Inten    --      8.3657                 1.6512                 1.6173

                     10                     11                     12
                      A                      A                      A
 Frequencies --    153.3630               171.8504               180.0867
 Red. masses --      7.0539                 6.4685                 7.2063
 Frc consts  --      0.0978                 0.1126                 0.1377
 IR Inten    --      3.5845                 5.5912                 2.0145

                     13                     14                     15
                      A                      A                      A
 Frequencies --    187.8114               229.5897               238.6410
 Red. masses --      7.1279                10.6964                 6.4435
 Frc consts  --      0.1481                 0.3322                 0.2162
 IR Inten    --     10.2160                 8.8141                 2.5318

                     16                     17                     18
                      A                      A                      A
 Frequencies --    247.4470               273.0287               283.5963
 Red. masses --      6.4555                 6.2688                10.7700
 Frc consts  --      0.2329                 0.2753                 0.5103
 IR Inten    --     10.0874                 4.1269                 2.4333

                     19                     20                     21
                      A                      A                      A
 Frequencies --    305.9682               349.5540               399.6282
 Red. masses --      8.7921                 7.7117                 8.0304
 Frc consts  --      0.4849                 0.5552                 0.7556
 IR Inten    --      6.7218                 5.0193                17.7349

                     22                     23                     24
                      A                      A                      A
 Frequencies --    408.7218               410.2182               428.7422
 Red. masses --      2.8829                 2.9151                 5.2904
 Frc consts  --      0.2838                 0.2890                 0.5730
 IR Inten    --      0.4682                 0.4200                13.3617

                     25                     26                     27
                      A                      A                      A
 Frequencies --    443.0288               452.1694               454.4891
 Red. masses --      8.2976                 5.7136                 6.1287
 Frc consts  --      0.9596                 0.6883                 0.7459
 IR Inten    --      4.1828                30.4016                11.3927

                     28                     29                     30
                      A                      A                      A
 Frequencies --    486.7090               507.3168               543.1021
 Red. masses --      7.6840                 7.3080                 5.9877
 Frc consts  --      1.0724                 1.1082                 1.0406
 IR Inten    --     72.4379                52.9936                99.2586

                     31                     32                     33
                      A                      A                      A
 Frequencies --    583.9108               593.3187               624.0364
 Red. masses --      6.3573                 5.8601                 6.4468
 Frc consts  --      1.2771                 1.2154                 1.4792
 IR Inten    --    150.8092               105.0502                 0.0037

                     34                     35                     36
                      A                      A                      A
 Frequencies --    628.3671               640.8373               663.8150
 Red. masses --      6.3568                 4.2515                 5.0183
 Frc consts  --      1.4788                 1.0287                 1.3029
 IR Inten    --      1.2833                15.1243                 9.3097

                     37                     38                     39
                      A                      A                      A
 Frequencies --    688.0966               695.4982               698.8074
 Red. masses --      5.1006                 2.1217                 1.7683
 Frc consts  --      1.4229                 0.6047                 0.5088
 IR Inten    --      8.0970                61.8781                64.8483

                     40                     41                     42
                      A                      A                      A
 Frequencies --    707.6528               720.1834               763.5428
 Red. masses --      6.0960                 7.1641                 1.5878
 Frc consts  --      1.7986                 2.1892                 0.5454
 IR Inten    --     29.7862               103.2255                44.5875

                     43                     44                     45
                      A                      A                      A
 Frequencies --    783.8316               809.4299               840.1479
 Red. masses --      2.1083                 8.7827                 4.7947
 Frc consts  --      0.7632                 3.3903                 1.9940
 IR Inten    --     76.3748                24.6885                39.5636

                     46                     47                     48
                      A                      A                      A
 Frequencies --    852.0110               861.1363               866.0705
 Red. masses --      1.2479                 1.2580                 2.6692
 Frc consts  --      0.5337                 0.5496                 1.1796
 IR Inten    --      0.0468                 1.4909                90.8641

                     49                     50                     51
                      A                      A                      A
 Frequencies --    882.2465               948.2469               959.9922
 Red. masses --      6.9124                 1.3409                 1.4659
 Frc consts  --      3.1700                 0.7104                 0.7959
 IR Inten    --      6.4209                 1.5642                10.7203

                     52                     53                     54
                      A                      A                      A
 Frequencies --    979.2618               998.7460              1004.6841
 Red. masses --      5.8436                 1.3803                 1.3805
 Frc consts  --      3.3016                 0.8112                 0.8210
 IR Inten    --    125.6402                 0.1421                 0.1410

                     55                     56                     57
                      A                      A                      A
 Frequencies --   1011.2532              1014.1651              1018.4408
 Red. masses --      6.1752                 6.1467                 1.2729
 Frc consts  --      3.7207                 3.7248                 0.7779
 IR Inten    --     14.2381                 7.1281                 0.0491

                     58                     59                     60
                      A                      A                      A
 Frequencies --   1021.4940              1022.4667              1035.7144
 Red. masses --      1.3255                 1.3184                 4.0898
 Frc consts  --      0.8149                 0.8121                 2.5848
 IR Inten    --      0.0956                 0.0588                50.7223

                     61                     62                     63
                      A                      A                      A
 Frequencies --   1042.7214              1060.6584              1084.0031
 Red. masses --      2.2563                 3.1619                 3.8776
 Frc consts  --      1.4454                 2.0958                 2.6846
 IR Inten    --      6.9109               111.2141                 3.0109

                     64                     65                     66
                      A                      A                      A
 Frequencies --   1101.0797              1106.6333              1107.0246
 Red. masses --      1.6486                 3.9753                 1.6127
 Frc consts  --      1.1776                 2.8683                 1.1645
 IR Inten    --     42.1360               307.9763                22.0379

                     67                     68                     69
                      A                      A                      A
 Frequencies --   1116.0538              1181.2930              1182.9459
 Red. masses --      1.6722                 1.1129                 1.1106
 Frc consts  --      1.2271                 0.9150                 0.9157
 IR Inten    --    116.8743                 6.2146                 0.2481

                     70                     71                     72
                      A                      A                      A
 Frequencies --   1195.5148              1197.9091              1243.2951
 Red. masses --      1.1630                 1.1566                16.7305
 Frc consts  --      0.9794                 0.9778                15.2373
 IR Inten    --     68.4163                 3.6666               324.1992

                     73                     74                     75
                      A                      A                      A
 Frequencies --   1245.4021              1272.4182              1279.4671
 Red. masses --      4.1765                 3.7353                 3.0269
 Frc consts  --      3.8166                 3.5632                 2.9195
 IR Inten    --    317.7349               303.2222                95.0812

                     76                     77                     78
                      A                      A                      A
 Frequencies --   1332.1725              1338.2716              1346.8139
 Red. masses --      3.1806                 3.1738                 1.7393
 Frc consts  --      3.3257                 3.3491                 1.8588
 IR Inten    --      0.3669                24.2994                 8.2069

                     79                     80                     81
                      A                      A                      A
 Frequencies --   1353.9633              1389.3199              1475.5881
 Red. masses --      1.8191                 1.7925                 2.1326
 Frc consts  --      1.9648                 2.0385                 2.7359
 IR Inten    --     10.8454                 4.5569                29.2236

                     82                     83                     84
                      A                      A                      A
 Frequencies --   1477.4376              1504.4342              1520.0723
 Red. masses --      2.2093                 1.9905                 2.1621
 Frc consts  --      2.8413                 2.6543                 2.9435
 IR Inten    --     35.3328                 5.2399                 6.0497

                     85                     86                     87
                      A                      A                      A
 Frequencies --   1615.0222              1615.8643              1621.2185
 Red. masses --      5.4781                 5.3220                 5.7865
 Frc consts  --      8.4185                 8.1872                 8.9608
 IR Inten    --     45.1136                13.7909                 0.2625

                     88                     89                     90
                      A                      A                      A
 Frequencies --   1627.2462              1633.7131              1677.2113
 Red. masses --      8.7488                 6.3147                 8.7197
 Frc consts  --     13.6491                 9.9301                14.4519
 IR Inten    --     78.6629                61.0880                28.5897

                     91                     92                     93
                      A                      A                      A
 Frequencies --   1702.3454              1713.2211              1718.1704
 Red. masses --     11.8102                11.4005                11.7863
 Frc consts  --     20.1652                19.7153                20.5004
 IR Inten    --    643.3428               521.9366               343.2426

                     94                     95                     96
                      A                      A                      A
 Frequencies --   3173.5858              3178.4601              3181.1029
 Red. masses --      1.0865                 1.0872                 1.0884
 Frc consts  --      6.4475                 6.4715                 6.4891
 IR Inten    --      0.6134                 1.1910                 4.6477

                     97                     98                     99
                      A                      A                      A
 Frequencies --   3187.5161              3189.0823              3191.2306
 Red. masses --      1.0920                 1.0896                 1.0881
 Frc consts  --      6.5368                 6.5292                 6.5288
 IR Inten    --     20.4804                10.6187                 0.5486

                    100                    101                    102
                      A                      A                      A
 Frequencies --   3195.7192              3196.5674              3201.6037
 Red. masses --      1.0937                 1.0953                 1.0963
 Frc consts  --      6.5809                 6.5941                 6.6210
 IR Inten    --      7.3417                15.8593                12.4694

                    103                    104                    105
                      A                      A                      A
 Frequencies --   3203.2271              3206.1197              3219.7119
 Red. masses --      1.0970                 1.1000                 1.0936
 Frc consts  --      6.6319                 6.6623                 6.6793
 IR Inten    --     12.0273                 0.1482                 4.4785

 - Thermochemistry -
 -------------------
 Temperature   298.150 Kelvin.  Pressure   1.00000 Atm.
 Atom     1 has atomic number  6 and mass  12.00000

 Molecular mass:   352.04055 amu.
 Principal axes and moments of inertia in atomic units:
                           1         2         3
     Eigenvalues --  5114.70810********************
           X            0.32318   0.87561   0.35898
           Y            0.90506  -0.17518  -0.38753
           Z            0.27644  -0.45014   0.84909
 This molecule is an asymmetric top.
 Rotational symmetry number  1.
 Warning -- assumption of classical behavior for rotation
           may cause significant error
 Rotational temperatures (Kelvin)      0.01693     0.00745     0.00647
 Rotational constants (GHZ):           0.35285     0.15525     0.13480
 Zero-point vibrational energy     693937.3 (Joules/Mol)
                                  165.85500 (Kcal/Mol)
 Warning -- explicit consideration of  32 degrees of freedom as
           vibrations may cause significant error
 Vibrational temperatures:     13.81    36.33    48.15    57.61    72.24
          (Kelvin)             81.67   121.38   143.98   205.15   220.66
                              247.25   259.10   270.22   330.33   343.35
                              356.02   392.83   408.03   440.22   502.93
                              574.98   588.06   590.21   616.86   637.42
                              650.57   653.91   700.27   729.92   781.40
                              840.12   853.65   897.85   904.08   922.02
                              955.08   990.02  1000.67  1005.43  1018.15
                             1036.18  1098.57  1127.76  1164.59  1208.79
                             1225.85  1238.98  1246.08  1269.36  1364.32
                             1381.21  1408.94  1436.97  1445.52  1454.97
                             1459.16  1465.31  1469.70  1471.10  1490.16
                             1500.24  1526.05  1559.64  1584.21  1592.20
                             1592.76  1605.75  1699.62  1702.00  1720.08
                             1723.52  1788.82  1791.86  1830.73  1840.87
                             1916.70  1925.47  1937.76  1948.05  1998.92
                             2123.04  2125.70  2164.55  2187.04  2323.66
                             2324.87  2332.57  2341.24  2350.55  2413.13
                             2449.30  2464.94  2472.06  4566.08  4573.10
                             4576.90  4586.12  4588.38  4591.47  4597.93
                             4599.15  4606.39  4608.73  4612.89  4632.45

 Zero-point correction=                           0.264307 (Hartree/Particle)
 Thermal correction to Energy=                    0.285527
 Thermal correction to Enthalpy=                  0.286472
 Thermal correction to Gibbs Free Energy=         0.210840
 Sum of electronic and zero-point Energies=          -1505.517150
 Sum of electronic and thermal Energies=             -1505.495930
 Sum of electronic and thermal Enthalpies=           -1505.494986
 Sum of electronic and thermal Free Energies=        -1505.570617

                     E (Thermal)             CV                S
                      KCal/Mol        Cal/Mol-Kelvin    Cal/Mol-Kelvin
 Total                  179.171             80.578            159.180
 Electronic               0.000              0.000              0.000
 Translational            0.889              2.981             43.470
 Rotational               0.889              2.981             35.030
 Vibrational            177.394             74.616             80.679
 Vibration     1          0.593              1.987              8.092
 Vibration     2          0.593              1.985              6.171
 Vibration     3          0.594              1.983              5.613
 Vibration     4          0.594              1.981              5.257
 Vibration     5          0.595              1.978              4.809
 Vibration     6          0.596              1.975              4.567
 Vibration     7          0.601              1.960              3.787
 Vibration     8          0.604              1.949              3.453
 Vibration     9          0.616              1.911              2.769
 Vibration    10          0.619              1.899              2.630
 Vibration    11          0.626              1.877              2.415
 Vibration    12          0.629              1.867              2.328
 Vibration    13          0.632              1.857              2.249
 Vibration    14          0.652              1.796              1.882
 Vibration    15          0.657              1.781              1.813
 Vibration    16          0.661              1.767              1.749
 Vibration    17          0.676              1.723              1.577
 Vibration    18          0.682              1.704              1.512
 Vibration    19          0.696              1.662              1.384
 Vibration    20          0.727              1.576              1.168
 Vibration    21          0.766              1.471              0.964
 Vibration    22          0.773              1.451              0.931
 Vibration    23          0.774              1.448              0.926
 Vibration    24          0.790              1.408              0.863
 Vibration    25          0.803              1.376              0.817
 Vibration    26          0.811              1.356              0.789
 Vibration    27          0.813              1.351              0.782
 Vibration    28          0.843              1.280              0.692
 Vibration    29          0.863              1.234              0.640
 Vibration    30          0.898              1.155              0.559
 Vibration    31          0.941              1.066              0.478
 Vibration    32          0.951              1.046              0.461

 Optimization completed.
    -- Stationary point found.
 Normal termination of Gaussian 16 at Sat Feb 10 19:55:22 2024.
