 Gaussian 16, Revision A.03,
 Gaussian 16:  ES64L-G16RevA.03 25-Dec-2016

 ---------------------------------------------------------
 #P UB3LYP/genecp SCRF=(PCM,Solvent=n,n-DiMethylFormamide)
 ---------------------------------------------------------

 -------
 Reduced
 -------
 Symbolic Z-matrix:
 Charge = -2 Multiplicity = 1

                         Standard orientation:
 ---------------------------------------------------------------------
 Center     Atomic      Atomic             Coordinates (Angstroms)
 Number     Number       Type             X           Y           Z
 ---------------------------------------------------------------------
      1          6           0       -0.518617   -0.650451   -0.119922
      2          6           0       -1.863673   -0.097292   -0.117034
      3          6           0       -2.117669    1.271151   -0.009281
      4          6           0       -1.106039    2.280928    0.111290
      5          6           0        0.228343    1.750294    0.099283
      6          6           0        0.458536    0.383155   -0.016087
      7          8           0       -0.278222   -1.912316   -0.213629
      8          8           0       -1.361288    3.545525    0.214071
      9          1           0        1.052007    2.451369    0.178143
     10         53           0        2.527879   -0.302540   -0.022244
     11          6           0       -2.979532   -1.126539   -0.236467
     12          6           0       -3.193484   -1.863369    1.103429
     13          6           0       -4.314516   -0.578227   -0.760512
     14          1           0       -3.142966    1.635442   -0.011090
     15          1           0       -2.615727   -1.885495   -0.942432
     16          1           0       -3.548694   -1.164849    1.871456
     17          1           0       -2.245848   -2.296712    1.428769
     18          1           0       -3.937503   -2.671129    1.004287
     19          1           0       -4.764885    0.133052   -0.058420
     20          1           0       -5.034694   -1.394082   -0.909596
     21          1           0       -4.183321   -0.056522   -1.713941
 ---------------------------------------------------------------------

 SCF Done:  E(UB3LYP) =  -797.005405372     A.U. after   17 cycles

 The electronic state is 1-A.
 Alpha  occ. eigenvalues --  -19.01550 -19.01425 -10.17409 -10.17062 -10.16748
 Alpha  occ. eigenvalues --  -10.15208 -10.14301 -10.13935 -10.13383 -10.12527
 Alpha  occ. eigenvalues --  -10.11972  -6.81254  -4.83516  -4.82631  -4.82589
 Alpha  occ. eigenvalues --   -1.88335  -1.88047  -1.88017  -1.87253  -1.87252
 Alpha  occ. eigenvalues --   -0.93344  -0.92638  -0.79578  -0.76665  -0.70370
 Alpha  occ. eigenvalues --   -0.66715  -0.66172  -0.63703  -0.58719  -0.51976
 Alpha  occ. eigenvalues --   -0.51447  -0.44621  -0.43220  -0.42308  -0.41388
 Alpha  occ. eigenvalues --   -0.38728  -0.37314  -0.36482  -0.35449  -0.35114
 Alpha  occ. eigenvalues --   -0.34463  -0.32822  -0.32104  -0.31147  -0.30373
 Alpha  occ. eigenvalues --   -0.29263  -0.25991  -0.24140  -0.22221  -0.20469
 Alpha  occ. eigenvalues --   -0.19555  -0.19238  -0.11812
 Alpha virt. eigenvalues --   -0.00938   0.00105   0.01334   0.01750   0.02279
 Alpha virt. eigenvalues --    0.02352   0.03670   0.04306   0.05026   0.05385
 Alpha virt. eigenvalues --    0.06152   0.06617   0.07165   0.07913   0.08339

  Beta  occ. eigenvalues --  -19.01550 -19.01425 -10.17409 -10.17062 -10.16748
  Beta  occ. eigenvalues --  -10.15208 -10.14301 -10.13935 -10.13383 -10.12527
  Beta  occ. eigenvalues --  -10.11972  -6.81254  -4.83516  -4.82631  -4.82589
  Beta  occ. eigenvalues --   -1.88335  -1.88047  -1.88017  -1.87253  -1.87252
  Beta  occ. eigenvalues --   -0.93344  -0.92638  -0.79578  -0.76665  -0.70370
  Beta  occ. eigenvalues --   -0.66715  -0.66172  -0.63703  -0.58719  -0.51976
  Beta  occ. eigenvalues --   -0.51447  -0.44621  -0.43220  -0.42308  -0.41388
  Beta  occ. eigenvalues --   -0.38728  -0.37314  -0.36482  -0.35449  -0.35114
  Beta  occ. eigenvalues --   -0.34463  -0.32822  -0.32104  -0.31147  -0.30373
  Beta  occ. eigenvalues --   -0.29263  -0.25991  -0.24140  -0.22221  -0.20469
  Beta  occ. eigenvalues --   -0.19555  -0.19238  -0.11812
  Beta virt. eigenvalues --   -0.00938   0.00105   0.01334   0.01750   0.02279
  Beta virt. eigenvalues --    0.02352   0.03670   0.04306   0.05026   0.05385
  Beta virt. eigenvalues --    0.06152   0.06617   0.07165   0.07913   0.08339

 Mulliken charges and spin densities:
               1          2
     1  C   -2.327317   0.000000
     2  C    1.374007  -0.000000
     3  C   -0.383915   0.000000
     4  C   -0.460376  -0.000000
     5  C   -0.126273   0.000000
     6  C    1.406369  -0.000000
     7  O   -0.605858  -0.000000
     8  O   -0.723060  -0.000000
     9  H    0.112743   0.000000
    10  I   -0.286847   0.000000
    11  C    0.162563   0.000000
    12  C   -0.712099  -0.000000
    13  C   -0.556393   0.000000
    14  H    0.125281  -0.000000
    15  H    0.167905  -0.000000
    16  H    0.131697   0.000000
    17  H    0.170382   0.000000
    18  H    0.116675  -0.000000
    19  H    0.132667   0.000000
    20  H    0.153629   0.000000
    21  H    0.128219  -0.000000
 Sum of Mulliken charges =  -2.00000  -0.00000

 Dipole moment (field-independent basis, Debye):
    X=              3.7230    Y=             -7.5484    Z=             -0.1810  Tot=              8.4185
 Quadrupole moment (field-independent basis, Debye-Ang):
   XX=           -122.1498   YY=           -166.9668   ZZ=           -104.3878
   XY=             18.1557   XZ=              1.5192   YZ=             -3.8599

 Normal termination of Gaussian 16 at Mon Jan 22 18:33:24 2024.
