 Q-Chem 5.4, Q-Chem, Inc., Pleasanton, CA (2021)
 Q-Chem 5.4.0 for Intel X86 EM64T Linux

User input:
--------------------------------------------------------------
$molecule
-2 1
C                 -4.5661430000      0.2297230000      0.0311060000
C                 -3.1136780000     -0.1830270000     -0.0011990000
C                 -2.7691650000     -1.5614240000     -0.1480530000
C                 -1.4472020000     -1.9519060000     -0.1707140000
C                 -0.3795620000     -1.0256430000     -0.0643420000
C                  0.9867290000     -1.5065460000     -0.1169520000
O                  1.2829480000     -2.7466330000     -0.2606260000
C                  1.9946640000     -0.4724140000      0.0132300000
C                  3.3656050000     -0.8320810000     -0.0209290000
C                  4.3767070000      0.1004960000      0.0932620000
C                  4.0472050000      1.4768640000      0.2500370000
C                  2.7221230000      1.8602570000      0.2892590000
C                  1.6587060000      0.9281190000      0.1792990000
C                  0.2906090000      1.4068080000      0.2273900000
O                 -0.0009770000      2.6489970000      0.3664090000
C                 -0.7152050000      0.3720040000      0.1011880000
C                 -2.0895540000      0.7325610000      0.1295530000
H                 -5.1224300000     -0.2593320000      0.8512360000
H                 -5.0916510000     -0.0395490000     -0.8932560000
H                 -4.6707760000      1.3108690000      0.1661620000
H                 -3.5609770000     -2.3032220000     -0.2468840000
H                 -1.1716790000     -2.9960350000     -0.2842040000
H                  3.5826880000     -1.8890540000     -0.1428760000
H                  5.4192920000     -0.2119730000      0.0631120000
H                  4.8373010000      2.2208210000      0.3391330000
H                  2.4379430000      2.9014850000      0.4081510000
H                 -2.3035220000      1.7898350000      0.2589930000
$end
$rem
MAX_SCF_CYCLES=200
BASIS  =  6-311++G(d,p)
GUI  =  2
JOB_TYPE  =  SP
METHOD  =  B3LYP
SOLVENT_METHOD = COSMO
$end
$solvent
dielectric 37.219
opticaldielectric 1.43
$end

--------------------------------------------------------------

             Standard Nuclear Orientation (Angstroms)
    I     Atom           X                Y                Z
 ----------------------------------------------------------------
    1      C       4.7651282492    -0.8377591280    -0.0146070161
    2      C       3.3739564169    -0.2498145718    -0.0098233301
    3      C       3.2011444880     1.1680169165     0.0012898204
    4      C       1.9366062517     1.7169759218     0.0140548455
    5      C       0.7631734399     0.9219307677     0.0044654610
    6      C      -0.5338287749     1.5688658260    -0.0023821265
    7      O      -0.6754295672     2.8440720850    -0.0037584861
    8      C      -1.6615044859     0.6574643142    -0.0003607387
    9      C      -2.9781153525     1.1833307703    -0.0029511057
   10      C      -4.0963631960     0.3742671598    -0.0050805333
   11      C      -3.9384189573    -1.0408622211    -0.0062175320
   12      C      -2.6702883302    -1.5851002869    -0.0016893139
   13      C      -1.5002622202    -0.7833381473     0.0049846656
   14      C      -0.2011036849    -1.4277956658     0.0076136193
   15      O      -0.0642539259    -2.7039782173     0.0040882798
   16      C       0.9244621382    -0.5159263389     0.0096072219
   17      C       2.2444730522    -1.0424258867     0.0063652760
   18      H       5.3584555509    -0.5169662616     0.8607774058
   19      H       5.3390177779    -0.5310558655    -0.8976104661
   20      H       4.7359026602    -1.9318867004    -0.0048304452
   21      H       4.0784490555     1.8140002815    -0.0050561141
   22      H       1.7913036880     2.7930096245     0.0201300433
   23      H      -3.0636881695     2.2658579784    -0.0033500514
   24      H      -5.0928519489     0.8130575053    -0.0066863469
   25      H      -4.8140706788    -1.6880740804    -0.0097779118
   26      H      -2.5161608362    -2.6599462983    -0.0019981395
   27      H       2.3267566407    -2.1257237053     0.0141483947
 ----------------------------------------------------------------

   14    -728.2527339930      9.08e-06  Convergence criterion met
 Total energy in the final basis set =     -728.2527339930
    6    -728.5279363757      3.23e-06  Convergence criterion met
 Total energy in the final basis set =     -728.5279363757

                    Orbital Energies (a.u.)
 --------------------------------------------------------------

 Alpha MOs
 -- Occupied --
-19.0271 -19.0255 -10.1781 -10.1761 -10.1578 -10.1521 -10.1498 -10.1492
-10.1477 -10.1472 -10.1470 -10.1467 -10.1424 -10.1382 -10.1378 -10.1376
-10.1370  -0.9470  -0.9435  -0.8310  -0.8234  -0.7624  -0.7334  -0.7242
 -0.7142  -0.6718  -0.6322  -0.6047  -0.5789  -0.5587  -0.5263  -0.5045
 -0.4891  -0.4430  -0.4399  -0.4296  -0.4181  -0.4037  -0.3994  -0.3988
 -0.3850  -0.3810  -0.3748  -0.3692  -0.3567  -0.3496  -0.3360  -0.3319
 -0.3167  -0.3153  -0.3007  -0.3004  -0.2360  -0.2289  -0.2272  -0.2138
 -0.2095  -0.2013  -0.1091

          Ground-State Mulliken Net Atomic Charges

     Atom                 Charge (a.u.)
  ----------------------------------------
      1 C                    -0.428646
      2 C                     0.294257
      3 C                    -0.497174
      4 C                     0.007882
      5 C                     0.052584
      6 C                    -0.482180
      7 O                    -0.696295
      8 C                     0.184108
      9 C                     0.005529
     10 C                    -0.528213
     11 C                    -0.533157
     12 C                    -0.030533
     13 C                     0.363608
     14 C                    -0.423932
     15 O                    -0.699038
     16 C                     0.096426
     17 C                    -0.283596
     18 H                     0.157192
     19 H                     0.159605
     20 H                     0.166364
     21 H                     0.177951
     22 H                     0.152441
     23 H                     0.153660
     24 H                     0.178337
     25 H                     0.180020
     26 H                     0.154333
     27 H                     0.118466
  ----------------------------------------
  Sum of atomic charges =    -2.000000

                    Cartesian Multipole Moments
 -----------------------------------------------------------------
    Charge (ESU x 10^10)
                -9.6064
    Dipole Moment (Debye)
         X       4.1614      Y      -0.5763      Z      -0.0134
       Tot       4.2012
    Quadrupole Moments (Debye-Ang)
        XX    -121.3950     XY       4.6244     YY    -162.4511
        XZ      -0.0514     YZ       0.0713     ZZ    -112.1364

 Total job time:  76.57s(wall), 591.03s(cpu)
        *  Thank you very much for using Q-Chem.  Have a nice day.  *
