 Gaussian 16, Revision A.03,
 Gaussian 16:  ES64L-G16RevA.03 25-Dec-2016

 --------------------------------------
 #P UB3LYP/6-311++G(d,p) nosym opt freq
 --------------------------------------

 -------
 Reduced
 -------
 Symbolic Z-matrix:
 Charge = -2 Multiplicity = 1

 SCF Done:  E(UB3LYP) =  -728.252833064     A.U. after   45 cycles
 Optimization completed.
    -- Stationary point found.
 Normal termination of Gaussian 16 at Wed Dec 27 19:58:25 2023.

 ----------------------------------------------------------------------
 #P Geom=AllCheck Guess=TCheck SCRF=Check GenChk UB3LYP/6-311++G(d,p) F
 req
 ----------------------------------------------------------------------

 Structure from the checkpoint file:  "124-an.chk"
 -------
 Reduced
 -------
 Charge = -2 Multiplicity = 1

                          Input orientation:
 ---------------------------------------------------------------------
 Center     Atomic      Atomic             Coordinates (Angstroms)
 Number     Number       Type             X           Y           Z
 ---------------------------------------------------------------------
      1          6           0       -4.566143    0.229723    0.031106
      2          6           0       -3.113678   -0.183027   -0.001199
      3          6           0       -2.769165   -1.561424   -0.148053
      4          6           0       -1.447202   -1.951906   -0.170714
      5          6           0       -0.379562   -1.025643   -0.064342
      6          6           0        0.986729   -1.506546   -0.116952
      7          8           0        1.282948   -2.746633   -0.260626
      8          6           0        1.994664   -0.472414    0.013230
      9          6           0        3.365605   -0.832081   -0.020929
     10          6           0        4.376707    0.100496    0.093262
     11          6           0        4.047205    1.476864    0.250037
     12          6           0        2.722123    1.860257    0.289259
     13          6           0        1.658706    0.928119    0.179299
     14          6           0        0.290609    1.406808    0.227390
     15          8           0       -0.000977    2.648997    0.366409
     16          6           0       -0.715205    0.372004    0.101188
     17          6           0       -2.089554    0.732561    0.129553
     18          1           0       -5.122430   -0.259332    0.851236
     19          1           0       -5.091651   -0.039549   -0.893256
     20          1           0       -4.670776    1.310869    0.166162
     21          1           0       -3.560977   -2.303222   -0.246884
     22          1           0       -1.171679   -2.996035   -0.284204
     23          1           0        3.582688   -1.889054   -0.142876
     24          1           0        5.419292   -0.211973    0.063112
     25          1           0        4.837301    2.220821    0.339133
     26          1           0        2.437943    2.901485    0.408151
     27          1           0       -2.303522    1.789835    0.258993
 ---------------------------------------------------------------------

 SCF Done:  E(UB3LYP) =  -728.252833064     A.U. after    4 cycles

 Alpha  occ. eigenvalues --  -18.78853 -18.78639  -9.95672  -9.94685  -9.94518
 Alpha  occ. eigenvalues --   -9.93703  -9.93470  -9.93424  -9.92770  -9.92624
 Alpha  occ. eigenvalues --   -9.92574  -9.92347  -9.91923  -9.91058  -9.91021
 Alpha  occ. eigenvalues --   -9.90800  -9.90741  -0.70624  -0.70198  -0.60585
 Alpha  occ. eigenvalues --   -0.60072  -0.54158  -0.51262  -0.50072  -0.49043
 Alpha  occ. eigenvalues --   -0.45674  -0.40611  -0.38327  -0.35755  -0.33597
 Alpha  occ. eigenvalues --   -0.30050  -0.28348  -0.26857  -0.22595  -0.21529
 Alpha  occ. eigenvalues --   -0.20918  -0.20397  -0.19981  -0.17842  -0.17718
 Alpha  occ. eigenvalues --   -0.16724  -0.14808  -0.14483  -0.14172  -0.13504
 Alpha  occ. eigenvalues --   -0.12241  -0.11116  -0.09532  -0.09124  -0.08986
 Alpha  occ. eigenvalues --   -0.07179  -0.07035  -0.00966   0.00282   0.00826
 Alpha  occ. eigenvalues --    0.01403   0.03368   0.04037   0.12993
 Alpha virt. eigenvalues --    0.14538   0.15805   0.17229   0.17569   0.18215
 Alpha virt. eigenvalues --    0.19266   0.19870   0.20244   0.20899   0.21933
 Alpha virt. eigenvalues --    0.22095   0.22443   0.24159   0.25060   0.25521

  Beta  occ. eigenvalues --  -18.78853 -18.78639  -9.95672  -9.94685  -9.94518
  Beta  occ. eigenvalues --   -9.93703  -9.93470  -9.93424  -9.92770  -9.92624
  Beta  occ. eigenvalues --   -9.92574  -9.92347  -9.91923  -9.91058  -9.91021
  Beta  occ. eigenvalues --   -9.90800  -9.90741  -0.70624  -0.70198  -0.60585
  Beta  occ. eigenvalues --   -0.60072  -0.54158  -0.51262  -0.50072  -0.49043
  Beta  occ. eigenvalues --   -0.45674  -0.40611  -0.38327  -0.35755  -0.33597
  Beta  occ. eigenvalues --   -0.30050  -0.28348  -0.26857  -0.22595  -0.21529
  Beta  occ. eigenvalues --   -0.20918  -0.20397  -0.19981  -0.17842  -0.17718
  Beta  occ. eigenvalues --   -0.16724  -0.14808  -0.14483  -0.14172  -0.13504
  Beta  occ. eigenvalues --   -0.12241  -0.11116  -0.09532  -0.09124  -0.08986
  Beta  occ. eigenvalues --   -0.07179  -0.07035  -0.00966   0.00282   0.00826
  Beta  occ. eigenvalues --    0.01403   0.03368   0.04037   0.12993
  Beta virt. eigenvalues --    0.14538   0.15805   0.17229   0.17569   0.18215
  Beta virt. eigenvalues --    0.19266   0.19870   0.20244   0.20899   0.21933
  Beta virt. eigenvalues --    0.22095   0.22443   0.24159   0.25060   0.25521

 Mulliken charges and spin densities:
               1          2
     1  C    1.794493  -0.000000
     2  C   -0.643090  -0.000000
     3  C   -0.882837   0.000000
     4  C   -0.175498  -0.000000
     5  C    0.224905  -0.000000
     6  C   -0.964757   0.000000
     7  O   -0.489920  -0.000000
     8  C    0.373380  -0.000000
     9  C    0.003729   0.000000
    10  C   -0.441307  -0.000000
    11  C   -0.464604  -0.000000
    12  C   -0.048870   0.000000
    13  C    0.533391   0.000000
    14  C   -0.934646   0.000000
    15  O   -0.483534   0.000000
    16  C    0.412384   0.000000
    17  C    0.123727   0.000000
    18  H   -0.380412  -0.000000
    19  H    0.033701  -0.000000
    20  H   -0.276616  -0.000000
    21  H   -0.029570   0.000000
    22  H    0.134666  -0.000000
    23  H    0.128591  -0.000000
    24  H    0.076841   0.000000
    25  H    0.077488  -0.000000
    26  H    0.130481   0.000000
    27  H    0.167884   0.000000
 Sum of Mulliken charges =  -2.00000  -0.00000

 Dipole moment (field-independent basis, Debye):
    X=              0.9004    Y=              0.2871    Z=             -1.5921  Tot=              1.8514
 Quadrupole moment (field-independent basis, Debye-Ang):
   XX=           -198.8245   YY=           -159.1071   ZZ=           -117.4017
   XY=              3.1922   XZ=              6.8688   YZ=             -3.5335

  Exact polarizability:2190.799-122.007 552.977-110.501 -66.221 273.727
 Approx polarizability:5371.302 -49.139 646.308-511.811 -10.543 333.739

                      1                      2                      3
                      A                      A                      A
 Frequencies --     50.9083                97.3582               130.0647
 Red. masses --      5.4592                 4.0113                 3.1997
 Frc consts  --      0.0083                 0.0224                 0.0319
 IR Inten    --      1.6889                 2.5753                 2.3846

                      4                      5                      6
                      A                      A                      A
 Frequencies --    146.8269               168.7235               186.1744
 Red. masses --      1.4174                 4.0433                 4.0148
 Frc consts  --      0.0180                 0.0678                 0.0820
 IR Inten    --      8.8299                 6.5889                 5.6570

                      7                      8                      9
                      A                      A                      A
 Frequencies --    208.9213               275.4461               289.4775
 Red. masses --      3.5917                 5.4566                 4.4423
 Frc consts  --      0.0924                 0.2439                 0.2193
 IR Inten    --      1.2975                 9.7497                 1.4007

                     10                     11                     12
                      A                      A                      A
 Frequencies --    330.8100               365.0986               368.9749
 Red. masses --      5.8746                 6.7462                 5.5957
 Frc consts  --      0.3788                 0.5298                 0.4488
 IR Inten    --    116.3315                 1.4535                59.6822

                     13                     14                     15
                      A                      A                      A
 Frequencies --    404.4153               428.7385               433.0319
 Red. masses --      6.9438                 3.3809                 5.5397
 Frc consts  --      0.6691                 0.3662                 0.6120
 IR Inten    --      2.7370                22.5559                21.6314

                     16                     17                     18
                      A                      A                      A
 Frequencies --    473.2166               482.1340               512.1433
 Red. masses --      3.0112                11.1473                 4.1687
 Frc consts  --      0.3973                 1.5267                 0.6442
 IR Inten    --     47.1949               692.2223                 7.0157

                     19                     20                     21
                      A                      A                      A
 Frequencies --    568.5021               633.7762               636.8954
 Red. masses --      5.5481                 6.3931                 4.2866
 Frc consts  --      1.0565                 1.5130                 1.0245
 IR Inten    --     29.5534                 6.3448                10.9920

                     22                     23                     24
                      A                      A                      A
 Frequencies --    663.8892               686.3482               693.2226
 Red. masses --      6.4457                 1.6676                 6.3018
 Frc consts  --      1.6738                 0.4628                 1.7843
 IR Inten    --     16.6799                78.0039                 5.3725

                     25                     26                     27
                      A                      A                      A
 Frequencies --    717.2789               744.2198               747.2991
 Red. masses --      3.6900                 3.0647                 2.4511
 Frc consts  --      1.1185                 1.0001                 0.8065
 IR Inten    --     11.2611                16.3572                 2.0757

                     28                     29                     30
                      A                      A                      A
 Frequencies --    773.6558               788.4150               836.2271
 Red. masses --      1.9285                 1.6136                 4.2968
 Frc consts  --      0.6801                 0.5910                 1.7703
 IR Inten    --     13.4294                14.0450                 3.6791

                     31                     32                     33
                      A                      A                      A
 Frequencies --    851.3746               928.5395               929.8830
 Red. masses --      5.8866                 1.9286                 2.8433
 Frc consts  --      2.5139                 0.9797                 1.4486
 IR Inten    --     13.7445                21.0578                14.2552

                     34                     35                     36
                      A                      A                      A
 Frequencies --    952.9183               956.2148               959.6600
 Red. masses --      1.2351                 2.2373                 1.3430
 Frc consts  --      0.6608                 1.2053                 0.7287
 IR Inten    --      0.2212                25.9666                 3.5869

                     37                     38                     39
                      A                      A                      A
 Frequencies --    964.9834              1008.9305              1019.4726
 Red. masses --      1.3344                 2.1470                 1.8006
 Frc consts  --      0.7321                 1.2877                 1.1026
 IR Inten    --     15.7881               609.2399                 9.2615

                     40                     41                     42
                      A                      A                      A
 Frequencies --   1060.1063              1092.0609              1104.0960
 Red. masses --      1.4816                 2.5521                 1.7528
 Frc consts  --      0.9810                 1.7933                 1.2589
 IR Inten    --     14.4402                51.4541                 8.7418

                     43                     44                     45
                      A                      A                      A
 Frequencies --   1125.2814              1140.9417              1183.7200
 Red. masses --      1.5744                 1.5942                 2.2471
 Frc consts  --      1.1746                 1.2227                 1.8551
 IR Inten    --    105.8397                91.1901               290.9077

                     46                     47                     48
                      A                      A                      A
 Frequencies --   1205.2678              1211.1505              1213.4123
 Red. masses --      2.6072                 1.9861                 2.6792
 Frc consts  --      2.2315                 1.7165                 2.3242
 IR Inten    --    588.8266               185.6721                66.1430

                     49                     50                     51
                      A                      A                      A
 Frequencies --   1252.0683              1329.2796              1334.5819
 Red. masses --      2.2042                 5.3833                 2.5201
 Frc consts  --      2.0359                 5.6045                 2.6446
 IR Inten    --    172.0700               889.1735               154.6049

                     52                     53                     54
                      A                      A                      A
 Frequencies --   1351.6222              1372.5880              1395.4180
 Red. masses --      7.0119                 2.0234                 1.5599
 Frc consts  --      7.5474                 2.2460                 1.7896
 IR Inten    --    174.0036               470.9054               782.2466

                     55                     56                     57
                      A                      A                      A
 Frequencies --   1444.9879              1459.5023              1462.5404
 Red. masses --      3.4409                 2.4889                 8.5155
 Frc consts  --      4.2330                 3.1237                10.7318
 IR Inten    --    559.9764               444.6721              2017.1458

                     58                     59                     60
                      A                      A                      A
 Frequencies --   1476.4073              1483.1018              1485.1520
 Red. masses --      1.1212                 1.6418                 2.8326
 Frc consts  --      1.4399                 2.1277                 3.6811
 IR Inten    --     91.1594               446.9050               215.7868

                     61                     62                     63
                      A                      A                      A
 Frequencies --   1494.3255              1523.4298              1557.8773
 Red. masses --      2.4340                 4.5908                 7.0994
 Frc consts  --      3.2023                 6.2775                10.1517
 IR Inten    --     27.3521                63.4003              4395.6105

                     64                     65                     66
                      A                      A                      A
 Frequencies --   1584.2985              1607.9663              2909.0324
 Red. masses --      5.3634                 5.5287                 1.0622
 Frc consts  --      7.9316                 8.4222                 5.2959
 IR Inten    --      9.2169                 7.7058               146.8887

                     67                     68                     69
                      A                      A                      A
 Frequencies --   2997.0077              3058.1090              3090.3977
 Red. masses --      1.0748                 1.0946                 1.0825
 Frc consts  --      5.6880                 6.0314                 6.0911
 IR Inten    --   1148.5257                39.7020                42.7538

                     70                     71                     72
                      A                      A                      A
 Frequencies --   3097.6438              3114.0932              3147.5065
 Red. masses --      1.0867                 1.0904                 1.0884
 Frc consts  --      6.1436                 6.2303                 6.3527
 IR Inten    --     78.7394               338.6508                84.0400

                     73                     74                     75
                      A                      A                      A
 Frequencies --   3155.6419              3157.3023              3158.2764
 Red. masses --      1.0902                 1.0906                 1.0914
 Frc consts  --      6.3965                 6.4056                 6.4139
 IR Inten    --     26.5436                31.7568               268.3368

 - Thermochemistry -
 -------------------
 Temperature   298.150 Kelvin.  Pressure   1.00000 Atm.
 Atom     1 has atomic number  6 and mass  12.00000

 Molecular mass:   222.06808 amu.
 Principal axes and moments of inertia in atomic units:
                           1         2         3
     Eigenvalues --  1783.017425278.022647049.82724
           X            0.99204  -0.12573  -0.00745
           Y            0.12403   0.98549  -0.11589
           Z            0.02192   0.11404   0.99323
 This molecule is an asymmetric top.
 Rotational symmetry number  1.
 Warning -- assumption of classical behavior for rotation
           may cause significant error
 Rotational temperatures (Kelvin)      0.04858     0.01641     0.01229
 Rotational constants (GHZ):           1.01218     0.34194     0.25600
 Zero-point vibrational energy     527854.4 (Joules/Mol)
                                  126.16023 (Kcal/Mol)
 Warning -- explicit consideration of  19 degrees of freedom as
           vibrations may cause significant error
 Vibrational temperatures:     73.25   140.08   187.13   211.25   242.76
          (Kelvin)            267.86   300.59   396.31   416.49   475.96
                              525.30   530.87   581.86   616.86   623.04
                              680.85   693.68   736.86   817.95   911.86
                              916.35   955.19   987.50   997.39  1032.00
                             1070.77  1075.20  1113.12  1134.35  1203.14
                             1224.94  1335.96  1337.89  1371.04  1375.78
                             1380.74  1388.40  1451.63  1466.79  1525.26
                             1571.23  1588.55  1619.03  1641.56  1703.11
                             1734.11  1742.58  1745.83  1801.45  1912.54
                             1920.17  1944.68  1974.85  2007.70  2079.02
                             2099.90  2104.27  2124.22  2133.85  2136.80
                             2150.00  2191.88  2241.44  2279.45  2313.50
                             4185.45  4312.03  4399.94  4446.39  4456.82
                             4480.49  4528.56  4540.26  4542.65  4544.06

 Zero-point correction=                           0.201049 (Hartree/Particle)
 Thermal correction to Energy=                    0.214103
 Thermal correction to Enthalpy=                  0.215047
 Thermal correction to Gibbs Free Energy=         0.161805
 Sum of electronic and zero-point Energies=           -728.051784
 Sum of electronic and thermal Energies=              -728.038730
 Sum of electronic and thermal Enthalpies=            -728.037786
 Sum of electronic and thermal Free Energies=         -728.091028

                     E (Thermal)             CV                S
                      KCal/Mol        Cal/Mol-Kelvin    Cal/Mol-Kelvin
 Total                  134.351             53.054            112.056
 Electronic               0.000              0.000              0.000
 Translational            0.889              2.981             42.096
 Rotational               0.889              2.981             32.562
 Vibrational            132.574             47.092             37.398
 Vibration     1          0.595              1.977              4.782
 Vibration     2          0.603              1.951              3.507
 Vibration     3          0.612              1.923              2.945
 Vibration     4          0.617              1.906              2.713
 Vibration     5          0.625              1.881              2.450
 Vibration     6          0.632              1.859              2.266
 Vibration     7          0.642              1.827              2.053
 Vibration     8          0.677              1.719              1.562
 Vibration     9          0.686              1.693              1.477
 Vibration    10          0.713              1.614              1.256
 Vibration    11          0.738              1.544              1.100
 Vibration    12          0.741              1.536              1.084
 Vibration    13          0.770              1.461              0.947
 Vibration    14          0.790              1.408              0.863
 Vibration    15          0.794              1.398              0.849
 Vibration    16          0.830              1.309              0.729
 Vibration    17          0.838              1.290              0.704
 Vibration    18          0.867              1.223              0.628
 Vibration    19          0.925              1.099              0.507

 Optimization completed.
    -- Stationary point found.
 Normal termination of Gaussian 16 at Wed Dec 27 21:04:07 2023.
