 Q-Chem 5.4, Q-Chem, Inc., Pleasanton, CA (2021)
 Q-Chem 5.4.0 for Intel X86 EM64T Linux

User input:
--------------------------------------------------------------
$molecule
-2 1
Br                -2.4543940000      2.1910550000      0.4899220000
C                 -0.9313630000      0.8447400000      0.4630110000
C                 -1.2583440000     -0.4988240000      0.3002160000
Br                -2.8776210000     -1.2386740000      1.1694780000
C                 -0.3951180000     -1.4802040000     -0.2839220000
O                 -0.6605740000     -2.6865970000     -0.4213770000
C                  1.0514060000     -0.9963040000     -0.5739970000
O                  1.8995300000     -1.8301830000     -0.9346670000
C                  1.3202750000      0.3638340000     -0.2171220000
C                  0.3561150000      1.2755430000      0.2046190000
Br                 0.7047500000      3.2476380000     -0.1429670000
Br                 3.2441380000      0.8091770000     -0.0587940000
$end
$rem
MAX_SCF_CYCLES=200
BASIS  =  6-311++G(d,p)
GUI  =  2
JOB_TYPE  =  SP
METHOD  =  B3LYP
SOLVENT_METHOD = PCM
$end
$pcm
theory = CPCM
$end
$solvent
dielectric 37.219
opticaldielectric 1.43
$end

--------------------------------------------------------------

             Standard Nuclear Orientation (Angstroms)
    I     Atom           X                Y                Z
 ----------------------------------------------------------------
    1      Br     -2.4543940000     2.1910550000     0.4899220000
    2      C      -0.9313630000     0.8447400000     0.4630110000
    3      C      -1.2583440000    -0.4988240000     0.3002160000
    4      Br     -2.8776210000    -1.2386740000     1.1694780000
    5      C      -0.3951180000    -1.4802040000    -0.2839220000
    6      O      -0.6605740000    -2.6865970000    -0.4213770000
    7      C       1.0514060000    -0.9963040000    -0.5739970000
    8      O       1.8995300000    -1.8301830000    -0.9346670000
    9      C       1.3202750000     0.3638340000    -0.2171220000
   10      C       0.3561150000     1.2755430000     0.2046190000
   11      Br      0.7047500000     3.2476380000    -0.1429670000
   12      Br      3.2441380000     0.8091770000    -0.0587940000
 ----------------------------------------------------------------

   10  -10676.0036388831      1.78e-06  Convergence criterion met
 Total energy in the final basis set =   -10676.0036388831

                    Orbital Energies (a.u.)
 --------------------------------------------------------------

 Alpha MOs
 -- Occupied --
********-482.8137-482.8098-482.8097 -62.4665 -62.4665 -62.4626 -62.4625
-56.2869 -56.2869 -56.2832 -56.2832 -56.2830 -56.2830 -56.2828 -56.2828
-56.2793 -56.2793 -56.2791 -56.2791 -19.0629 -19.0629 -10.2200 -10.2199
-10.2183 -10.2178 -10.1964 -10.1964  -8.6749  -8.6748  -8.6711  -8.6711
 -6.5058  -6.5057  -6.5017  -6.5017  -6.4938  -6.4938  -6.4932  -6.4932
 -6.4902  -6.4902  -6.4896  -6.4896  -2.6167  -2.6167  -2.6134  -2.6133
 -2.6130  -2.6129  -2.6128  -2.6127  -2.6095  -2.6095  -2.6091  -2.6091
 -2.6035  -2.6035  -2.6035  -2.6034  -2.6000  -2.6000  -2.5999  -2.5999
 -1.0065  -0.9783  -0.8559  -0.7966  -0.7736  -0.7554  -0.7473  -0.6777
 -0.6684  -0.5536  -0.5514  -0.4862  -0.4419  -0.4130  -0.4124  -0.3951
 -0.3828  -0.3611  -0.3589  -0.3438  -0.3412  -0.3079  -0.3010  -0.2905
 -0.2892  -0.2815  -0.2728  -0.2632  -0.2600  -0.2430  -0.2170  -0.2023
 -0.1620

          Ground-State Mulliken Net Atomic Charges

     Atom                 Charge (a.u.)
  ----------------------------------------
      1 Br                   -0.270092
      2 C                    -0.143297
      3 C                     0.717672
      4 Br                   -0.270053
      5 C                    -0.510586
      6 O                    -0.520848
      7 C                    -0.509512
      8 O                    -0.521686
      9 C                     0.710555
     10 C                    -0.143726
     11 Br                   -0.268906
     12 Br                   -0.269521
  ----------------------------------------
  Sum of atomic charges =    -2.000000

                    Cartesian Multipole Moments
 -----------------------------------------------------------------
    Charge (ESU x 10^10)
                -9.6064
    Dipole Moment (Debye)
         X      -1.7490      Y       6.1992      Z       1.5753
       Tot       6.6310
    Quadrupole Moments (Debye-Ang)
        XX    -165.0545     XY       1.0789     YY    -174.6924
        XZ       9.6854     YZ      -8.1451     ZZ    -131.9392

 Total job time:  30.76s(wall), 192.68s(cpu)
        *  Thank you very much for using Q-Chem.  Have a nice day.  *
