 Gaussian 16, Revision A.03,
 Gaussian 16:  ES64L-G16RevA.03 25-Dec-2016

 ------------------------------------
 #P UB3LYP/gen nosym opt freq SCF=YQC
 ------------------------------------

 -------
 Reduced
 -------
 Symbolic Z-matrix:
 Charge = -2 Multiplicity = 1

 SCF Done:  E(UB3LYP) =  -3574.58429248     a.u. after   20 cycles
 SCF Done:  E(UB3LYP) =  -3574.58448574     A.U. after   23 cycles
 SCF Done:  E(UB3LYP) =  -3574.58476253     a.u. after   10 cycles
 SCF Done:  E(UB3LYP) =  -3574.58488198     A.U. after   19 cycles
 SCF Done:  E(UB3LYP) =  -3574.58488845     a.u. after    8 cycles
 SCF Done:  E(UB3LYP) =  -3574.58494262     A.U. after   17 cycles
 SCF Done:  E(UB3LYP) =  -3574.58490329     a.u. after   10 cycles
 SCF Done:  E(UB3LYP) =  -3574.58500938     A.U. after   20 cycles
 SCF Done:  E(UB3LYP) =  -3574.58498037     a.u. after    8 cycles
 SCF Done:  E(UB3LYP) =  -3574.58503449     A.U. after   18 cycles
 SCF Done:  E(UB3LYP) =  -3574.58506240     a.u. after    1 cycles
 SCF Done:  E(UB3LYP) =  -3574.58507289     A.U. after   16 cycles
 SCF Done:  E(UB3LYP) =  -3574.58506962     a.u. after    2 cycles
 SCF Done:  E(UB3LYP) =  -3574.58507290     A.U. after   17 cycles
 SCF Done:  E(UB3LYP) =  -3574.58506183     a.u. after    1 cycles
 SCF Done:  E(UB3LYP) =  -3574.58507291     A.U. after   15 cycles
 SCF Done:  E(UB3LYP) =  -3574.58506707     a.u. after    1 cycles
 SCF Done:  E(UB3LYP) =  -3574.58507292     A.U. after   15 cycles
 Optimization completed.
    -- Stationary point found.
 Normal termination of Gaussian 16 at Sat Jan  6 05:56:56 2024.

 ------------------------------------------------------------------
 #P Geom=AllCheck Guess=TCheck SCRF=Check GenChk UB3LYP/ChkBas Freq
 ------------------------------------------------------------------

 Structure from the checkpoint file:  "295-an.chk"
 -------
 Reduced
 -------
 Charge = -2 Multiplicity = 1

                          Input orientation:
 ---------------------------------------------------------------------
 Center     Atomic      Atomic             Coordinates (Angstroms)
 Number     Number       Type             X           Y           Z
 ---------------------------------------------------------------------
      1          6           0       -1.020542    2.022176   -0.281712
      2          6           0       -1.468293    2.122282    1.021595
      3          6           0       -0.825800    1.390900    2.048445
      4          6           0        0.078326    1.195994   -0.621452
      5          6           0        0.732682    0.452824    0.421351
      6          6           0        0.252863    0.576886    1.737307
      7          6           0        0.535495    1.096742   -1.980270
      8          6           0        1.657306    0.230360   -2.207443
      9          6           0        2.311640   -0.506724   -1.230995
     10          6           0        1.881037   -0.424996    0.144303
     11          8           0        0.027471    1.710005   -2.995417
     12          8           0        2.454279   -1.077641    1.070012
     13          1           0       -1.497488    2.573673   -1.085295
     14          1           0       -2.313973    2.763663    1.259021
     15          1           0       -1.175850    1.468410    3.074595
     16          1           0        0.767140    0.005061    2.502808
     17          8           0        2.039489    0.182007   -3.524815
     18          6           0        3.474365   -1.402508   -1.574234
     19          6           0        4.851193   -0.725106   -1.415725
     20          6           0        6.023220   -1.656800   -1.749377
     21          6           0        7.404321   -1.002939   -1.612648
     22          6           0        8.572060   -1.937054   -1.957146
     23          6           0        9.955493   -1.286403   -1.827133
     24          6           0       11.119885   -2.222040   -2.177305
     25          6           0       12.502611   -1.566238   -2.049392
     26          6           0       13.668682   -2.520120   -2.409165
     27          6           0       15.032151   -1.921301   -2.299385
     28         35           0       16.597212   -3.687849   -2.943275
     29          1           0        1.379063    0.795139   -3.926318
     30          1           0        3.372824   -1.757139   -2.606208
     31          1           0        3.442424   -2.269710   -0.905420
     32          1           0        4.943662   -0.369922   -0.383653
     33          1           0        4.890537    0.158629   -2.064173
     34          1           0        5.905097   -2.031885   -2.775858
     35          1           0        5.976879   -2.539121   -1.096518
     36          1           0        7.527581   -0.633391   -0.586061
     37          1           0        7.448873   -0.116859   -2.260047
     38          1           0        8.444781   -2.308738   -2.982952
     39          1           0        8.528355   -2.822342   -1.308510
     40          1           0       10.085075   -0.917156   -0.801183
     41          1           0        9.998515   -0.399818   -2.473650
     42          1           0       10.990421   -2.592420   -3.203022
     43          1           0       11.079798   -3.108019   -1.529705
     44          1           0       12.641464   -1.199625   -1.024896
     45          1           0       12.550131   -0.681561   -2.696246
     46          1           0       13.518127   -2.883639   -3.433635
     47          1           0       13.610863   -3.402427   -1.759212
     48          1           0       15.431825   -1.740462   -1.307685
     49          1           0       15.332331   -1.195832   -3.047394
 ---------------------------------------------------------------------

 SCF Done:  E(UB3LYP) =  -3574.58507292     a.u. after    1 cycles
 SCF Done:  E(UB3LYP) =  -3574.58507292     A.U. after    4 cycles

 Alpha  occ. eigenvalues -- -482.44425 -61.52903 -56.09723 -56.09564 -56.09537
 Alpha  occ. eigenvalues --  -18.93891 -18.86442 -18.85325 -10.02712 -10.02655
 Alpha  occ. eigenvalues --  -10.02616 -10.02399 -10.02212 -10.01901 -10.01361
 Alpha  occ. eigenvalues --  -10.01250 -10.01035 -10.00499 -10.00179  -9.98561
 Alpha  occ. eigenvalues --   -9.98348  -9.98196  -9.97821  -9.97657  -9.97279
 Alpha  occ. eigenvalues --   -9.97020  -9.96728  -9.95779  -8.29882  -6.31079
 Alpha  occ. eigenvalues --   -6.30467  -6.30450  -2.43100  -2.42943  -2.42929
 Alpha  occ. eigenvalues --   -2.42444  -2.42444  -0.85448  -0.77372  -0.76816
 Alpha  occ. eigenvalues --   -0.67153  -0.65764  -0.64602  -0.62006  -0.60172
 Alpha  occ. eigenvalues --   -0.57885  -0.55390  -0.55214  -0.52623  -0.50810
 Alpha  occ. eigenvalues --   -0.48474  -0.46284  -0.44504  -0.43796  -0.42672
 Alpha  occ. eigenvalues --   -0.41935  -0.41065  -0.38800  -0.36632  -0.34608
 Alpha  occ. eigenvalues --   -0.33622  -0.32281  -0.30467  -0.29818  -0.28210
 Alpha  occ. eigenvalues --   -0.28045  -0.27775  -0.26959  -0.25850  -0.25600
 Alpha  occ. eigenvalues --   -0.24606  -0.23917  -0.23348  -0.23022  -0.22202
 Alpha  occ. eigenvalues --   -0.21291  -0.20825  -0.20286  -0.19891  -0.19300
 Alpha  occ. eigenvalues --   -0.18984  -0.18635  -0.18502  -0.18269  -0.18025
 Alpha  occ. eigenvalues --   -0.17714  -0.17081  -0.16278  -0.16238  -0.14901
 Alpha  occ. eigenvalues --   -0.14270  -0.13700  -0.12962  -0.12696  -0.11330
 Alpha  occ. eigenvalues --   -0.07885  -0.07820  -0.05803  -0.05177  -0.04351
 Alpha  occ. eigenvalues --   -0.02332  -0.01986   0.07763
 Alpha virt. eigenvalues --    0.08508   0.12255   0.12984   0.13144   0.13283
 Alpha virt. eigenvalues --    0.13895   0.14961   0.15000   0.15244   0.15945
 Alpha virt. eigenvalues --    0.16283   0.16561   0.16587   0.17242   0.17313

  Beta  occ. eigenvalues -- -482.44425 -61.52903 -56.09723 -56.09564 -56.09537
  Beta  occ. eigenvalues --  -18.93891 -18.86442 -18.85325 -10.02712 -10.02655
  Beta  occ. eigenvalues --  -10.02616 -10.02399 -10.02212 -10.01901 -10.01361
  Beta  occ. eigenvalues --  -10.01250 -10.01035 -10.00499 -10.00179  -9.98561
  Beta  occ. eigenvalues --   -9.98348  -9.98196  -9.97821  -9.97657  -9.97279
  Beta  occ. eigenvalues --   -9.97020  -9.96728  -9.95779  -8.29882  -6.31079
  Beta  occ. eigenvalues --   -6.30467  -6.30450  -2.43100  -2.42943  -2.42929
  Beta  occ. eigenvalues --   -2.42444  -2.42444  -0.85448  -0.77372  -0.76816
  Beta  occ. eigenvalues --   -0.67153  -0.65764  -0.64602  -0.62006  -0.60172
  Beta  occ. eigenvalues --   -0.57885  -0.55390  -0.55214  -0.52623  -0.50810
  Beta  occ. eigenvalues --   -0.48474  -0.46284  -0.44504  -0.43796  -0.42672
  Beta  occ. eigenvalues --   -0.41935  -0.41065  -0.38800  -0.36632  -0.34608
  Beta  occ. eigenvalues --   -0.33622  -0.32281  -0.30467  -0.29818  -0.28210
  Beta  occ. eigenvalues --   -0.28045  -0.27775  -0.26959  -0.25850  -0.25600
  Beta  occ. eigenvalues --   -0.24606  -0.23917  -0.23348  -0.23022  -0.22202
  Beta  occ. eigenvalues --   -0.21291  -0.20825  -0.20286  -0.19891  -0.19300
  Beta  occ. eigenvalues --   -0.18984  -0.18635  -0.18502  -0.18269  -0.18025
  Beta  occ. eigenvalues --   -0.17714  -0.17081  -0.16278  -0.16238  -0.14901
  Beta  occ. eigenvalues --   -0.14270  -0.13700  -0.12962  -0.12696  -0.11330
  Beta  occ. eigenvalues --   -0.07885  -0.07820  -0.05803  -0.05177  -0.04351
  Beta  occ. eigenvalues --   -0.02332  -0.01986   0.07763
  Beta virt. eigenvalues --    0.08508   0.12255   0.12984   0.13144   0.13283
  Beta virt. eigenvalues --    0.13895   0.14961   0.15000   0.15244   0.15945
  Beta virt. eigenvalues --    0.16283   0.16561   0.16587   0.17242   0.17313

 Mulliken charges and spin densities:
               1          2
     1  C   -0.052651  -0.000000
     2  C   -0.294154   0.000000
     3  C   -0.396414  -0.000000
     4  C    0.685395   0.000000
     5  C   -0.017921  -0.000000
     6  C    0.040134  -0.000000
     7  C   -1.271911  -0.000000
     8  C   -0.682595  -0.000000
     9  C    2.303382   0.000000
    10  C   -0.923897   0.000000
    11  O   -0.516141  -0.000000
    12  O   -0.416351  -0.000000
    13  H    0.143196  -0.000000
    14  H    0.099814   0.000000
    15  H    0.097343  -0.000000
    16  H    0.148941   0.000000
    17  O   -0.274597  -0.000000
    18  C   -0.460265  -0.000000
    19  C   -0.848422  -0.000000
    20  C   -0.246374  -0.000000
    21  C    0.003723   0.000000
    22  C    0.048736   0.000000
    23  C   -0.067460  -0.000000
    24  C   -0.597054   0.000000
    25  C    0.031029  -0.000000
    26  C   -0.110969   0.000000
    27  C   -0.662100   0.000000
    28  Br  -0.299959   0.000000
    29  H    0.258034   0.000000
    30  H    0.208211   0.000000
    31  H    0.202678   0.000000
    32  H    0.184484   0.000000
    33  H    0.147153   0.000000
    34  H    0.086960   0.000000
    35  H    0.100118   0.000000
    36  H    0.113983   0.000000
    37  H    0.110052  -0.000000
    38  H    0.116771  -0.000000
    39  H    0.120472  -0.000000
    40  H    0.118842   0.000000
    41  H    0.122057  -0.000000
    42  H    0.105939   0.000000
    43  H    0.109768   0.000000
    44  H    0.037533   0.000000
    45  H    0.029024   0.000000
    46  H    0.053275  -0.000000
    47  H    0.047294  -0.000000
    48  H    0.134751   0.000000
    49  H    0.130143   0.000000
 Sum of Mulliken charges =  -2.00000  -0.00000

 Dipole moment (field-independent basis, Debye):
    X=            -58.8923    Y=              7.6621    Z=             13.8535  Tot=             60.9830
 Quadrupole moment (field-independent basis, Debye-Ang):
   XX=          -1035.0756   YY=           -223.3409   ZZ=           -227.9098
   XY=            176.6156   XZ=            146.7488   YZ=            -20.2680

  Exact polarizability:3051.927-544.435 410.148-370.803  70.981 401.245
 Approx polarizability:****************3801.534********1870.6781686.193

                      1                      2                      3
                      A                      A                      A
 Frequencies --      9.4370                14.3247                16.0037
 Red. masses --      7.0724                 4.2489                 6.0418
 Frc consts  --      0.0004                 0.0005                 0.0009
 IR Inten    --      0.4349                 0.4037                 0.8356

                      4                      5                      6
                      A                      A                      A
 Frequencies --     32.9845                34.3530                49.7581
 Red. masses --      3.1000                 5.7679                 2.3051
 Frc consts  --      0.0020                 0.0040                 0.0034
 IR Inten    --      1.8014                 1.8420                 0.2444

                      7                      8                      9
                      A                      A                      A
 Frequencies --     64.0160                81.9985                84.3818
 Red. masses --     10.2778                 2.5030                 6.0363
 Frc consts  --      0.0248                 0.0099                 0.0253
 IR Inten    --     66.8400                12.5833               424.5201

                     10                     11                     12
                      A                      A                      A
 Frequencies --     93.6315                99.8288               121.7829
 Red. masses --      2.0059                 5.6939                 4.8952
 Frc consts  --      0.0104                 0.0334                 0.0428
 IR Inten    --      0.3763                 1.2835                29.5453

                     13                     14                     15
                      A                      A                      A
 Frequencies --    134.0206               142.5990               152.9851
 Red. masses --      2.2206                 1.8899                 5.3884
 Frc consts  --      0.0235                 0.0226                 0.0743
 IR Inten    --      0.3829                 2.0714               739.4677

                     16                     17                     18
                      A                      A                      A
 Frequencies --    158.3049               179.1973               180.7689
 Red. masses --      5.4921                 2.0661                 7.3119
 Frc consts  --      0.0811                 0.0391                 0.1408
 IR Inten    --    179.3782                 0.1183                18.5663

                     19                     20                     21
                      A                      A                      A
 Frequencies --    185.8932               225.6275               251.4506
 Red. masses --      1.9544                 4.4789                 4.4980
 Frc consts  --      0.0398                 0.1343                 0.1676
 IR Inten    --      0.0519                55.3524                25.5356

                     22                     23                     24
                      A                      A                      A
 Frequencies --    270.3681               296.0855               318.4226
 Red. masses --      4.5486                 2.8569                 4.9152
 Frc consts  --      0.1959                 0.1476                 0.2936
 IR Inten    --    543.5948                 2.4896                 8.5755

                     25                     26                     27
                      A                      A                      A
 Frequencies --    349.8911               360.8546               372.3676
 Red. masses --      5.7935                 4.0737                 9.5338
 Frc consts  --      0.4179                 0.3125                 0.7789
 IR Inten    --     89.5518                58.3848                 9.6204

                     28                     29                     30
                      A                      A                      A
 Frequencies --    397.5110               426.9491               431.8366
 Red. masses --      5.1308                 4.7418                 8.3364
 Frc consts  --      0.4777                 0.5093                 0.9159
 IR Inten    --    160.3432                17.6348                94.1775

                     31                     32                     33
                      A                      A                      A
 Frequencies --    447.6457               467.5815               489.4630
 Red. masses --      4.0852                 3.4412                 5.0879
 Frc consts  --      0.4823                 0.4433                 0.7182
 IR Inten    --     59.2241                83.2601               247.4610

                     34                     35                     36
                      A                      A                      A
 Frequencies --    502.2827               529.7835               564.8812
 Red. masses --      3.2788                 6.0599                 5.5531
 Frc consts  --      0.4874                 1.0021                 1.0440
 IR Inten    --     18.0036                72.3874                 2.6841

                     37                     38                     39
                      A                      A                      A
 Frequencies --    626.9839               643.2995               672.7338
 Red. masses --      1.0798                 6.1761                 5.5912
 Frc consts  --      0.2501                 1.5059                 1.4909
 IR Inten    --      0.3603                 5.6050                 3.9427

                     40                     41                     42
                      A                      A                      A
 Frequencies --    697.1714               700.6233               706.3020
 Red. masses --      3.0573                 2.5450                 4.1593
 Frc consts  --      0.8755                 0.7360                 1.2225
 IR Inten    --     14.4360                37.0969                 7.9371

                     43                     44                     45
                      A                      A                      A
 Frequencies --    728.3253               730.4543               739.1629
 Red. masses --      1.0593                 1.1028                 1.1772
 Frc consts  --      0.3311                 0.3467                 0.3789
 IR Inten    --      2.7424                 1.1680                 1.3036

                     46                     47                     48
                      A                      A                      A
 Frequencies --    746.8134               759.2519               763.1172
 Red. masses --      2.0993                 1.2309                 1.2413
 Frc consts  --      0.6898                 0.4181                 0.4259
 IR Inten    --     62.5102                 0.2416                37.1644

                     49                     50                     51
                      A                      A                      A
 Frequencies --    775.1091               793.7294               826.9381
 Red. masses --      4.0502                 1.2909                 1.4393
 Frc consts  --      1.4337                 0.4792                 0.5799
 IR Inten    --      0.3256                 0.3288                 0.2022

                     52                     53                     54
                      A                      A                      A
 Frequencies --    840.0429               861.7681               882.7569
 Red. masses --      1.4743                 1.2193                 1.9018
 Frc consts  --      0.6130                 0.5335                 0.8731
 IR Inten    --      8.4479               551.7486                12.8959

                     55                     56                     57
                      A                      A                      A
 Frequencies --    926.9000               941.5280               951.7697
 Red. masses --      1.5019                 5.8210                 1.2668
 Frc consts  --      0.7603                 3.0403                 0.6761
 IR Inten    --      8.9200                66.2183                 0.9754

                     58                     59                     60
                      A                      A                      A
 Frequencies --    964.7196               970.2091               978.7069
 Red. masses --      1.3214                 4.5905                 4.4575
 Frc consts  --      0.7246                 2.5459                 2.5156
 IR Inten    --      1.6689                 8.1489                 1.0883

                     61                     62                     63
                      A                      A                      A
 Frequencies --    983.7964              1005.9016              1026.2869
 Red. masses --      1.4023                 3.7969                 2.9386
 Frc consts  --      0.7997                 2.2635                 1.8236
 IR Inten    --      0.9818                37.6091                80.3325

                     64                     65                     66
                      A                      A                      A
 Frequencies --   1027.0776              1033.6524              1038.0568
 Red. masses --      2.7867                 1.6357                 2.2701
 Frc consts  --      1.7320                 1.0297                 1.4412
 IR Inten    --     98.9503                24.7334                 3.5135

                     67                     68                     69
                      A                      A                      A
 Frequencies --   1054.8665              1058.2843              1059.5357
 Red. masses --      2.4582                 1.9066                 2.2292
 Frc consts  --      1.6116                 1.2581                 1.4744
 IR Inten    --      1.6229                62.5176                 4.1005

                     70                     71                     72
                      A                      A                      A
 Frequencies --   1072.9657              1100.7047              1107.3674
 Red. masses --      3.3393                 2.0771                 4.1327
 Frc consts  --      2.2651                 1.4827                 2.9858
 IR Inten    --     67.4881                27.4618                29.7232

                     73                     74                     75
                      A                      A                      A
 Frequencies --   1130.6209              1141.1075              1189.6349
 Red. masses --      1.9257                 1.2957                 3.2375
 Frc consts  --      1.4503                 0.9940                 2.6996
 IR Inten    --     61.0212                86.9170               262.4760

                     76                     77                     78
                      A                      A                      A
 Frequencies --   1195.4861              1205.8558              1215.7238
 Red. masses --      2.0929                 1.8302                 1.2079
 Frc consts  --      1.7623                 1.5680                 1.0518
 IR Inten    --     47.1085                16.2189                 4.4266

                     79                     80                     81
                      A                      A                      A
 Frequencies --   1237.0575              1248.3973              1251.8371
 Red. masses --      1.7288                 2.1604                 1.2903
 Frc consts  --      1.5588                 1.9838                 1.1913
 IR Inten    --      2.7879               100.8172                 4.6153

                     82                     83                     84
                      A                      A                      A
 Frequencies --   1274.2643              1284.6245              1291.1820
 Red. masses --      1.4934                 1.6116                 1.5811
 Frc consts  --      1.4287                 1.5669                 1.5531
 IR Inten    --     24.8533                 6.9681                 9.8652

                     85                     86                     87
                      A                      A                      A
 Frequencies --   1305.9905              1316.5557              1321.0960
 Red. masses --      1.2904                 1.0214                 1.3183
 Frc consts  --      1.2967                 1.0431                 1.3556
 IR Inten    --     29.3616                 4.9907                46.3721

                     88                     89                     90
                      A                      A                      A
 Frequencies --   1322.3391              1325.7325              1332.1313
 Red. masses --      1.1023                 1.1506                 1.0880
 Frc consts  --      1.1356                 1.1915                 1.1375
 IR Inten    --      6.7076                53.3102                 0.6924

                     91                     92                     93
                      A                      A                      A
 Frequencies --   1334.6015              1343.3851              1345.2139
 Red. masses --      1.1408                 1.5653                 4.7457
 Frc consts  --      1.1972                 1.6644                 5.0598
 IR Inten    --     81.5234                81.0837               469.0135

                     94                     95                     96
                      A                      A                      A
 Frequencies --   1356.6419              1365.8950              1375.0263
 Red. masses --      1.7106                 1.5746                 1.5223
 Frc consts  --      1.8549                 1.7308                 1.6958
 IR Inten    --    143.6309               172.0243                19.3180

                     97                     98                     99
                      A                      A                      A
 Frequencies --   1386.7145              1389.5433              1430.1714
 Red. masses --      1.5569                 1.6055                 2.9974
 Frc consts  --      1.7640                 1.8264                 3.6122
 IR Inten    --      0.6230                 0.3226              1607.1203

                    100                    101                    102
                      A                      A                      A
 Frequencies --   1449.2978              1451.7203              1468.5915
 Red. masses --      1.8601                 2.8356                 1.1265
 Frc consts  --      2.3020                 3.5209                 1.4314
 IR Inten    --    524.9023                86.4503                 4.1483

                    103                    104                    105
                      A                      A                      A
 Frequencies --   1474.6114              1477.8124              1481.4954
 Red. masses --      1.7270                 1.1220                 1.1002
 Frc consts  --      2.2126                 1.4438                 1.4227
 IR Inten    --    560.2352                13.1202                73.8234

                    106                    107                    108
                      A                      A                      A
 Frequencies --   1482.7825              1484.8271              1489.7245
 Red. masses --      1.0843                 1.0889                 1.0957
 Frc consts  --      1.4046                 1.4145                 1.4327
 IR Inten    --      0.1977                12.3127                 3.4029

                    109                    110                    111
                      A                      A                      A
 Frequencies --   1497.1624              1501.9267              1505.4480
 Red. masses --      1.1002                 3.9084                 1.1048
 Frc consts  --      1.4530                 5.1945                 1.4752
 IR Inten    --      0.4207              1145.1564                 4.2592

                    112                    113                    114
                      A                      A                      A
 Frequencies --   1512.2847              1519.3103              1554.8821
 Red. masses --      1.1009                 4.7319                 4.4159
 Frc consts  --      1.4834                 6.4354                 6.2902
 IR Inten    --      8.3272               850.9514              1203.0273

                    115                    116                    117
                      A                      A                      A
 Frequencies --   1600.4513              1616.4947              2978.3500
 Red. masses --      5.2922                 5.4642                 1.0583
 Frc consts  --      7.9868                 8.4126                 5.5309
 IR Inten    --     33.6578              2375.3739                 9.5934

                    118                    119                    120
                      A                      A                      A
 Frequencies --   2983.6343              2985.5195              2987.5551
 Red. masses --      1.0572                 1.0567                 1.0585
 Frc consts  --      5.5450                 5.5493                 5.5663
 IR Inten    --     35.8821               152.2197               165.3276

                    121                    122                    123
                      A                      A                      A
 Frequencies --   2989.7870              2995.7962              2997.9505
 Red. masses --      1.0582                 1.0694                 1.0850
 Frc consts  --      5.5729                 5.6550                 5.7453
 IR Inten    --     73.4231                34.8560                13.4828

                    124                    125                    126
                      A                      A                      A
 Frequencies --   3000.4748              3003.3911              3003.7933
 Red. masses --      1.0960                 1.0617                 1.0593
 Frc consts  --      5.8134                 5.6425                 5.6314
 IR Inten    --      0.4570                33.2311               223.2033

                    127                    128                    129
                      A                      A                      A
 Frequencies --   3007.5208              3013.8221              3017.1774
 Red. masses --      1.0986                 1.0685                 1.0990
 Frc consts  --      5.8549                 5.7184                 5.8946
 IR Inten    --     14.3698               111.7642                11.9853

                    130                    131                    132
                      A                      A                      A
 Frequencies --   3025.4309              3037.0628              3041.4848
 Red. masses --      1.1038                 1.1030                 1.1033
 Frc consts  --      5.9527                 5.9942                 6.0133
 IR Inten    --     14.8840                11.7186                 3.5184

                    133                    134                    135
                      A                      A                      A
 Frequencies --   3048.8164              3063.3121              3113.2086
 Red. masses --      1.1057                 1.1059                 1.0836
 Frc consts  --      6.0553                 6.1141                 6.1878
 IR Inten    --    170.9686                71.8378                47.1706

                    136                    137                    138
                      A                      A                      A
 Frequencies --   3119.3934              3135.3750              3166.8417
 Red. masses --      1.0521                 1.0903                 1.0909
 Frc consts  --      6.0316                 6.3153                 6.4458
 IR Inten    --     72.9506               192.3477                31.2508

                    139                    140                    141
                      A                      A                      A
 Frequencies --   3169.6451              3212.6874              3414.2001
 Red. masses --      1.0923                 1.1168                 1.0636
 Frc consts  --      6.4657                 6.7916                 7.3045
 IR Inten    --    176.1215                17.3028                40.2039

 - Thermochemistry -
 -------------------
 Temperature   298.150 Kelvin.  Pressure   1.00000 Atm.
 Atom     1 has atomic number  6 and mass  12.00000

 Molecular mass:   392.09871 amu.
 Principal axes and moments of inertia in atomic units:
                           1         2         3
     Eigenvalues --  2604.41459********************
           X            0.95676   0.11690   0.26635
           Y           -0.25180  -0.12556   0.95960
           Z           -0.14562   0.98518   0.09070
 This molecule is an asymmetric top.
 Rotational symmetry number  1.
 Warning -- assumption of classical behavior for rotation
           may cause significant error
 Rotational temperatures (Kelvin)      0.03326     0.00129     0.00126
 Rotational constants (GHZ):           0.69295     0.02690     0.02635
 Zero-point vibrational energy    1060693.3 (Joules/Mol)
                                  253.51178 (Kcal/Mol)
 Warning -- explicit consideration of  36 degrees of freedom as
           vibrations may cause significant error
 Vibrational temperatures:     13.58    20.61    23.03    47.46    49.43
          (Kelvin)             71.59    92.10   117.98   121.41   134.71
                              143.63   175.22   192.83   205.17   220.11
                              227.77   257.82   260.09   267.46   324.63
                              361.78   389.00   426.00   458.14   503.42
                              519.19   535.75   571.93   614.28   621.32
                              644.06   672.75   704.23   722.67   762.24
                              812.74   902.09   925.56   967.91  1003.07
                             1008.04  1016.21  1047.90  1050.96  1063.49
                             1074.50  1092.39  1097.96  1115.21  1142.00
                             1189.78  1208.63  1239.89  1270.09  1333.60
                             1354.65  1369.38  1388.02  1395.91  1408.14
                             1415.46  1447.27  1476.60  1477.74  1487.20
                             1493.53  1517.72  1522.64  1524.44  1543.76
                             1583.67  1593.25  1626.71  1641.80  1711.62
                             1720.04  1734.96  1749.16  1779.85  1796.17
                             1801.11  1833.38  1848.29  1857.72  1879.03
                             1894.23  1900.76  1902.55  1907.43  1916.64
                             1920.19  1932.83  1935.46  1951.91  1965.22
                             1978.36  1995.17  1999.24  2057.70  2085.22
                             2088.70  2112.98  2121.64  2126.24  2131.54
                             2133.39  2136.34  2143.38  2154.08  2160.94
                             2166.00  2175.84  2185.95  2237.13  2302.69
                             2325.78  4285.18  4292.78  4295.50  4298.43
                             4301.64  4310.28  4313.38  4317.01  4321.21
                             4321.79  4327.15  4336.22  4341.05  4352.92
                             4369.66  4376.02  4386.57  4407.42  4479.21
                             4488.11  4511.11  4556.38  4560.41  4622.34
                             4912.27

 Zero-point correction=                           0.403997 (Hartree/Particle)
 Thermal correction to Energy=                    0.429378
 Thermal correction to Enthalpy=                  0.430323
 Thermal correction to Gibbs Free Energy=         0.342314
 Sum of electronic and zero-point Energies=          -3574.181076
 Sum of electronic and thermal Energies=             -3574.155695
 Sum of electronic and thermal Enthalpies=           -3574.154750
 Sum of electronic and thermal Free Energies=        -3574.242759

                     E (Thermal)             CV                S
                      KCal/Mol        Cal/Mol-Kelvin    Cal/Mol-Kelvin
 Total                  269.439             93.253            185.230
 Electronic               0.000              0.000              0.000
 Translational            0.889              2.981             43.791
 Rotational               0.889              2.981             37.723
 Vibrational            267.662             87.291            103.716
 Vibration     1          0.593              1.987              8.126
 Vibration     2          0.593              1.986              7.297
 Vibration     3          0.593              1.986              7.077
 Vibration     4          0.594              1.983              5.641
 Vibration     5          0.594              1.983              5.561
 Vibration     6          0.595              1.978              4.827
 Vibration     7          0.597              1.971              4.329
 Vibration     8          0.600              1.961              3.842
 Vibration     9          0.601              1.960              3.786
 Vibration    10          0.603              1.954              3.583
 Vibration    11          0.604              1.949              3.458
 Vibration    12          0.609              1.931              3.072
 Vibration    13          0.613              1.919              2.888
 Vibration    14          0.616              1.911              2.769
 Vibration    15          0.619              1.899              2.635
 Vibration    16          0.621              1.893              2.570
 Vibration    17          0.629              1.868              2.337
 Vibration    18          0.630              1.866              2.320
 Vibration    19          0.632              1.859              2.268
 Vibration    20          0.650              1.802              1.913
 Vibration    21          0.663              1.760              1.720
 Vibration    22          0.674              1.728              1.594
 Vibration    23          0.690              1.681              1.439
 Vibration    24          0.705              1.638              1.318
 Vibration    25          0.727              1.575              1.167
 Vibration    26          0.735              1.553              1.118
 Vibration    27          0.744              1.529              1.070
 Vibration    28          0.764              1.475              0.972
 Vibration    29          0.789              1.412              0.869
 Vibration    30          0.793              1.401              0.853
 Vibration    31          0.807              1.366              0.803
 Vibration    32          0.825              1.322              0.744
 Vibration    33          0.845              1.273              0.685
 Vibration    34          0.858              1.245              0.652
 Vibration    35          0.885              1.184              0.588
 Vibration    36          0.921              1.107              0.514

 Optimization completed.
    -- Stationary point found.
 Normal termination of Gaussian 16 at Sat Jan  6 08:15:51 2024.
