 Q-Chem 5.4, Q-Chem, Inc., Pleasanton, CA (2021)
 Q-Chem 5.4.0 for Intel X86 EM64T Linux

User input:
--------------------------------------------------------------
$molecule
-1 2
C                 -1.6033300000     -1.3928630000     -0.1354240000
C                 -0.2789120000     -0.6702350000     -0.0985750000
C                 -0.2091530000      0.6889790000      0.1351120000
C                 -1.4543420000      1.5105520000      0.3637250000
C                  1.0698610000      1.3965510000      0.1723600000
O                  1.1493830000      2.6438380000      0.3856570000
C                  2.2465710000      0.5881260000     -0.0493870000
C                  2.1774520000     -0.7584080000     -0.2809000000
C                  0.9225970000     -1.4732550000     -0.3210810000
O                  0.8740010000     -2.7217170000     -0.5368700000
H                 -1.4292080000     -2.4512210000     -0.3337140000
H                 -2.2639910000     -0.9926840000     -0.9154220000
H                 -2.1458060000     -1.2974080000      0.8141240000
H                 -2.0203710000      1.1581010000      1.2357410000
H                 -2.1375290000      1.4616550000     -0.4940980000
H                 -1.1723930000      2.5514700000      0.5272990000
H                  3.2006460000      1.1081210000     -0.0229710000
H                  3.0745230000     -1.3496040000     -0.4455740000
$end

$rem
BASIS  =  6-311++G(d,p)
GUI  =  2
JOB_TYPE  =  SP
METHOD  =  B3LYP
SCF_CONVERGENCE  = 8
SOLVENT_METHOD = sm12
$end

$smx
solvent dimethylformamide
charges CM5
$end

--------------------------------------------------------------

             Standard Nuclear Orientation (Angstroms)
    I     Atom           X                Y                Z
 ----------------------------------------------------------------
    1      C      -1.6033300000    -1.3928630000    -0.1354240000
    2      C      -0.2789120000    -0.6702350000    -0.0985750000
    3      C      -0.2091530000     0.6889790000     0.1351120000
    4      C      -1.4543420000     1.5105520000     0.3637250000
    5      C       1.0698610000     1.3965510000     0.1723600000
    6      O       1.1493830000     2.6438380000     0.3856570000
    7      C       2.2465710000     0.5881260000    -0.0493870000
    8      C       2.1774520000    -0.7584080000    -0.2809000000
    9      C       0.9225970000    -1.4732550000    -0.3210810000
   10      O       0.8740010000    -2.7217170000    -0.5368700000
   11      H      -1.4292080000    -2.4512210000    -0.3337140000
   12      H      -2.2639910000    -0.9926840000    -0.9154220000
   13      H      -2.1458060000    -1.2974080000     0.8141240000
   14      H      -2.0203710000     1.1581010000     1.2357410000
   15      H      -2.1375290000     1.4616550000    -0.4940980000
   16      H      -1.1723930000     2.5514700000     0.5272990000
   17      H       3.2006460000     1.1081210000    -0.0229710000
   18      H       3.0745230000    -1.3496040000    -0.4455740000
 ----------------------------------------------------------------

   15    -460.2944036985      7.49e-09  Convergence criterion met
 Total energy in the final basis set =     -460.3800586384

                    Orbital Energies (a.u.)
 --------------------------------------------------------------

 Alpha MOs
 -- Occupied --
-19.0763 -19.0763 -10.2198 -10.2198 -10.1753 -10.1747 -10.1693 -10.1686
-10.1666 -10.1666  -0.9970  -0.9946  -0.8329  -0.7793  -0.7330  -0.6717
 -0.6678  -0.5760  -0.5572  -0.4922  -0.4665  -0.4423  -0.4347  -0.4082
 -0.4043  -0.3994  -0.3972  -0.3922  -0.3909  -0.3674  -0.3550  -0.3482
 -0.2811  -0.2510  -0.2434  -0.2357  -0.1630

 Beta MOs
 -- Occupied --
-19.0689 -19.0689 -10.2187 -10.2187 -10.1744 -10.1738 -10.1680 -10.1673
-10.1666 -10.1666  -0.9843  -0.9816  -0.8276  -0.7764  -0.7303  -0.6700
 -0.6585  -0.5721  -0.5536  -0.4902  -0.4623  -0.4376  -0.4311  -0.4064
 -0.4013  -0.3954  -0.3943  -0.3903  -0.3741  -0.3520  -0.3462  -0.3392
 -0.2515  -0.2378  -0.2365  -0.2291

          Ground-State Mulliken Net Atomic Charges

     Atom                 Charge (a.u.)    Spin (a.u.)
  --------------------------------------------------------
      1 C                     0.230257       0.006048
      2 C                     0.095477       0.067763
      3 C                     0.094705       0.067855
      4 C                     0.230208       0.006042
      5 C                    -1.224299       0.080167
      6 O                    -0.362278       0.264868
      7 C                    -0.036467       0.086218
      8 C                    -0.039867       0.086103
      9 C                    -1.224548       0.080287
     10 O                    -0.362600       0.264822
     11 H                     0.178785      -0.002389
     12 H                     0.205838       0.002979
     13 H                     0.205995       0.002980
     14 H                     0.206012       0.002977
     15 H                     0.205764       0.002980
     16 H                     0.179005      -0.002389
     17 H                     0.209176      -0.008660
     18 H                     0.208835      -0.008651
  --------------------------------------------------------
  Sum of atomic charges =    -1.000000

                    Cartesian Multipole Moments
 -----------------------------------------------------------------
    Charge (ESU x 10^10)
                -4.8032
    Dipole Moment (Debye)
         X      -5.0718      Y       0.1965      Z       0.3807
       Tot       5.0899
    Quadrupole Moments (Debye-Ang)
        XX     -69.0035     XY      -1.6668     YY    -100.1837
        XZ       0.0480     YZ      -6.2248     ZZ     -65.1390

 Total job time:  191.50s(wall), 1387.92s(cpu)
        *  Thank you very much for using Q-Chem.  Have a nice day.  *
