 Q-Chem 5.4, Q-Chem, Inc., Pleasanton, CA (2021)
 Q-Chem 5.4.0 for Intel X86 EM64T Linux

User input:
--------------------------------------------------------------
$molecule
-2 1
C                  5.8609810000     -5.7052300000      0.5066800000
C                  5.9821760000     -5.9211790000     -0.8547670000
C                  5.2425300000     -5.1246800000     -1.7597680000
C                  5.0116860000     -4.7034770000      1.0244650000
C                  4.2627870000     -3.8989000000      0.1085200000
C                  4.4028140000     -4.1371800000     -1.2755650000
C                  4.9172600000     -4.5084000000      2.4711670000
C                  4.0217820000     -3.4650750000      2.9063320000
C                  3.2938110000     -2.6700350000      2.0064700000
C                  3.3645660000     -2.8456840000      0.5786350000
O                  5.5947590000     -5.2265790000      3.2820220000
O                  2.6906030000     -2.1281170000     -0.2347860000
H                  6.6428080000     -6.7002170000     -1.2286610000
C                  2.3762550000     -1.5663810000      2.4856770000
H                  5.3335120000     -5.2892760000     -2.8310550000
C                  3.9166390000     -3.2593530000      4.4006370000
C                  0.8964130000     -1.9875910000      2.6009060000
C                 -0.0232260000     -0.8455740000      3.0513840000
C                 -1.5002490000     -1.2396070000      3.1841300000
H                  6.4151800000     -6.2986510000      1.2263950000
H                  3.8204620000     -3.5104180000     -1.9429640000
H                  2.4298130000     -0.7490880000      1.7576910000
H                  2.7102860000     -1.1762940000      3.4544000000
H                  4.4454970000     -4.0728930000      4.9003330000
H                  2.8764240000     -3.2401080000      4.7488980000
H                  4.3758310000     -2.3127780000      4.7226640000
H                  0.8089330000     -2.8256980000      3.3045750000
H                  0.5753730000     -2.3585460000      1.6222080000
H                  0.0646520000     -0.0150480000      2.3380490000
H                  0.3295520000     -0.4546830000      4.0168570000
H                 -1.5882960000     -2.0762070000      3.8904380000
H                 -1.8590710000     -1.6202730000      2.2189380000
C                 -2.4093050000     -0.0932250000      3.6465670000
C                 -3.8860310000     -0.4821020000      3.7948920000
C                 -4.7864560000      0.6660520000      4.2687850000
C                 -6.2627370000      0.2781690000      4.4245420000
C                 -7.1580920000      1.4276290000      4.9042500000
H                 -2.3262950000      0.7407720000      2.9367850000
H                 -2.0418420000      0.2915150000      4.6077010000
H                 -3.9688620000     -1.3194730000      4.5006510000
H                 -4.2582340000     -0.8600790000      2.8334260000
H                 -4.7065200000      1.5030770000      3.5623600000
H                 -4.4114420000      1.0455420000      5.2287610000
H                 -6.3428680000     -0.5598320000      5.1297670000
H                 -6.6406410000     -0.0976880000      3.4644230000
H                 -7.0820810000      2.2661580000      4.1996670000
H                 -6.7812320000      1.8052610000      5.8638070000
C                 -8.6337720000      1.0385180000      5.0637380000
C                 -9.5249430000      2.1874170000      5.5447560000
H                 -8.7109150000      0.2000220000      5.7677610000
H                 -9.0126420000      0.6616510000      4.1050580000
H                 -9.2018480000      2.5634880000      6.5223120000
H                -10.5695820000      1.8743440000      5.6475780000
H                 -9.5065220000      3.0301440000      4.8441200000
$end
$rem
MAX_SCF_CYCLES=200
BASIS  =  6-311++G(d,p)
GUI  =  2
JOB_TYPE  =  SP
SCF_ALGORITHM = RCA_DIIS
SCF_CONVERGENCE = 8
scf_guess = GWH
THRESH = 14
METHOD  =  B3LYP
SOLVENT_METHOD = PCM
$end
$pcm
theory = CPCM
$end
$solvent
dielectric 37.219
opticaldielectric 1.43
$end

--------------------------------------------------------------

             Standard Nuclear Orientation (Angstroms)
    I     Atom           X                Y                Z
 ----------------------------------------------------------------
    1      C       5.8609810000    -5.7052300000     0.5066800000
    2      C       5.9821760000    -5.9211790000    -0.8547670000
    3      C       5.2425300000    -5.1246800000    -1.7597680000
    4      C       5.0116860000    -4.7034770000     1.0244650000
    5      C       4.2627870000    -3.8989000000     0.1085200000
    6      C       4.4028140000    -4.1371800000    -1.2755650000
    7      C       4.9172600000    -4.5084000000     2.4711670000
    8      C       4.0217820000    -3.4650750000     2.9063320000
    9      C       3.2938110000    -2.6700350000     2.0064700000
   10      C       3.3645660000    -2.8456840000     0.5786350000
   11      O       5.5947590000    -5.2265790000     3.2820220000
   12      O       2.6906030000    -2.1281170000    -0.2347860000
   13      H       6.6428080000    -6.7002170000    -1.2286610000
   14      C       2.3762550000    -1.5663810000     2.4856770000
   15      H       5.3335120000    -5.2892760000    -2.8310550000
   16      C       3.9166390000    -3.2593530000     4.4006370000
   17      C       0.8964130000    -1.9875910000     2.6009060000
   18      C      -0.0232260000    -0.8455740000     3.0513840000
   19      C      -1.5002490000    -1.2396070000     3.1841300000
   20      H       6.4151800000    -6.2986510000     1.2263950000
   21      H       3.8204620000    -3.5104180000    -1.9429640000
   22      H       2.4298130000    -0.7490880000     1.7576910000
   23      H       2.7102860000    -1.1762940000     3.4544000000
   24      H       4.4454970000    -4.0728930000     4.9003330000
   25      H       2.8764240000    -3.2401080000     4.7488980000
   26      H       4.3758310000    -2.3127780000     4.7226640000
   27      H       0.8089330000    -2.8256980000     3.3045750000
   28      H       0.5753730000    -2.3585460000     1.6222080000
   29      H       0.0646520000    -0.0150480000     2.3380490000
   30      H       0.3295520000    -0.4546830000     4.0168570000
   31      H      -1.5882960000    -2.0762070000     3.8904380000
   32      H      -1.8590710000    -1.6202730000     2.2189380000
   33      C      -2.4093050000    -0.0932250000     3.6465670000
   34      C      -3.8860310000    -0.4821020000     3.7948920000
   35      C      -4.7864560000     0.6660520000     4.2687850000
   36      C      -6.2627370000     0.2781690000     4.4245420000
   37      C      -7.1580920000     1.4276290000     4.9042500000
   38      H      -2.3262950000     0.7407720000     2.9367850000
   39      H      -2.0418420000     0.2915150000     4.6077010000
   40      H      -3.9688620000    -1.3194730000     4.5006510000
   41      H      -4.2582340000    -0.8600790000     2.8334260000
   42      H      -4.7065200000     1.5030770000     3.5623600000
   43      H      -4.4114420000     1.0455420000     5.2287610000
   44      H      -6.3428680000    -0.5598320000     5.1297670000
   45      H      -6.6406410000    -0.0976880000     3.4644230000
   46      H      -7.0820810000     2.2661580000     4.1996670000
   47      H      -6.7812320000     1.8052610000     5.8638070000
   48      C      -8.6337720000     1.0385180000     5.0637380000
   49      C      -9.5249430000     2.1874170000     5.5447560000
   50      H      -8.7109150000     0.2000220000     5.7677610000
   51      H      -9.0126420000     0.6616510000     4.1050580000
   52      H      -9.2018480000     2.5634880000     6.5223120000
   53      H     -10.5695820000     1.8743440000     5.6475780000
   54      H      -9.5065220000     3.0301440000     4.8441200000
 ----------------------------------------------------------------

   96   -1007.4033738026      9.27E-09 Convergence criterion met
 Total energy in the final basis set = -1007.40337380

                    Orbital Energies (a.u.)
 --------------------------------------------------------------

 Alpha MOs
 -- Occupied --
-19.0124 -19.0122 -10.1620 -10.1612 -10.1568 -10.1540 -10.1537 -10.1533
-10.1527 -10.1519 -10.1507 -10.1505 -10.1478 -10.1450 -10.1446 -10.1426
-10.1420 -10.1418 -10.1347 -10.1310 -10.1294 -10.1289 -10.1207 -10.1174
 -0.9371  -0.9340  -0.8219  -0.8049  -0.7920  -0.7784  -0.7615  -0.7370
 -0.7190  -0.7183  -0.7020  -0.6724  -0.6472  -0.6222  -0.6109  -0.5859
 -0.5704  -0.5673  -0.5635  -0.5602  -0.5449  -0.5146  -0.4802  -0.4762
 -0.4628  -0.4563  -0.4431  -0.4275  -0.4268  -0.4228  -0.4170  -0.4112
 -0.4002  -0.3977  -0.3959  -0.3864  -0.3848  -0.3759  -0.3683  -0.3668
 -0.3610  -0.3600  -0.3561  -0.3468  -0.3435  -0.3386  -0.3329  -0.3297
 -0.3248  -0.3195  -0.3182  -0.3148  -0.3136  -0.3127  -0.3116  -0.3095
 -0.3039  -0.3004  -0.2957  -0.2849  -0.2267  -0.2209  -0.1997  -0.1974
 -0.1871  -0.1017

          Ground-State Mulliken Net Atomic Charges

     Atom                 Charge (a.u.)
  ----------------------------------------
      1 C                     0.109083
      2 C                    -0.505528
      3 C                    -0.487630
      4 C                     0.157203
      5 C                    -0.155958
      6 C                    -0.013240
      7 C                    -0.664693
      8 C                     0.886201
      9 C                     0.928688
     10 C                    -0.842582
     11 O                    -0.714594
     12 O                    -0.697491
     13 H                     0.164623
     14 C                    -0.462802
     15 H                     0.165020
     16 C                    -0.567587
     17 C                    -1.010003
     18 C                    -0.333963
     19 C                    -0.097605
     20 H                     0.144899
     21 H                     0.141810
     22 H                     0.173716
     23 H                     0.166351
     24 H                     0.157158
     25 H                     0.143756
     26 H                     0.154062
     27 H                     0.127679
     28 H                     0.183386
     29 H                     0.121041
     30 H                     0.107250
     31 H                     0.130412
     32 H                     0.129190
     33 C                     0.035854
     34 C                     0.036079
     35 C                    -0.052656
     36 C                    -0.294257
     37 C                    -0.489488
     38 H                     0.135827
     39 H                     0.134749
     40 H                     0.133155
     41 H                     0.134458
     42 H                     0.133192
     43 H                     0.132917
     44 H                     0.131671
     45 H                     0.131827
     46 H                     0.129142
     47 H                     0.128361
     48 C                    -0.294626
     49 C                    -0.716834
     50 H                     0.135180
     51 H                     0.135486
     52 H                     0.144978
     53 H                     0.152269
     54 H                     0.144865
  ----------------------------------------
  Sum of atomic charges =    -2.000000

                    Cartesian Multipole Moments
 -----------------------------------------------------------------
    Charge (ESU x 10^10)
                -9.6064
    Dipole Moment (Debye)
         X     -40.7043      Y      36.5722      Z     -12.6650
       Tot      56.1673
    Quadrupole Moments (Debye-Ang)
        XX    -355.5479     XY     174.9636     YY    -323.6285
        XZ     -68.2294     YZ      63.6150     ZZ    -205.4561

 Total job time:  3197.54s(wall), 18914.23s(cpu)
        *  Thank you very much for using Q-Chem.  Have a nice day.  *
