 Gaussian 16, Revision A.03,
 Gaussian 16:  ES64L-G16RevA.03 25-Dec-2016

 ----------------------------------------------------------------------
 #P UB3LYP/6-311++G(d,p) nosym opt freq SCRF=(PCM,Solvent=n,n-DiMethylF
 ormamide)
 ----------------------------------------------------------------------

 -------
 Radical
 -------
 Symbolic Z-matrix:
 Charge = -1 Multiplicity = 2

 SCF Done:  E(UB3LYP) =  -653.384975814     A.U. after   17 cycles
 SCF Done:  E(UB3LYP) =  -653.385265992     A.U. after   14 cycles
 SCF Done:  E(UB3LYP) =  -653.385286097     A.U. after   13 cycles
 SCF Done:  E(UB3LYP) =  -653.385303019     A.U. after   12 cycles
 SCF Done:  E(UB3LYP) =  -653.385313692     A.U. after   12 cycles
 SCF Done:  E(UB3LYP) =  -653.385315034     A.U. after   10 cycles
 SCF Done:  E(UB3LYP) =  -653.385317567     A.U. after   10 cycles
 SCF Done:  E(UB3LYP) =  -653.385322994     A.U. after   12 cycles
 SCF Done:  E(UB3LYP) =  -653.385325862     A.U. after   10 cycles
 SCF Done:  E(UB3LYP) =  -653.385361896     A.U. after   12 cycles
 SCF Done:  E(UB3LYP) =  -653.385361942     A.U. after   10 cycles
 SCF Done:  E(UB3LYP) =  -653.385361966     A.U. after    9 cycles
 SCF Done:  E(UB3LYP) =  -653.385361944     A.U. after    8 cycles
 Optimization completed.
    -- Stationary point found.
 Normal termination of Gaussian 16 at Sun Feb 11 02:11:43 2024.

 ----------------------------------------------------------------------
 #P Geom=AllCheck Guess=TCheck SCRF=Check GenChk UB3LYP/6-311++G(d,p) F
 req
 ----------------------------------------------------------------------

 Structure from the checkpoint file:  "247-rad.chk"
 -------
 Radical
 -------
 Charge = -1 Multiplicity = 2

                          Input orientation:
 ---------------------------------------------------------------------
 Center     Atomic      Atomic             Coordinates (Angstroms)
 Number     Number       Type             X           Y           Z
 ---------------------------------------------------------------------
      1          6           0       -3.178269    1.385135    0.207973
      2          6           0       -2.411793    0.662368   -0.916551
      3          6           0       -1.045166    0.171867   -0.490105
      4          6           0       -0.859771   -1.113299    0.013912
      5          6           0       -2.015189   -2.078923    0.144863
      6          6           0        0.443964   -1.594649    0.417061
      7          8           0        0.625394   -2.773014    0.854866
      8          6           0        1.572341   -0.661318    0.301958
      9          6           0        2.867636   -1.062767    0.689769
     10          6           0        3.944122   -0.198455    0.590521
     11          6           0        3.753564    1.105188    0.094501
     12          6           0        2.490243    1.517211   -0.292531
     13          6           0        1.380930    0.651651   -0.198630
     14          6           0        0.049238    1.108687   -0.616682
     15          8           0       -0.117657    2.281910   -1.071823
     16          1           0       -4.151329    1.738688   -0.147440
     17          1           0       -2.613817    2.250138    0.564683
     18          1           0       -3.353072    0.723423    1.061248
     19          1           0       -3.014744   -0.171801   -1.283810
     20          1           0       -2.283079    1.358572   -1.748516
     21          1           0       -1.715764   -2.932641    0.751428
     22          1           0       -2.890820   -1.612831    0.602998
     23          1           0       -2.332007   -2.463372   -0.832572
     24          1           0        2.999185   -2.069170    1.068530
     25          1           0        4.933454   -0.523850    0.894241
     26          1           0        4.596027    1.784177    0.016213
     27          1           0        2.326381    2.517076   -0.676105
 ---------------------------------------------------------------------

 SCF Done:  E(UB3LYP) =  -653.385361944     A.U. after    1 cycles

 Alpha  occ. eigenvalues --  -19.06994 -19.06953 -10.21511 -10.21467 -10.17057
 Alpha  occ. eigenvalues --  -10.17008 -10.16920 -10.16868 -10.16740 -10.16738
 Alpha  occ. eigenvalues --  -10.16608 -10.16248 -10.15733 -10.15314 -10.15106
 Alpha  occ. eigenvalues --   -0.99203  -0.98925  -0.85451  -0.81574  -0.76267
 Alpha  occ. eigenvalues --   -0.74651  -0.74081  -0.69139  -0.65553  -0.62914
 Alpha  occ. eigenvalues --   -0.59419  -0.57633  -0.54753  -0.51106  -0.48732
 Alpha  occ. eigenvalues --   -0.46216  -0.45140  -0.43365  -0.42306  -0.42072
 Alpha  occ. eigenvalues --   -0.41214  -0.40579  -0.40253  -0.39410  -0.37781
 Alpha  occ. eigenvalues --   -0.37642  -0.36744  -0.36007  -0.35511  -0.34434
 Alpha  occ. eigenvalues --   -0.33839  -0.32733  -0.32632  -0.26431  -0.25372
 Alpha  occ. eigenvalues --   -0.24072  -0.23811  -0.23015  -0.14782
 Alpha virt. eigenvalues --   -0.03088  -0.01307  -0.00373   0.00504   0.01263
 Alpha virt. eigenvalues --    0.01960   0.02456   0.02537   0.04174   0.04637
 Alpha virt. eigenvalues --    0.04820   0.04971   0.05242   0.05924   0.06350

  Beta  occ. eigenvalues --  -19.06369 -19.06342 -10.21335 -10.21296 -10.17023
  Beta  occ. eigenvalues --  -10.16974 -10.16868 -10.16815 -10.16735 -10.16732
  Beta  occ. eigenvalues --  -10.16473 -10.16116 -10.15744 -10.15300 -10.15117
  Beta  occ. eigenvalues --   -0.98122  -0.97815  -0.85245  -0.81185  -0.76061
  Beta  occ. eigenvalues --   -0.74473  -0.73897  -0.68840  -0.64925  -0.62724
  Beta  occ. eigenvalues --   -0.59304  -0.57346  -0.54488  -0.50904  -0.48504
  Beta  occ. eigenvalues --   -0.45944  -0.45044  -0.43050  -0.42250  -0.41559
  Beta  occ. eigenvalues --   -0.40969  -0.40197  -0.39817  -0.38726  -0.37595
  Beta  occ. eigenvalues --   -0.37060  -0.36626  -0.35457  -0.34146  -0.33751
  Beta  occ. eigenvalues --   -0.33197  -0.32532  -0.32426  -0.24714  -0.24229
  Beta  occ. eigenvalues --   -0.23498  -0.22789  -0.22421
  Beta virt. eigenvalues --   -0.08177  -0.02379  -0.00540  -0.00117   0.00547
  Beta virt. eigenvalues --    0.01301   0.02003   0.02471   0.02550   0.04212
  Beta virt. eigenvalues --    0.04720   0.04921   0.04997   0.05375   0.06354

 Mulliken charges and spin densities:
               1          2
     1  C   -0.660765   0.008923
     2  C   -0.313425  -0.008652
     3  C    0.592400   0.080847
     4  C    0.633672   0.080491
     5  C   -0.524850  -0.002557
     6  C   -0.872939   0.097720
     7  O   -0.481814   0.229581
     8  C    0.628248   0.028099
     9  C    0.132921   0.032488
    10  C   -0.392190   0.025114
    11  C   -0.435682   0.027434
    12  C    0.063914   0.036540
    13  C    0.042771   0.026405
    14  C   -0.879188   0.107017
    15  O   -0.477345   0.226556
    16  H    0.133604   0.002164
    17  H    0.163276  -0.000551
    18  H    0.125537  -0.001151
    19  H    0.159152   0.001471
    20  H    0.174869   0.001685
    21  H    0.173961  -0.000818
    22  H    0.155591   0.003522
    23  H    0.174370   0.006467
    24  H    0.165013  -0.002231
    25  H    0.176666  -0.002134
    26  H    0.174565  -0.002169
    27  H    0.167664  -0.002261
 Sum of Mulliken charges =  -1.00000   1.00000

 Dipole moment (field-independent basis, Debye):
    X=             -2.2029    Y=              1.0065    Z=              0.3504  Tot=              2.4472
 Quadrupole moment (field-independent basis, Debye-Ang):
   XX=            -90.5843   YY=           -125.1504   ZZ=            -99.5164
   XY=              6.3242   XZ=             -0.3790   YZ=             11.3705

  Exact polarizability: 325.681   6.330 302.913  28.458 -54.400 161.534
 Approx polarizability: 333.501   3.729 351.555  31.135 -67.437 184.533

                      1                      2                      3
                      A                      A                      A
 Frequencies --     55.5846                71.0886                83.2869
 Red. masses --      4.2197                 2.6441                 1.4542
 Frc consts  --      0.0077                 0.0079                 0.0059
 IR Inten    --     13.4547                 0.8851                 3.3864

                      4                      5                      6
                      A                      A                      A
 Frequencies --    105.9472               134.6244               169.0985
 Red. masses --      2.0551                 4.4666                 4.9459
 Frc consts  --      0.0136                 0.0477                 0.0833
 IR Inten    --      3.2155                 0.3665                 1.9693

                      7                      8                      9
                      A                      A                      A
 Frequencies --    211.2305               218.7819               261.5523
 Red. masses --      1.5630                 2.1317                 3.3114
 Frc consts  --      0.0411                 0.0601                 0.1335
 IR Inten    --      0.9913                 1.2725                 8.6891

                     10                     11                     12
                      A                      A                      A
 Frequencies --    326.0079               343.7818               348.8625
 Red. masses --      4.1798                 2.2023                 3.7659
 Frc consts  --      0.2617                 0.1533                 0.2700
 IR Inten    --      0.4833                 0.5303                 2.7777

                     13                     14                     15
                      A                      A                      A
 Frequencies --    386.0064               417.0913               426.5011
 Red. masses --      8.6458                 6.1301                 6.1302
 Frc consts  --      0.7590                 0.6283                 0.6570
 IR Inten    --     26.8372                 4.6141                 4.2280

                     16                     17                     18
                      A                      A                      A
 Frequencies --    440.6901               467.9983               517.5892
 Red. masses --      3.6563                 4.3965                 8.2800
 Frc consts  --      0.4184                 0.5673                 1.3069
 IR Inten    --      1.6446                 2.0464                 0.1541

                     19                     20                     21
                      A                      A                      A
 Frequencies --    561.3678               613.5363               667.2631
 Red. masses --      4.6087                 4.6811                 5.4708
 Frc consts  --      0.8557                 1.0382                 1.4351
 IR Inten    --      6.2087                34.3743                 4.3319

                     22                     23                     24
                      A                      A                      A
 Frequencies --    673.4212               692.6766               716.7983
 Red. masses --      3.5300                 3.7502                 2.9851
 Frc consts  --      0.9432                 1.0601                 0.9036
 IR Inten    --      1.1386                30.9656                65.6043

                     25                     26                     27
                      A                      A                      A
 Frequencies --    771.8909               788.0123               798.2674
 Red. masses --      1.5690                 1.7959                 4.6979
 Frc consts  --      0.5508                 0.6570                 1.7638
 IR Inten    --      1.1437                43.7356                 1.0961

                     28                     29                     30
                      A                      A                      A
 Frequencies --    842.9631               879.2829               887.6685
 Red. masses --      2.6874                 3.0351                 1.4531
 Frc consts  --      1.1251                 1.3825                 0.6746
 IR Inten    --     16.5743                24.0695                 0.0079

                     31                     32                     33
                      A                      A                      A
 Frequencies --    955.5823               985.8130               998.1110
 Red. masses --      3.1417                 1.3684                 2.5287
 Frc consts  --      1.6902                 0.7835                 1.4842
 IR Inten    --     16.3480                 3.0191                 6.7322

                     34                     35                     36
                      A                      A                      A
 Frequencies --    999.9560              1033.1617              1037.4205
 Red. masses --      1.2818                 2.0722                 1.5653
 Frc consts  --      0.7552                 1.3032                 0.9925
 IR Inten    --      0.0417                25.9588                10.1643

                     37                     38                     39
                      A                      A                      A
 Frequencies --   1048.4592              1074.5813              1105.7116
 Red. masses --      1.7747                 1.8798                 2.2058
 Frc consts  --      1.1494                 1.2789                 1.5889
 IR Inten    --      4.1524                20.8292                 1.9137

                     40                     41                     42
                      A                      A                      A
 Frequencies --   1125.4047              1148.0052              1183.1337
 Red. masses --      1.9442                 1.4671                 2.3971
 Frc consts  --      1.4508                 1.1392                 1.9770
 IR Inten    --     81.3554                 3.1309                 1.3167

                     43                     44                     45
                      A                      A                      A
 Frequencies --   1206.5814              1242.9872              1270.9502
 Red. masses --      1.9656                 3.4724                 2.1188
 Frc consts  --      1.6860                 3.1609                 2.0165
 IR Inten    --     12.4265                14.1280               128.7663

                     46                     47                     48
                      A                      A                      A
 Frequencies --   1297.3865              1343.5650              1355.3339
 Red. masses --      1.3303                 1.4599                10.1524
 Frc consts  --      1.3193                 1.5527                10.9878
 IR Inten    --      1.0742                15.4903                 5.4019

                     49                     50                     51
                      A                      A                      A
 Frequencies --   1380.0819              1393.6287              1408.6726
 Red. masses --      1.3490                 1.2725                 2.4248
 Frc consts  --      1.5138                 1.4562                 2.8350
 IR Inten    --     21.2479                37.9732               219.4989

                     52                     53                     54
                      A                      A                      A
 Frequencies --   1448.4989              1465.7225              1474.0757
 Red. masses --      2.0966                 2.7035                 1.3283
 Frc consts  --      2.5918                 3.4220                 1.7005
 IR Inten    --    673.9465               100.6241                19.2449

                     55                     56                     57
                      A                      A                      A
 Frequencies --   1475.8470              1484.9256              1488.3065
 Red. masses --      1.7268                 1.0918                 1.1421
 Frc consts  --      2.2160                 1.4184                 1.4905
 IR Inten    --    140.8947                21.5099                 7.9829

                     58                     59                     60
                      A                      A                      A
 Frequencies --   1494.1784              1496.9269              1503.6893
 Red. masses --      2.5715                 1.3034                 2.2446
 Frc consts  --      3.3825                 1.7208                 2.9902
 IR Inten    --     48.3993               132.4439               543.5530

                     61                     62                     63
                      A                      A                      A
 Frequencies --   1542.5699              1608.3463              1626.6365
 Red. masses --      4.6521                 7.7402                 5.8931
 Frc consts  --      6.5222                11.7967                 9.1871
 IR Inten    --     21.6965                 5.4815                 2.3096

                     64                     65                     66
                      A                      A                      A
 Frequencies --   3006.7265              3016.8519              3040.5098
 Red. masses --      1.0507                 1.0352                 1.0604
 Frc consts  --      5.5966                 5.5512                 5.7761
 IR Inten    --     78.4981                84.0783                60.3406

                     67                     68                     69
                      A                      A                      A
 Frequencies --   3066.1136              3069.9680              3078.6636
 Red. masses --      1.0878                 1.0999                 1.1000
 Frc consts  --      6.0253                 6.1077                 6.1426
 IR Inten    --     40.9126                28.7275                82.6272

                     70                     71                     72
                      A                      A                      A
 Frequencies --   3095.0703              3121.1362              3156.6434
 Red. masses --      1.1034                 1.0979                 1.0860
 Frc consts  --      6.2276                 6.3015                 6.3755
 IR Inten    --     74.0039                12.5603                10.8091

                     73                     74                     75
                      A                      A                      A
 Frequencies --   3171.1478              3188.5938              3192.1328
 Red. masses --      1.0907                 1.0916                 1.0937
 Frc consts  --      6.4623                 6.5389                 6.5662
 IR Inten    --     26.7111                19.7245                34.2369

 - Thermochemistry -
 -------------------
 Temperature   298.150 Kelvin.  Pressure   1.00000 Atm.
 Atom     1 has atomic number  6 and mass  12.00000

 Molecular mass:   200.08373 amu.
 Principal axes and moments of inertia in atomic units:
                           1         2         3
     Eigenvalues --  1851.362603500.641405162.30843
           X            0.99375   0.05418  -0.09756
           Y           -0.02470   0.95934   0.28117
           Z            0.10882  -0.27701   0.95469
 This molecule is an asymmetric top.
 Rotational symmetry number  1.
 Warning -- assumption of classical behavior for rotation
           may cause significant error
 Rotational temperatures (Kelvin)      0.04678     0.02474     0.01678
 Rotational constants (GHZ):           0.97482     0.51555     0.34960
 Zero-point vibrational energy     560968.9 (Joules/Mol)
                                  134.07479 (Kcal/Mol)
 Warning -- explicit consideration of  20 degrees of freedom as
           vibrations may cause significant error
 Vibrational temperatures:     79.97   102.28   119.83   152.43   193.69
          (Kelvin)            243.30   303.91   314.78   376.32   469.05
                              494.63   501.94   555.38   600.10   613.64
                              634.05   673.35   744.70   807.68   882.74
                              960.04   968.90   996.61  1031.31  1110.58
                             1133.77  1148.53  1212.84  1265.09  1277.16
                             1374.87  1418.37  1436.06  1438.71  1486.49
                             1492.62  1508.50  1546.08  1590.87  1619.21
                             1651.72  1702.27  1736.00  1788.38  1828.61
                             1866.65  1933.09  1950.02  1985.63  2005.12
                             2026.77  2084.07  2108.85  2120.87  2123.41
                             2136.48  2141.34  2149.79  2153.74  2163.47
                             2219.41  2314.05  2340.37  4326.01  4340.58
                             4374.62  4411.45  4417.00  4429.51  4453.12
                             4490.62  4541.71  4562.57  4587.68  4592.77

 Zero-point correction=                           0.213662 (Hartree/Particle)
 Thermal correction to Energy=                    0.226933
 Thermal correction to Enthalpy=                  0.227878
 Thermal correction to Gibbs Free Energy=         0.173151
 Sum of electronic and zero-point Energies=           -653.171700
 Sum of electronic and thermal Energies=              -653.158429
 Sum of electronic and thermal Enthalpies=            -653.157484
 Sum of electronic and thermal Free Energies=         -653.212211

                     E (Thermal)             CV                S
                      KCal/Mol        Cal/Mol-Kelvin    Cal/Mol-Kelvin
 Total                  142.403             51.252            115.182
 Electronic               0.000              0.000              1.377
 Translational            0.889              2.981             41.785
 Rotational               0.889              2.981             31.881
 Vibrational            140.625             45.291             40.138
 Vibration     1          0.596              1.975              4.608
 Vibration     2          0.598              1.968              4.123
 Vibration     3          0.600              1.961              3.812
 Vibration     4          0.605              1.944              3.342
 Vibration     5          0.613              1.919              2.879
 Vibration     6          0.625              1.881              2.445
 Vibration     7          0.643              1.824              2.033
 Vibration     8          0.647              1.812              1.969
 Vibration     9          0.669              1.743              1.651
 Vibration    10          0.710              1.623              1.280
 Vibration    11          0.723              1.588              1.195
 Vibration    12          0.726              1.578              1.171
 Vibration    13          0.755              1.500              1.016
 Vibration    14          0.780              1.433              0.902
 Vibration    15          0.788              1.413              0.870
 Vibration    16          0.801              1.381              0.824
 Vibration    17          0.825              1.321              0.743
 Vibration    18          0.873              1.211              0.616
 Vibration    19          0.917              1.115              0.521
 Vibration    20          0.973              1.003              0.427

 Optimization completed.
    -- Stationary point found.
 Normal termination of Gaussian 16 at Sun Feb 11 03:01:34 2024.
