 Q-Chem 5.4, Q-Chem, Inc., Pleasanton, CA (2021)
 Q-Chem 5.4.0 for Intel X86 EM64T Linux

User input:
--------------------------------------------------------------
$molecule
0 1
O                  4.8779150000     -0.8658900000      0.0204230000
C                  3.6693760000     -0.2569790000      0.0587780000
C                  3.5809960000      1.1264500000      0.1256060000
C                  2.3346340000      1.7513520000      0.1650540000
C                  1.1629710000      1.0038190000      0.1383820000
C                 -0.1481380000      1.7094400000      0.1822550000
O                 -0.1868490000      2.9276600000      0.2402270000
C                 -1.3836920000      0.8702580000      0.1514550000
C                 -2.6574790000      1.4527590000      0.1886600000
O                 -2.8035210000      2.7989890000      0.2537900000
C                 -3.8011140000      0.6287000000      0.1579620000
C                 -3.7061100000     -0.7403080000      0.0921200000
C                 -2.4456080000     -1.3583440000      0.0532990000
O                 -2.4269950000     -2.6969130000     -0.0105110000
C                 -1.2826620000     -0.5558030000      0.0827590000
C                  0.0232620000     -1.2109510000      0.0415150000
O                  0.1077690000     -2.4688240000     -0.0192980000
C                  1.2363210000     -0.4065740000      0.0704160000
C                  2.4943830000     -1.0340520000      0.0306190000
O                  2.6767160000     -2.3691930000     -0.0346940000
H                  4.7363730000     -1.8225110000     -0.0239740000
H                  4.4975860000      1.7038080000      0.1461890000
H                  2.2575250000      2.8294890000      0.2171760000
H                 -3.7427430000      3.0148250000      0.2707530000
H                 -4.7818470000      1.0955290000      0.1874930000
H                 -4.5886580000     -1.3673000000      0.0688680000
H                 -1.4814490000     -2.9760640000     -0.0308210000
H                  1.7810380000     -2.7833740000     -0.0476460000
$end
$rem
MAX_SCF_CYCLES=200
BASIS  =  6-311++G(d,p)
GUI  =  2
JOB_TYPE  =  SP
METHOD  =  B3LYP
SOLVENT_METHOD = COSMO
$end
$solvent
dielectric 37.219
opticaldielectric 1.43
$end

--------------------------------------------------------------

             Standard Nuclear Orientation (Angstroms)
    I     Atom           X                Y                Z
 ----------------------------------------------------------------
    1      O       4.8698456857    -0.1433274842    -0.0001673881
    2      C       3.5861797379     0.2868026766    -0.0000912532
    3      C       3.2997746816     1.6447882841     0.0001024328
    4      C       1.9763748117     2.0853443644     0.0002196959
    5      C       0.9242577120     1.1768506794     0.0002223328
    6      C      -0.4748312934     1.6881065461     0.0004206161
    7      O      -0.6883133173     2.8894992897     0.0000157421
    8      C      -1.5769997857     0.6796456838     0.0001762027
    9      C      -2.9214392144     1.0742435456    -0.0001373330
   10      O      -3.2595587315     2.3870956159    -0.0003089106
   11      C      -3.9348101822     0.0939395765    -0.0002975035
   12      C      -3.6439279790    -1.2487932163    -0.0001424599
   13      C      -2.3075267514    -1.6805020695     0.0001476506
   14      O      -2.0966266110    -3.0040224643     0.0002989157
   15      C      -1.2719483221    -0.7187533211     0.0002435777
   16      C       0.1147485786    -1.1807372694     0.0002280025
   17      O       0.3792660457    -2.4148825647     0.0000335422
   18      C       1.1996642380    -0.2100015960     0.0000611637
   19      C       2.5350161274    -0.6514398188    -0.0001925963
   20      O       2.9074649877    -1.9481257402    -0.0004545068
   21      H       4.8673162021    -1.1113783890    -0.0000387494
   22      H       4.1239123267     2.3481376178     0.0001723428
   23      H       1.7450254830     3.1424722483     0.0003491227
   24      H      -4.2201472364     2.4663442614    -0.0008226294
   25      H      -4.9725784969     0.4159263534    -0.0005277979
   26      H      -4.4272360635    -1.9964422169    -0.0002544302
   27      H      -1.1206706949    -3.1451075804     0.0005330233
   28      H       2.0805598524    -2.4868099042    -0.0005132093
 ----------------------------------------------------------------

    9    -989.9586999725      7.33e-06  Convergence criterion met
 Total energy in the final basis set =     -989.9586999725
    5    -989.9847621911      3.63e-06  Convergence criterion met
 Total energy in the final basis set =     -989.9847621911

                    Orbital Energies (a.u.)
 --------------------------------------------------------------

 Alpha MOs
 -- Occupied --
-19.1748 -19.1732 -19.1716 -19.1655 -19.1487 -19.1203 -10.2960 -10.2796
-10.2687 -10.2680 -10.2667 -10.2607 -10.2145 -10.2124 -10.2122 -10.2059
-10.2037 -10.2006 -10.1975 -10.1947  -1.1076  -1.0946  -1.0885  -1.0784
 -1.0595  -1.0573  -0.8941  -0.8782  -0.8182  -0.7808  -0.7729  -0.7663
 -0.7010  -0.6810  -0.6759  -0.6337  -0.6234  -0.5910  -0.5830  -0.5651
 -0.5541  -0.5302  -0.5231  -0.5105  -0.4935  -0.4810  -0.4767  -0.4669
 -0.4604  -0.4553  -0.4494  -0.4345  -0.4344  -0.4241  -0.4208  -0.4160
 -0.4073  -0.4010  -0.3916  -0.3877  -0.3837  -0.3827  -0.3502  -0.3366
 -0.3021  -0.2944  -0.2725  -0.2702  -0.2436  -0.2342

          Ground-State Mulliken Net Atomic Charges

     Atom                 Charge (a.u.)
  ----------------------------------------
      1 O                    -0.287722
      2 C                    -0.316469
      3 C                    -0.008434
      4 C                     0.007775
      5 C                     0.286121
      6 C                    -0.460916
      7 O                    -0.324045
      8 C                     0.149427
      9 C                    -0.167121
     10 O                    -0.237410
     11 C                    -0.179079
     12 C                    -0.121980
     13 C                    -0.163094
     14 O                    -0.355823
     15 C                     0.617401
     16 C                    -0.500458
     17 O                    -0.413436
     18 C                     0.505888
     19 C                    -0.018602
     20 O                    -0.413845
     21 H                     0.334932
     22 H                     0.255378
     23 H                     0.199810
     24 H                     0.324458
     25 H                     0.227655
     26 H                     0.247793
     27 H                     0.395079
     28 H                     0.416714
  ----------------------------------------
  Sum of atomic charges =     0.000000

                    Cartesian Multipole Moments
 -----------------------------------------------------------------
    Charge (ESU x 10^10)
                 0.0000
    Dipole Moment (Debye)
         X      -3.6381      Y      -1.8385      Z      -0.0000
       Tot       4.0762
    Quadrupole Moments (Debye-Ang)
        XX     -83.5684     XY      -4.2490     YY    -128.0868
        XZ       0.0105     YZ      -0.0011     ZZ    -115.6913

 Total job time:  67.05s(wall), 492.76s(cpu)
        *  Thank you very much for using Q-Chem.  Have a nice day.  *
