 Gaussian 16, Revision A.03,
 Gaussian 16:  ES64L-G16RevA.03 25-Dec-2016

 --------------------------------------
 #P UB3LYP/6-311++G(d,p) nosym opt freq
 --------------------------------------

 --------
 Oxidized
 --------
 Symbolic Z-matrix:
 Charge =  0 Multiplicity = 1

 SCF Done:  E(UB3LYP) =  -989.958543377     A.U. after   16 cycles
 SCF Done:  E(UB3LYP) =  -989.958543737     A.U. after    9 cycles
 SCF Done:  E(UB3LYP) =  -989.958543933     A.U. after    9 cycles
 SCF Done:  E(UB3LYP) =  -989.958544127     A.U. after    8 cycles
 Optimization completed.
    -- Stationary point found.
 Normal termination of Gaussian 16 at Sun Jan  7 06:52:27 2024.

 ----------------------------------------------------------------------
 #P Geom=AllCheck Guess=TCheck SCRF=Check GenChk UB3LYP/6-311++G(d,p) F
 req
 ----------------------------------------------------------------------

 Structure from the checkpoint file:  "204.chk"
 --------
 Oxidized
 --------
 Charge =  0 Multiplicity = 1

                          Input orientation:
 ---------------------------------------------------------------------
 Center     Atomic      Atomic             Coordinates (Angstroms)
 Number     Number       Type             X           Y           Z
 ---------------------------------------------------------------------
      1          8           0        4.877915   -0.865890    0.020423
      2          6           0        3.669376   -0.256979    0.058778
      3          6           0        3.580996    1.126450    0.125606
      4          6           0        2.334634    1.751352    0.165054
      5          6           0        1.162971    1.003819    0.138382
      6          6           0       -0.148138    1.709440    0.182255
      7          8           0       -0.186849    2.927660    0.240227
      8          6           0       -1.383692    0.870258    0.151455
      9          6           0       -2.657479    1.452759    0.188660
     10          8           0       -2.803521    2.798989    0.253790
     11          6           0       -3.801114    0.628700    0.157962
     12          6           0       -3.706110   -0.740308    0.092120
     13          6           0       -2.445608   -1.358344    0.053299
     14          8           0       -2.426995   -2.696913   -0.010511
     15          6           0       -1.282662   -0.555803    0.082759
     16          6           0        0.023262   -1.210951    0.041515
     17          8           0        0.107769   -2.468824   -0.019298
     18          6           0        1.236321   -0.406574    0.070416
     19          6           0        2.494383   -1.034052    0.030619
     20          8           0        2.676716   -2.369193   -0.034694
     21          1           0        4.736373   -1.822511   -0.023974
     22          1           0        4.497586    1.703808    0.146189
     23          1           0        2.257525    2.829489    0.217176
     24          1           0       -3.742743    3.014825    0.270753
     25          1           0       -4.781847    1.095529    0.187493
     26          1           0       -4.588658   -1.367300    0.068868
     27          1           0       -1.481449   -2.976064   -0.030821
     28          1           0        1.781038   -2.783374   -0.047646
 ---------------------------------------------------------------------

 SCF Done:  E(UB3LYP) =  -989.958544127     A.U. after    1 cycles

 Alpha  occ. eigenvalues --  -19.17759 -19.17660 -19.17567 -19.16558 -19.15344
 Alpha  occ. eigenvalues --  -19.11346 -10.30016 -10.27366 -10.27288 -10.27194
 Alpha  occ. eigenvalues --  -10.27097 -10.26239 -10.21960 -10.21777 -10.21668
 Alpha  occ. eigenvalues --  -10.21495 -10.20996 -10.20466 -10.20133 -10.19617
 Alpha  occ. eigenvalues --   -1.11068  -1.09670  -1.09473  -1.08040  -1.06281
 Alpha  occ. eigenvalues --   -1.04917  -0.89792  -0.88258  -0.82367  -0.78532
 Alpha  occ. eigenvalues --   -0.77603  -0.77029  -0.70564  -0.68444  -0.68066
 Alpha  occ. eigenvalues --   -0.63803  -0.62812  -0.59722  -0.58628  -0.56773
 Alpha  occ. eigenvalues --   -0.55947  -0.53235  -0.52709  -0.51290  -0.49864
 Alpha  occ. eigenvalues --   -0.48546  -0.47999  -0.47053  -0.46732  -0.45806
 Alpha  occ. eigenvalues --   -0.44262  -0.43698  -0.43630  -0.42724  -0.42100
 Alpha  occ. eigenvalues --   -0.41886  -0.40673  -0.40324  -0.39321  -0.38931
 Alpha  occ. eigenvalues --   -0.38711  -0.38376  -0.34940  -0.33980  -0.30521
 Alpha  occ. eigenvalues --   -0.30024  -0.27585  -0.26275  -0.24380  -0.23760
 Alpha virt. eigenvalues --   -0.12376  -0.06590  -0.04355  -0.02331  -0.01286
 Alpha virt. eigenvalues --   -0.01067   0.00243   0.00816   0.01032   0.02687
 Alpha virt. eigenvalues --    0.03069   0.03502   0.04123   0.04237   0.04483

  Beta  occ. eigenvalues --  -19.17759 -19.17660 -19.17567 -19.16558 -19.15344
  Beta  occ. eigenvalues --  -19.11346 -10.30016 -10.27366 -10.27288 -10.27194
  Beta  occ. eigenvalues --  -10.27097 -10.26239 -10.21960 -10.21777 -10.21668
  Beta  occ. eigenvalues --  -10.21495 -10.20996 -10.20466 -10.20133 -10.19617
  Beta  occ. eigenvalues --   -1.11068  -1.09670  -1.09473  -1.08040  -1.06281
  Beta  occ. eigenvalues --   -1.04917  -0.89792  -0.88258  -0.82367  -0.78532
  Beta  occ. eigenvalues --   -0.77603  -0.77029  -0.70564  -0.68444  -0.68066
  Beta  occ. eigenvalues --   -0.63803  -0.62812  -0.59722  -0.58628  -0.56773
  Beta  occ. eigenvalues --   -0.55947  -0.53235  -0.52709  -0.51290  -0.49864
  Beta  occ. eigenvalues --   -0.48546  -0.47999  -0.47053  -0.46732  -0.45806
  Beta  occ. eigenvalues --   -0.44262  -0.43698  -0.43630  -0.42724  -0.42100
  Beta  occ. eigenvalues --   -0.41886  -0.40673  -0.40324  -0.39321  -0.38931
  Beta  occ. eigenvalues --   -0.38711  -0.38376  -0.34940  -0.33980  -0.30521
  Beta  occ. eigenvalues --   -0.30024  -0.27585  -0.26275  -0.24380  -0.23760
  Beta virt. eigenvalues --   -0.12376  -0.06590  -0.04355  -0.02331  -0.01286
  Beta virt. eigenvalues --   -0.01067   0.00243   0.00816   0.01032   0.02687
  Beta virt. eigenvalues --    0.03069   0.03502   0.04123   0.04237   0.04483

 Mulliken charges and spin densities:
               1          2
     1  O   -0.234875   0.000000
     2  C   -0.345903   0.000000
     3  C    0.088960  -0.000000
     4  C    0.053806  -0.000000
     5  C    0.319727  -0.000000
     6  C   -0.571692   0.000000
     7  O   -0.214020  -0.000000
     8  C    0.194171   0.000000
     9  C   -0.155894  -0.000000
    10  O   -0.158916  -0.000000
    11  C   -0.165494   0.000000
    12  C   -0.056238   0.000000
    13  C   -0.229656   0.000000
    14  O   -0.297214   0.000000
    15  C    0.589262   0.000000
    16  C   -0.513087  -0.000000
    17  O   -0.389010   0.000000
    18  C    0.482629  -0.000000
    19  C   -0.073655  -0.000000
    20  O   -0.381324  -0.000000
    21  H    0.294085  -0.000000
    22  H    0.213985   0.000000
    23  H    0.186326   0.000000
    24  H    0.262524   0.000000
    25  H    0.146299   0.000000
    26  H    0.205486   0.000000
    27  H    0.364678  -0.000000
    28  H    0.385037  -0.000000
 Sum of Mulliken charges =  -0.00000  -0.00000

 Dipole moment (field-independent basis, Debye):
    X=             -2.7200    Y=             -0.5536    Z=             -0.0056  Tot=              2.7758
 Quadrupole moment (field-independent basis, Debye-Ang):
   XX=            -93.7259   YY=           -122.3577   ZZ=           -115.6083
   XY=             -8.2210   XZ=             -0.8216   YZ=             -0.3171

  Exact polarizability: 311.868  -7.843 215.040  -2.095   6.191  86.724
 Approx polarizability: 488.413 -16.275 416.495  -3.436  13.318 140.464

                      1                      2                      3
                      A                      A                      A
 Frequencies --     32.3313                61.8153                96.3655
 Red. masses --      8.0863                 7.4046                 8.4930
 Frc consts  --      0.0050                 0.0167                 0.0465
 IR Inten    --      4.3498                 0.0023                 1.3247

                      4                      5                      6
                      A                      A                      A
 Frequencies --    124.6406               148.4678               183.0389
 Red. masses --      7.8811                 9.3611                 7.0079
 Frc consts  --      0.0721                 0.1216                 0.1383
 IR Inten    --      0.7285                 0.6930                 0.5697

                      7                      8                      9
                      A                      A                      A
 Frequencies --    188.3790               254.9991               273.1612
 Red. masses --      6.3570                 5.0010                 7.6239
 Frc consts  --      0.1329                 0.1916                 0.3352
 IR Inten    --      0.8233                 4.8341                 4.5490

                     10                     11                     12
                      A                      A                      A
 Frequencies --    312.0139               312.4518               334.0236
 Red. masses --      7.5324                 1.3802                 3.7396
 Frc consts  --      0.4320                 0.0794                 0.2458
 IR Inten    --      1.2189                73.4346                 7.6506

                     13                     14                     15
                      A                      A                      A
 Frequencies --    348.0900               362.4473               364.1871
 Red. masses --      5.5537                 5.1505                11.8279
 Frc consts  --      0.3965                 0.3986                 0.9243
 IR Inten    --      2.6331                 5.9763                 5.9063

                     16                     17                     18
                      A                      A                      A
 Frequencies --    415.9232               444.1235               453.3503
 Red. masses --      6.4227                 3.0511                10.9198
 Frc consts  --      0.6546                 0.3546                 1.3223
 IR Inten    --     12.8679                33.3593                 2.9071

                     19                     20                     21
                      A                      A                      A
 Frequencies --    455.2061               463.1048               472.6157
 Red. masses --      1.5174                10.1300                 8.0273
 Frc consts  --      0.1853                 1.2800                 1.0564
 IR Inten    --     92.8625                28.7916                 3.1751

                     22                     23                     24
                      A                      A                      A
 Frequencies --    485.6744               493.1013               520.9527
 Red. masses --      7.7903                 3.5453                 6.6816
 Frc consts  --      1.0827                 0.5079                 1.0684
 IR Inten    --      1.9149                 8.7260                 1.9351

                     25                     26                     27
                      A                      A                      A
 Frequencies --    561.8136               586.7661               591.2050
 Red. masses --      4.9073                 3.8038                 5.9700
 Frc consts  --      0.9126                 0.7716                 1.2294
 IR Inten    --      2.2336                13.9426                 6.9029

                     28                     29                     30
                      A                      A                      A
 Frequencies --    635.8761               676.1438               700.9874
 Red. masses --      5.9997                 6.3790                 8.3584
 Frc consts  --      1.4293                 1.7182                 2.4199
 IR Inten    --     27.4798                 6.0838                 2.2303

                     31                     32                     33
                      A                      A                      A
 Frequencies --    710.4163               743.5691               744.6294
 Red. masses --      6.6268                 7.3784                 1.0787
 Frc consts  --      1.9705                 2.4036                 0.3524
 IR Inten    --      0.9742                13.9332                53.3869

                     34                     35                     36
                      A                      A                      A
 Frequencies --    755.1212               771.4035               783.6190
 Red. masses --      6.4003                 2.4297                 1.5232
 Frc consts  --      2.1502                 0.8518                 0.5511
 IR Inten    --      0.1187                14.1005               119.7836

                     37                     38                     39
                      A                      A                      A
 Frequencies --    817.4643               835.9555               864.1677
 Red. masses --      8.8132                 1.6284                 1.5170
 Frc consts  --      3.4699                 0.6705                 0.6675
 IR Inten    --     83.1727                31.6371                16.2818

                     40                     41                     42
                      A                      A                      A
 Frequencies --    864.6624               943.0166               950.0855
 Red. masses --      8.3935                 6.4374                 1.2912
 Frc consts  --      3.6973                 3.3728                 0.6867
 IR Inten    --      7.4263                51.9941                 0.1761

                     43                     44                     45
                      A                      A                      A
 Frequencies --    980.2521               985.4521              1042.3816
 Red. masses --      1.3104                 6.9730                 3.1301
 Frc consts  --      0.7419                 3.9897                 2.0038
 IR Inten    --      0.0569                 7.7765                22.3742

                     46                     47                     48
                      A                      A                      A
 Frequencies --   1107.3436              1168.6906              1186.1759
 Red. masses --      2.4151                 1.6953                 1.3349
 Frc consts  --      1.7448                 1.3643                 1.1066
 IR Inten    --     79.0321                 2.9585               146.7109

                     49                     50                     51
                      A                      A                      A
 Frequencies --   1203.6520              1234.5604              1236.8254
 Red. masses --      1.5878                 1.6773                 2.1316
 Frc consts  --      1.3554                 1.5062                 1.9212
 IR Inten    --    104.1060                70.4958                99.4046

                     52                     53                     54
                      A                      A                      A
 Frequencies --   1275.8726              1301.6598              1306.5679
 Red. masses --      4.9572                 3.0215                 3.8019
 Frc consts  --      4.7545                 3.0163                 3.8240
 IR Inten    --    681.1261               333.4741               238.4197

                     55                     56                     57
                      A                      A                      A
 Frequencies --   1318.2064              1339.9061              1347.8978
 Red. masses --      3.9962                 2.5645                 2.6999
 Frc consts  --      4.0913                 2.7127                 2.8900
 IR Inten    --    377.9773                 0.8556               126.3337

                     58                     59                     60
                      A                      A                      A
 Frequencies --   1402.6263              1412.0496              1428.5442
 Red. masses --      4.3678                 4.2454                 2.8293
 Frc consts  --      5.0628                 4.9873                 3.4019
 IR Inten    --      4.2923               116.2934                 6.0929

                     61                     62                     63
                      A                      A                      A
 Frequencies --   1467.8983              1479.8829              1495.3007
 Red. masses --      4.0153                 3.2296                 2.6626
 Frc consts  --      5.0975                 4.1673                 3.5076
 IR Inten    --    162.3465               173.2158               500.6921

                     64                     65                     66
                      A                      A                      A
 Frequencies --   1516.9300              1600.5778              1615.5067
 Red. masses --      3.8890                 5.0135                 4.3195
 Frc consts  --      5.2725                 7.5673                 6.6421
 IR Inten    --     18.0631                29.3970                17.3232

                     67                     68                     69
                      A                      A                      A
 Frequencies --   1629.1091              1639.3019              1659.3684
 Red. masses --      4.1436                 6.0456                 7.6602
 Frc consts  --      6.4793                 9.5721                12.4273
 IR Inten    --     83.6165                37.8177               271.1253

                     70                     71                     72
                      A                      A                      A
 Frequencies --   1718.9454              3149.9386              3190.4318
 Red. masses --     11.1380                 1.0898                 1.0898
 Frc consts  --     19.3901                 6.3711                 6.5359
 IR Inten    --    135.6745                13.6797                 3.2694

                     73                     74                     75
                      A                      A                      A
 Frequencies --   3200.8263              3209.6286              3347.3251
 Red. masses --      1.0935                 1.0931                 1.0662
 Frc consts  --      6.6006                 6.6344                 7.0383
 IR Inten    --      1.4548                 1.9232               426.8529

                     76                     77                     78
                      A                      A                      A
 Frequencies --   3379.4690              3760.6915              3813.7298
 Red. masses --      1.0682                 1.0653                 1.0661
 Frc consts  --      7.1880                 8.8772                 9.1358
 IR Inten    --     53.5421               125.7023                91.1116

 - Thermochemistry -
 -------------------
 Temperature   298.150 Kelvin.  Pressure   1.00000 Atm.
 Atom     1 has atomic number  8 and mass  15.99491

 Molecular mass:   272.03209 amu.
 Principal axes and moments of inertia in atomic units:
                           1         2         3
     Eigenvalues --  2870.058036703.155759573.21367
           X            0.98901   0.14767   0.00765
           Y           -0.14715   0.98797  -0.04762
           Z           -0.01459   0.04597   0.99884
 This molecule is an asymmetric top.
 Rotational symmetry number  1.
 Warning -- assumption of classical behavior for rotation
           may cause significant error
 Rotational temperatures (Kelvin)      0.03018     0.01292     0.00905
 Rotational constants (GHZ):           0.62882     0.26924     0.18852
 Zero-point vibrational energy     516134.2 (Joules/Mol)
                                  123.35902 (Kcal/Mol)
 Warning -- explicit consideration of  27 degrees of freedom as
           vibrations may cause significant error
 Vibrational temperatures:     46.52    88.94   138.65   179.33   213.61
          (Kelvin)            263.35   271.04   366.89   393.02   448.92
                              449.55   480.59   500.82   521.48   523.98
                              598.42   638.99   652.27   654.94   666.30
                              679.99   698.78   709.46   749.53   808.32
                              844.23   850.61   914.88   972.82  1008.56
                             1022.13  1069.83  1071.36  1086.45  1109.88
                             1127.45  1176.15  1202.75  1243.34  1244.06
                             1356.79  1366.96  1410.36  1417.85  1499.75
                             1593.22  1681.49  1706.64  1731.79  1776.26
                             1779.52  1835.70  1872.80  1879.86  1896.60
                             1927.83  1939.32  2018.07  2031.62  2055.36
                             2111.98  2129.22  2151.40  2182.52  2302.87
                             2324.35  2343.92  2358.59  2387.46  2473.18
                             4532.06  4590.32  4605.28  4617.94  4816.05
                             4862.30  5410.80  5487.11

 Zero-point correction=                           0.196585 (Hartree/Particle)
 Thermal correction to Energy=                    0.211927
 Thermal correction to Enthalpy=                  0.212871
 Thermal correction to Gibbs Free Energy=         0.154306
 Sum of electronic and zero-point Energies=           -989.761959
 Sum of electronic and thermal Energies=              -989.746617
 Sum of electronic and thermal Enthalpies=            -989.745673
 Sum of electronic and thermal Free Energies=         -989.804238

                     E (Thermal)             CV                S
                      KCal/Mol        Cal/Mol-Kelvin    Cal/Mol-Kelvin
 Total                  132.986             62.016            123.262
 Electronic               0.000              0.000              0.000
 Translational            0.889              2.981             42.701
 Rotational               0.889              2.981             33.576
 Vibrational            131.209             56.054             46.985
 Vibration     1          0.594              1.983              5.681
 Vibration     2          0.597              1.973              4.398
 Vibration     3          0.603              1.952              3.527
 Vibration     4          0.610              1.928              3.027
 Vibration     5          0.618              1.904              2.692
 Vibration     6          0.631              1.863              2.297
 Vibration     7          0.633              1.856              2.244
 Vibration     8          0.665              1.754              1.696
 Vibration     9          0.676              1.723              1.576
 Vibration    10          0.700              1.651              1.352
 Vibration    11          0.701              1.650              1.349
 Vibration    12          0.716              1.608              1.241
 Vibration    13          0.726              1.579              1.175
 Vibration    14          0.736              1.550              1.112
 Vibration    15          0.738              1.546              1.104
 Vibration    16          0.779              1.436              0.906
 Vibration    17          0.804              1.374              0.814
 Vibration    18          0.812              1.353              0.786
 Vibration    19          0.814              1.349              0.780
 Vibration    20          0.821              1.332              0.757
 Vibration    21          0.829              1.311              0.730
 Vibration    22          0.842              1.282              0.695
 Vibration    23          0.849              1.265              0.676
 Vibration    24          0.876              1.204              0.608
 Vibration    25          0.918              1.114              0.520
 Vibration    26          0.944              1.060              0.473
 Vibration    27          0.949              1.051              0.465

 Optimization completed.
    -- Stationary point found.
 Normal termination of Gaussian 16 at Sun Jan  7 07:29:18 2024.
