 Gaussian 16, Revision A.03,
 Gaussian 16:  ES64L-G16RevA.03 25-Dec-2016

 ----------------------------------------------------------------------
 #P UB3LYP/6-311++G(d,p) nosym opt freq SCRF=(PCM,Solvent=n,n-DiMethylF
 ormamide)
 ----------------------------------------------------------------------

 --------
 Oxidized
 --------
 Symbolic Z-matrix:
 Charge = -1 Multiplicity = 1

 SCF Done:  E(UB3LYP) =  -3941.34410374     A.U. after   16 cycles
 SCF Done:  E(UB3LYP) =  -3941.34433018     A.U. after   13 cycles
 SCF Done:  E(UB3LYP) =  -3941.34512897     A.U. after   15 cycles
 SCF Done:  E(UB3LYP) =  -3941.34557492     A.U. after   13 cycles
 SCF Done:  E(UB3LYP) =  -3941.34561711     A.U. after   12 cycles
 SCF Done:  E(UB3LYP) =  -3941.34568133     A.U. after   12 cycles
 SCF Done:  E(UB3LYP) =  -3941.34574040     A.U. after   12 cycles
 SCF Done:  E(UB3LYP) =  -3941.34578737     A.U. after   14 cycles
 SCF Done:  E(UB3LYP) =  -3941.34581539     A.U. after   12 cycles
 SCF Done:  E(UB3LYP) =  -3941.34590453     A.U. after   14 cycles
 SCF Done:  E(UB3LYP) =  -3941.34582756     A.U. after   11 cycles
 SCF Done:  E(UB3LYP) =  -3941.34582820     A.U. after   10 cycles
 SCF Done:  E(UB3LYP) =  -3941.34582729     A.U. after   11 cycles
 SCF Done:  E(UB3LYP) =  -3941.34582815     A.U. after   11 cycles
 SCF Done:  E(UB3LYP) =  -3941.34582848     A.U. after   10 cycles
 Optimization completed.
    -- Stationary point found.
 Normal termination of Gaussian 16 at Sun Feb 11 00:05:44 2024.

 ----------------------------------------------------------------------
 #P Geom=AllCheck Guess=TCheck SCRF=Check GenChk UB3LYP/6-311++G(d,p) F
 req
 ----------------------------------------------------------------------

 Structure from the checkpoint file:  "163.chk"
 --------
 Oxidized
 --------
 Charge = -1 Multiplicity = 1

                          Input orientation:
 ---------------------------------------------------------------------
 Center     Atomic      Atomic             Coordinates (Angstroms)
 Number     Number       Type             X           Y           Z
 ---------------------------------------------------------------------
      1          6           0       -1.747640    1.969590   -5.142862
      2          6           0       -1.620374    0.642712   -5.537081
      3          6           0       -1.325180   -0.346061   -4.593001
      4          6           0       -1.564998    2.324244   -3.801580
      5          6           0       -1.271592    1.333158   -2.857373
      6          6           0       -1.161957   -0.003779   -3.256267
      7          6           0       -1.710182    3.746275   -3.391802
      8          6           0       -1.115987    1.684745   -1.425336
      9          6           0       -1.332332    4.134184   -2.023390
     10          6           0       -0.949370    3.133920   -1.072770
     11          6           0       -1.290693    5.524593   -1.675733
     12          6           0       -0.809359    5.865834   -0.375078
     13          6           0       -0.384548    4.895475    0.497023
     14          6           0       -0.459532    3.535523    0.168004
     15          8           0       -2.111165    4.565858   -4.229556
     16          8           0       -1.138617    0.810942   -0.571626
     17          1           0       -1.986048    2.742691   -5.861522
     18          1           0       -1.752239    0.374365   -6.578746
     19          1           0       -1.226727   -1.379808   -4.902754
     20          1           0       -0.943618   -0.758163   -2.511329
     21         35           0        0.215510    2.363789    1.534905
     22          7           0       -1.684201    6.497199   -2.523404
     23         16           0       -0.825923    7.585753    0.230201
     24          8           0       -0.362223    8.413568   -0.924410
     25          8           0       -2.242346    7.853180    0.594018
     26          8           0        0.101841    7.611934    1.386258
     27          1           0        0.001853    5.195729    1.461536
     28          1           0       -1.950969    6.219642   -3.459299
     29          1           0       -1.409272    7.450528   -2.313642
 ---------------------------------------------------------------------

 SCF Done:  E(UB3LYP) =  -3941.34582848     A.U. after    1 cycles

 Alpha  occ. eigenvalues -- -482.83683 -89.05666 -62.48958 -56.31005 -56.30616
 Alpha  occ. eigenvalues --  -56.30574 -19.13102 -19.12692 -19.10008 -19.09984
 Alpha  occ. eigenvalues --  -19.09782 -14.33175 -10.28562 -10.28128 -10.25938
 Alpha  occ. eigenvalues --  -10.24875 -10.22470 -10.21879 -10.21251 -10.20992
 Alpha  occ. eigenvalues --  -10.20719 -10.20646 -10.19747 -10.19723 -10.19658
 Alpha  occ. eigenvalues --  -10.19577  -8.69927  -8.11539  -6.53095  -6.51808
 Alpha  occ. eigenvalues --   -6.51686  -6.07809  -6.07787  -6.07736  -2.64183
 Alpha  occ. eigenvalues --   -2.63838  -2.63746  -2.62722  -2.62720  -1.11948
 Alpha  occ. eigenvalues --   -1.06665  -1.05986  -0.98441  -0.98000  -0.94961
 Alpha  occ. eigenvalues --   -0.89396  -0.88305  -0.82396  -0.80905  -0.77771
 Alpha  occ. eigenvalues --   -0.77744  -0.74124  -0.69644  -0.67695  -0.65846
 Alpha  occ. eigenvalues --   -0.62547  -0.59821  -0.58823  -0.57708  -0.55007
 Alpha  occ. eigenvalues --   -0.53575  -0.51178  -0.50513  -0.50044  -0.47817
 Alpha  occ. eigenvalues --   -0.47639  -0.46481  -0.45893  -0.45817  -0.45438
 Alpha  occ. eigenvalues --   -0.45148  -0.45031  -0.43723  -0.42098  -0.42000
 Alpha  occ. eigenvalues --   -0.40965  -0.39549  -0.38337  -0.37531  -0.36834
 Alpha  occ. eigenvalues --   -0.36106  -0.34303  -0.34174  -0.31734  -0.31133
 Alpha  occ. eigenvalues --   -0.30745  -0.30490  -0.30243  -0.28547  -0.28178
 Alpha  occ. eigenvalues --   -0.27829  -0.27497  -0.26483  -0.26301  -0.22829
 Alpha virt. eigenvalues --   -0.11811  -0.07034  -0.04301  -0.02502  -0.02157
 Alpha virt. eigenvalues --   -0.00440   0.00481   0.01121   0.01905   0.02251
 Alpha virt. eigenvalues --    0.02525   0.03123   0.03561   0.03887   0.04173

  Beta  occ. eigenvalues -- -482.83683 -89.05666 -62.48958 -56.31005 -56.30616
  Beta  occ. eigenvalues --  -56.30574 -19.13102 -19.12692 -19.10008 -19.09984
  Beta  occ. eigenvalues --  -19.09782 -14.33175 -10.28562 -10.28128 -10.25938
  Beta  occ. eigenvalues --  -10.24875 -10.22470 -10.21879 -10.21251 -10.20992
  Beta  occ. eigenvalues --  -10.20719 -10.20646 -10.19747 -10.19723 -10.19658
  Beta  occ. eigenvalues --  -10.19577  -8.69927  -8.11539  -6.53095  -6.51808
  Beta  occ. eigenvalues --   -6.51686  -6.07809  -6.07787  -6.07736  -2.64183
  Beta  occ. eigenvalues --   -2.63838  -2.63746  -2.62722  -2.62720  -1.11948
  Beta  occ. eigenvalues --   -1.06665  -1.05986  -0.98441  -0.98000  -0.94961
  Beta  occ. eigenvalues --   -0.89396  -0.88305  -0.82396  -0.80905  -0.77771
  Beta  occ. eigenvalues --   -0.77744  -0.74124  -0.69644  -0.67695  -0.65846
  Beta  occ. eigenvalues --   -0.62547  -0.59821  -0.58823  -0.57708  -0.55007
  Beta  occ. eigenvalues --   -0.53575  -0.51178  -0.50513  -0.50044  -0.47817
  Beta  occ. eigenvalues --   -0.47639  -0.46481  -0.45893  -0.45817  -0.45438
  Beta  occ. eigenvalues --   -0.45148  -0.45031  -0.43723  -0.42098  -0.42000
  Beta  occ. eigenvalues --   -0.40965  -0.39549  -0.38337  -0.37531  -0.36834
  Beta  occ. eigenvalues --   -0.36106  -0.34303  -0.34174  -0.31734  -0.31133
  Beta  occ. eigenvalues --   -0.30745  -0.30490  -0.30243  -0.28547  -0.28178
  Beta  occ. eigenvalues --   -0.27829  -0.27497  -0.26483  -0.26301  -0.22829
  Beta virt. eigenvalues --   -0.11811  -0.07034  -0.04301  -0.02502  -0.02157
  Beta virt. eigenvalues --   -0.00440   0.00481   0.01121   0.01905   0.02251
  Beta virt. eigenvalues --    0.02525   0.03123   0.03561   0.03887   0.04173

 Mulliken charges and spin densities:
               1          2
     1  C    0.254444  -0.000000
     2  C   -0.444226  -0.000000
     3  C   -0.325292   0.000000
     4  C   -0.190902  -0.000000
     5  C    0.380804   0.000000
     6  C    0.086313   0.000000
     7  C   -0.444927  -0.000000
     8  C   -1.186591  -0.000000
     9  C    0.356315   0.000000
    10  C    0.870833   0.000000
    11  C    0.213356   0.000000
    12  C   -0.730766   0.000000
    13  C   -0.140546   0.000000
    14  C    0.191204  -0.000000
    15  O   -0.306082  -0.000000
    16  O   -0.216849   0.000000
    17  H    0.196040   0.000000
    18  H    0.205476  -0.000000
    19  H    0.205824  -0.000000
    20  H    0.193008  -0.000000
    21  Br  -0.138423   0.000000
    22  N   -0.411941  -0.000000
    23  S    0.535111  -0.000000
    24  O   -0.412919   0.000000
    25  O   -0.341888   0.000000
    26  O   -0.326064  -0.000000
    27  H    0.276591   0.000000
    28  H    0.352497  -0.000000
    29  H    0.299600   0.000000
 Sum of Mulliken charges =  -1.00000   0.00000

 Dipole moment (field-independent basis, Debye):
    X=              4.8539    Y=            -36.4378    Z=             -4.8723  Tot=             37.0812
 Quadrupole moment (field-independent basis, Debye-Ang):
   XX=           -164.5724   YY=           -432.9965   ZZ=           -140.6335
   XY=             34.7758   XZ=              3.1222   YZ=            -10.8145

  Exact polarizability: 199.683 -14.927 449.846  67.682  42.252 424.883
 Approx polarizability: 239.153 -24.543 496.509  78.022   4.301 485.446

                      1                      2                      3
                      A                      A                      A
 Frequencies --     26.2565                34.8041                48.6622
 Red. masses --      8.1674                11.8262                15.0245
 Frc consts  --      0.0033                 0.0084                 0.0210
 IR Inten    --      0.2045                 3.6586                 0.5882

                      4                      5                      6
                      A                      A                      A
 Frequencies --     80.8689               105.1875               117.1002
 Red. masses --      8.7432                 5.6551                 7.4522
 Frc consts  --      0.0337                 0.0369                 0.0602
 IR Inten    --      8.0881                 1.3456                 3.4356

                      7                      8                      9
                      A                      A                      A
 Frequencies --    128.9347               141.4242               165.7628
 Red. masses --     11.7615                12.5665                 8.2939
 Frc consts  --      0.1152                 0.1481                 0.1343
 IR Inten    --      5.3758                 1.6952                 2.9408

                     10                     11                     12
                      A                      A                      A
 Frequencies --    215.2219               225.7610               246.1910
 Red. masses --     10.0982                10.3099                10.2099
 Frc consts  --      0.2756                 0.3096                 0.3646
 IR Inten    --      4.8751                 0.4134                 2.4934

                     13                     14                     15
                      A                      A                      A
 Frequencies --    256.6746               273.8359               313.7614
 Red. masses --     11.8834                 6.0970                 9.6852
 Frc consts  --      0.4613                 0.2694                 0.5618
 IR Inten    --      4.8483                 2.1549                12.6722

                     16                     17                     18
                      A                      A                      A
 Frequencies --    354.6181               385.0686               398.3775
 Red. masses --      5.7344                 9.2991                 7.8924
 Frc consts  --      0.4249                 0.8124                 0.7380
 IR Inten    --      5.3707                 0.7876                 6.2850

                     19                     20                     21
                      A                      A                      A
 Frequencies --    409.9795               425.5117               440.5987
 Red. masses --      6.0786                 4.6640                 6.3408
 Frc consts  --      0.6020                 0.4975                 0.7252
 IR Inten    --     14.8448                19.9367                 5.1920

                     22                     23                     24
                      A                      A                      A
 Frequencies --    447.4792               478.5496               488.8935
 Red. masses --      6.5296                 5.3961                 5.7983
 Frc consts  --      0.7703                 0.7281                 0.8165
 IR Inten    --     24.6225                31.5198                 7.1850

                     25                     26                     27
                      A                      A                      A
 Frequencies --    497.9336               522.1353               528.0494
 Red. masses --      4.4705                 4.8703                 6.0208
 Frc consts  --      0.6530                 0.7823                 0.9891
 IR Inten    --    111.7078               135.6573                81.2301

                     28                     29                     30
                      A                      A                      A
 Frequencies --    537.2067               588.0027               597.1658
 Red. masses --      1.7951                 7.4577                11.8860
 Frc consts  --      0.3052                 1.5192                 2.4973
 IR Inten    --    161.3379                45.4638               351.8476

                     31                     32                     33
                      A                      A                      A
 Frequencies --    636.0855               670.9070               676.9060
 Red. masses --      6.5462                 3.9819                 3.5269
 Frc consts  --      1.5605                 1.0560                 0.9521
 IR Inten    --      2.2018                83.4996                17.3890

                     34                     35                     36
                      A                      A                      A
 Frequencies --    710.1135               723.3357               724.7743
 Red. masses --      1.6349                 7.1670                 4.3848
 Frc consts  --      0.4857                 2.2094                 1.3571
 IR Inten    --      6.7107                61.3207                30.1701

                     37                     38                     39
                      A                      A                      A
 Frequencies --    736.1431               751.8245               811.4258
 Red. masses --      2.9336                 3.3263                 6.9155
 Frc consts  --      0.9366                 1.1078                 2.6827
 IR Inten    --     48.2189                91.3935                41.3571

                     40                     41                     42
                      A                      A                      A
 Frequencies --    813.6924               822.8377               902.4135
 Red. masses --      2.4847                 5.2592                 6.7792
 Frc consts  --      0.9693                 2.0980                 3.2527
 IR Inten    --      8.4728                11.8743                67.2446

                     43                     44                     45
                      A                      A                      A
 Frequencies --    912.6843               933.6636               948.5997
 Red. masses --      1.4982                 1.3640                 8.0666
 Frc consts  --      0.7353                 0.7005                 4.2767
 IR Inten    --      2.3380                18.4696                 4.2289

                     46                     47                     48
                      A                      A                      A
 Frequencies --    976.4025               999.1849              1021.4239
 Red. masses --      9.4752                 1.3879                 1.3291
 Frc consts  --      5.3222                 0.8164                 0.8170
 IR Inten    --    685.0629                 3.9797                 0.0327

                     49                     50                     51
                      A                      A                      A
 Frequencies --   1032.4400              1059.9260              1105.0004
 Red. masses --      4.5666                 1.9474                 5.6263
 Frc consts  --      2.8680                 1.2890                 4.0476
 IR Inten    --     24.1889                 2.6822               394.9662

                     52                     53                     54
                      A                      A                      A
 Frequencies --   1114.9132              1128.5774              1149.0888
 Red. masses --      2.2126                 4.8747                12.0877
 Frc consts  --      1.6204                 3.6581                 9.4037
 IR Inten    --      3.1658               285.1727               261.4708

                     55                     56                     57
                      A                      A                      A
 Frequencies --   1161.4720              1180.1138              1196.3442
 Red. masses --      2.5975                 1.2031                 2.2355
 Frc consts  --      2.0645                 0.9872                 1.8851
 IR Inten    --    296.1315                93.9805                50.8706

                     58                     59                     60
                      A                      A                      A
 Frequencies --   1256.9303              1268.4718              1303.8834
 Red. masses --      1.8487                 3.8873                 1.9882
 Frc consts  --      1.7208                 3.6852                 1.9915
 IR Inten    --    140.7638              1052.1392                96.5706

                     61                     62                     63
                      A                      A                      A
 Frequencies --   1347.3274              1356.3526              1362.7199
 Red. masses --      4.7606                 6.4720                 6.2283
 Frc consts  --      5.0916                 7.0151                 6.8145
 IR Inten    --     72.9733                 3.2995                 3.2647

                     64                     65                     66
                      A                      A                      A
 Frequencies --   1403.0904              1436.3278              1480.6496
 Red. masses --      5.3364                 3.7995                 2.4244
 Frc consts  --      6.1897                 4.6183                 3.1315
 IR Inten    --    343.8036                93.8058                16.8923

                     67                     68                     69
                      A                      A                      A
 Frequencies --   1508.2684              1547.2098              1567.5628
 Red. masses --      2.6260                 5.9281                 3.0519
 Frc consts  --      3.5197                 8.3612                 4.4185
 IR Inten    --      8.7534               215.9510               275.7784

                     70                     71                     72
                      A                      A                      A
 Frequencies --   1610.1414              1617.9079              1623.0607
 Red. masses --      6.3402                 2.2123                 4.8161
 Frc consts  --      9.6845                 3.4119                 7.4751
 IR Inten    --    403.9701               268.9199                75.1968

                     73                     74                     75
                      A                      A                      A
 Frequencies --   1654.6576              1702.9747              3178.2663
 Red. masses --      6.4272                12.2502                 1.0875
 Frc consts  --     10.3678                20.9320                 6.4722
 IR Inten    --    219.6170               403.8037                 3.5752

                     76                     77                     78
                      A                      A                      A
 Frequencies --   3190.9520              3205.0549              3208.8983
 Red. masses --      1.0918                 1.0932                 1.0943
 Frc consts  --      6.5499                 6.6161                 6.6389
 IR Inten    --     14.4450                 6.5798                17.0283

                     79                     80                     81
                      A                      A                      A
 Frequencies --   3211.9669              3466.4989              3587.2107
 Red. masses --      1.0910                 1.0458                 1.1081
 Frc consts  --      6.6314                 7.4042                 8.4015
 IR Inten    --      6.9665               255.0661               450.6740

 - Thermochemistry -
 -------------------
 Temperature   298.150 Kelvin.  Pressure   1.00000 Atm.
 Atom     1 has atomic number  6 and mass  12.00000

 Molecular mass:   379.92283 amu.
 Principal axes and moments of inertia in atomic units:
                           1         2         3
     Eigenvalues --  5941.33901********************
           X            0.09169   0.30104   0.94919
           Y            0.82671  -0.55439   0.09597
           Z            0.55511   0.77590  -0.29971
 This molecule is an asymmetric top.
 Rotational symmetry number  1.
 Warning -- assumption of classical behavior for rotation
           may cause significant error
 Rotational temperatures (Kelvin)      0.01458     0.00773     0.00519
 Rotational constants (GHZ):           0.30376     0.16113     0.10814
 Zero-point vibrational energy     493320.2 (Joules/Mol)
                                  117.90635 (Kcal/Mol)
 Warning -- explicit consideration of  30 degrees of freedom as
           vibrations may cause significant error
 Vibrational temperatures:     37.78    50.08    70.01   116.35   151.34
          (Kelvin)            168.48   185.51   203.48   238.50   309.66
                              324.82   354.21   369.30   393.99   451.43
                              510.22   554.03   573.18   589.87   612.22
                              633.92   643.82   688.53   703.41   716.42
                              751.24   759.75   772.92   846.00   859.19
                              915.19   965.29   973.92  1021.69  1040.72
                             1042.79  1059.15  1081.71  1167.46  1170.72
                             1183.88  1298.37  1313.15  1343.33  1364.82
                             1404.83  1437.60  1469.60  1485.45  1525.00
                             1589.85  1604.11  1623.77  1653.28  1671.10
                             1697.92  1721.27  1808.44  1825.05  1876.00
                             1938.50  1951.49  1960.65  2018.73  2066.56
                             2130.32  2170.06  2226.09  2255.37  2316.63
                             2327.81  2335.22  2380.68  2450.20  4572.82
                             4591.07  4611.36  4616.89  4621.30  4987.52
                             5161.20

 Zero-point correction=                           0.187896 (Hartree/Particle)
 Thermal correction to Energy=                    0.205852
 Thermal correction to Enthalpy=                  0.206797
 Thermal correction to Gibbs Free Energy=         0.140117
 Sum of electronic and zero-point Energies=          -3941.157933
 Sum of electronic and thermal Energies=             -3941.139976
 Sum of electronic and thermal Enthalpies=           -3941.139032
 Sum of electronic and thermal Free Energies=        -3941.205712

                     E (Thermal)             CV                S
                      KCal/Mol        Cal/Mol-Kelvin    Cal/Mol-Kelvin
 Total                  129.174             68.991            140.340
 Electronic               0.000              0.000              0.000
 Translational            0.889              2.981             43.697
 Rotational               0.889              2.981             35.361
 Vibrational            127.397             63.029             61.281
 Vibration     1          0.593              1.985              6.094
 Vibration     2          0.594              1.983              5.535
 Vibration     3          0.595              1.978              4.871
 Vibration     4          0.600              1.962              3.870
 Vibration     5          0.605              1.945              3.356
 Vibration     6          0.608              1.935              3.148
 Vibration     7          0.611              1.924              2.962
 Vibration     8          0.615              1.912              2.785
 Vibration     9          0.624              1.885              2.483
 Vibration    10          0.645              1.818              1.999
 Vibration    11          0.650              1.802              1.912
 Vibration    12          0.661              1.769              1.758
 Vibration    13          0.666              1.752              1.684
 Vibration    14          0.676              1.722              1.572
 Vibration    15          0.702              1.647              1.342
 Vibration    16          0.730              1.566              1.146
 Vibration    17          0.754              1.502              1.019
 Vibration    18          0.765              1.474              0.969
 Vibration    19          0.774              1.449              0.927
 Vibration    20          0.787              1.415              0.873
 Vibration    21          0.800              1.382              0.825
 Vibration    22          0.807              1.366              0.803
 Vibration    23          0.835              1.298              0.714
 Vibration    24          0.845              1.275              0.686
 Vibration    25          0.853              1.255              0.663
 Vibration    26          0.877              1.201              0.605
 Vibration    27          0.883              1.188              0.592
 Vibration    28          0.892              1.168              0.571
 Vibration    29          0.945              1.057              0.471
 Vibration    30          0.955              1.038              0.455

                           ! Non-Optimized Parameters !
 Normal termination of Gaussian 16 at Sun Feb 11 01:47:00 2024.
