 Gaussian 16, Revision A.03,
 Gaussian 16:  ES64L-G16RevA.03 25-Dec-2016

 ----------------------------------------------------------------------
 #P UB3LYP/6-311++G(d,p) nosym opt freq SCRF=(PCM,Solvent=n,n-DiMethylF
 ormamide)
 ----------------------------------------------------------------------

 --------
 Oxidized
 --------
 Symbolic Z-matrix:
 Charge =  0 Multiplicity = 1

 SCF Done:  E(UB3LYP) =  -1315.01373469     A.U. after   16 cycles
 SCF Done:  E(UB3LYP) =  -1315.01386893     A.U. after   16 cycles
 SCF Done:  E(UB3LYP) =  -1315.01411666     A.U. after   17 cycles
 SCF Done:  E(UB3LYP) =  -1315.01425822     A.U. after   15 cycles
 SCF Done:  E(UB3LYP) =  -1315.01433701     A.U. after   13 cycles
 SCF Done:  E(UB3LYP) =  -1315.01432957     A.U. after   14 cycles
 SCF Done:  E(UB3LYP) =  -1315.01434514     A.U. after   13 cycles
 SCF Done:  E(UB3LYP) =  -1315.01435013     A.U. after   13 cycles
 SCF Done:  E(UB3LYP) =  -1315.01435026     A.U. after   11 cycles
 Optimization completed.
    -- Stationary point found.
 Normal termination of Gaussian 16 at Sun Feb 11 02:02:15 2024.

 ----------------------------------------------------------------------
 #P Geom=AllCheck Guess=TCheck SCRF=Check GenChk UB3LYP/6-311++G(d,p) F
 req
 ----------------------------------------------------------------------

 Structure from the checkpoint file:  "268.chk"
 --------
 Oxidized
 --------
 Charge =  0 Multiplicity = 1

                          Input orientation:
 ---------------------------------------------------------------------
 Center     Atomic      Atomic             Coordinates (Angstroms)
 Number     Number       Type             X           Y           Z
 ---------------------------------------------------------------------
      1          6           0        1.489398    3.363142   -0.415169
      2          6           0        0.720424    3.051016   -1.532951
      3          6           0        0.029739    1.839103   -1.594301
      4          6           0        1.570769    2.465279    0.651441
      5          6           0        0.873705    1.242834    0.589326
      6          6           0        0.106447    0.937235   -0.537013
      7          6           0        2.399581    2.823641    1.835327
      8          6           0        2.436457    1.824397    2.943863
      9          6           0        1.785531    0.657971    2.888239
     10          6           0        0.952728    0.277828    1.712408
     11          8           0        3.028648    3.865089    1.904725
     12          8           0        0.373367   -0.797206    1.712396
     13         16           0        3.361952    2.214011    4.470435
     14          8           0        2.873381    3.501925    4.981563
     15          8           0        3.246557    1.018641    5.321801
     16          6           0        5.078298    2.380886    3.974118
     17          6           0        5.615009    3.654799    3.799666
     18          6           0        5.840312    1.224526    3.801962
     19          6           0        6.956770    3.769031    3.443767
     20          6           0        7.733231    2.624259    3.260522
     21          6           0        7.177637    1.356130    3.437198
     22          1           0        2.029255    4.299617   -0.357325
     23          1           0        0.659295    3.751805   -2.356875
     24          1           0       -0.567185    1.598852   -2.465844
     25          1           0       -0.423332   -0.006277   -0.572374
     26          1           0        1.834040   -0.058592    3.700144
     27          1           0        4.996200    4.530172    3.940905
     28          1           0        5.402997    0.246587    3.958043
     29          1           0        7.393553    4.751398    3.310647
     30          1           0        8.775720    2.720261    2.980420
     31          1           0        7.785156    0.469889    3.299823
 ---------------------------------------------------------------------

 SCF Done:  E(UB3LYP) =  -1315.01435026     A.U. after    2 cycles

 Alpha  occ. eigenvalues --  -89.07592 -19.15152 -19.15126 -19.13948 -19.13899
 Alpha  occ. eigenvalues --  -10.30645 -10.30081 -10.25384 -10.23876 -10.22987
 Alpha  occ. eigenvalues --  -10.22088 -10.21940 -10.20866 -10.20736 -10.20735
 Alpha  occ. eigenvalues --  -10.20679 -10.20610 -10.20553 -10.20032 -10.19830
 Alpha  occ. eigenvalues --  -10.19782  -8.13969  -6.10233  -6.10158  -6.10071
 Alpha  occ. eigenvalues --   -1.13349  -1.08581  -1.08197  -1.02836  -0.90321
 Alpha  occ. eigenvalues --   -0.89116  -0.86657  -0.80183  -0.78918  -0.78909
 Alpha  occ. eigenvalues --   -0.77694  -0.73224  -0.69789  -0.66583  -0.65262
 Alpha  occ. eigenvalues --   -0.63565  -0.61416  -0.59916  -0.56681  -0.55840
 Alpha  occ. eigenvalues --   -0.54219  -0.53042  -0.50662  -0.50068  -0.49359
 Alpha  occ. eigenvalues --   -0.47981  -0.47349  -0.47087  -0.46692  -0.46521
 Alpha  occ. eigenvalues --   -0.46107  -0.45979  -0.45096  -0.44678  -0.43503
 Alpha  occ. eigenvalues --   -0.40094  -0.39402  -0.39346  -0.38986  -0.37957
 Alpha  occ. eigenvalues --   -0.37417  -0.36481  -0.35123  -0.33835  -0.32863
 Alpha  occ. eigenvalues --   -0.32748  -0.30532  -0.29495  -0.28999  -0.28759
 Alpha  occ. eigenvalues --   -0.28438  -0.28123
 Alpha virt. eigenvalues --   -0.14557  -0.07175  -0.06349  -0.04623  -0.03658
 Alpha virt. eigenvalues --   -0.00917  -0.00163   0.00584   0.00716   0.01281
 Alpha virt. eigenvalues --    0.01555   0.01782   0.02585   0.03154   0.03216

  Beta  occ. eigenvalues --  -89.07592 -19.15152 -19.15126 -19.13948 -19.13899
  Beta  occ. eigenvalues --  -10.30645 -10.30081 -10.25384 -10.23876 -10.22987
  Beta  occ. eigenvalues --  -10.22088 -10.21940 -10.20866 -10.20736 -10.20735
  Beta  occ. eigenvalues --  -10.20679 -10.20610 -10.20553 -10.20032 -10.19830
  Beta  occ. eigenvalues --  -10.19782  -8.13969  -6.10233  -6.10158  -6.10071
  Beta  occ. eigenvalues --   -1.13349  -1.08581  -1.08197  -1.02836  -0.90321
  Beta  occ. eigenvalues --   -0.89116  -0.86657  -0.80183  -0.78918  -0.78909
  Beta  occ. eigenvalues --   -0.77694  -0.73224  -0.69789  -0.66583  -0.65262
  Beta  occ. eigenvalues --   -0.63565  -0.61416  -0.59916  -0.56681  -0.55840
  Beta  occ. eigenvalues --   -0.54219  -0.53042  -0.50662  -0.50068  -0.49359
  Beta  occ. eigenvalues --   -0.47981  -0.47349  -0.47087  -0.46692  -0.46521
  Beta  occ. eigenvalues --   -0.46107  -0.45979  -0.45096  -0.44678  -0.43503
  Beta  occ. eigenvalues --   -0.40094  -0.39402  -0.39346  -0.38986  -0.37957
  Beta  occ. eigenvalues --   -0.37417  -0.36481  -0.35123  -0.33835  -0.32863
  Beta  occ. eigenvalues --   -0.32748  -0.30532  -0.29495  -0.28999  -0.28759
  Beta  occ. eigenvalues --   -0.28438  -0.28123
  Beta virt. eigenvalues --   -0.14557  -0.07175  -0.06349  -0.04623  -0.03658
  Beta virt. eigenvalues --   -0.00917  -0.00163   0.00584   0.00716   0.01281
  Beta virt. eigenvalues --    0.01555   0.01782   0.02585   0.03154   0.03216

 Mulliken charges and spin densities:
               1          2
     1  C    0.245293   0.000000
     2  C   -0.371059  -0.000000
     3  C   -0.312150  -0.000000
     4  C    0.132174  -0.000000
     5  C    0.485665   0.000000
     6  C    0.056970  -0.000000
     7  C   -0.500557   0.000000
     8  C    0.044504   0.000000
     9  C   -0.179403  -0.000000
    10  C   -0.610089  -0.000000
    11  O   -0.197004  -0.000000
    12  O   -0.254315   0.000000
    13  S    0.567879  -0.000000
    14  O   -0.197942  -0.000000
    15  O   -0.183341  -0.000000
    16  C    0.583033   0.000000
    17  C   -0.224465   0.000000
    18  C   -0.108116  -0.000000
    19  C   -0.396774  -0.000000
    20  C   -0.327015   0.000000
    21  C   -0.505113   0.000000
    22  H    0.189035   0.000000
    23  H    0.214940   0.000000
    24  H    0.217663   0.000000
    25  H    0.184233  -0.000000
    26  H    0.291688  -0.000000
    27  H    0.265541  -0.000000
    28  H    0.246663  -0.000000
    29  H    0.223800   0.000000
    30  H    0.199177   0.000000
    31  H    0.219086  -0.000000
 Sum of Mulliken charges =  -0.00000   0.00000

 Dipole moment (field-independent basis, Debye):
    X=              2.8351    Y=              0.1708    Z=             -8.3264  Tot=              8.7974
 Quadrupole moment (field-independent basis, Debye-Ang):
   XX=            -85.7589   YY=           -134.2095   ZZ=           -168.4391
   XY=              2.0033   XZ=             -3.0048   YZ=            -21.9708

  Exact polarizability: 304.841  60.484 322.512  43.086 -17.541 279.265
 Approx polarizability: 338.770  81.831 431.676  31.607 -21.426 307.567

                      1                      2                      3
                      A                      A                      A
 Frequencies --     19.8334                27.3874                35.8719
 Red. masses --      5.2503                 6.2474                 5.3072
 Frc consts  --      0.0012                 0.0028                 0.0040
 IR Inten    --      0.6433                 2.6663                 0.6242

                      4                      5                      6
                      A                      A                      A
 Frequencies --     65.4837               113.5908               132.3146
 Red. masses --      7.5910                 5.1099                 8.6157
 Frc consts  --      0.0192                 0.0388                 0.0889
 IR Inten    --      3.2944                 0.5472                12.8069

                      7                      8                      9
                      A                      A                      A
 Frequencies --    135.1165               174.8210               189.0453
 Red. masses --      7.2200                 6.4625                 5.9741
 Frc consts  --      0.0777                 0.1164                 0.1258
 IR Inten    --      6.4689                 1.3619                 1.7774

                     10                     11                     12
                      A                      A                      A
 Frequencies --    207.7341               232.4579               265.4783
 Red. masses --      5.6815                 7.8016                 8.8350
 Frc consts  --      0.1445                 0.2484                 0.3669
 IR Inten    --      0.3093                 2.4911                 0.9027

                     13                     14                     15
                      A                      A                      A
 Frequencies --    279.7048               303.1977               352.2388
 Red. masses --      8.7065                 8.5914                 6.2275
 Frc consts  --      0.4013                 0.4653                 0.4552
 IR Inten    --      1.1504                 5.3905                 4.9970

                     16                     17                     18
                      A                      A                      A
 Frequencies --    373.4724               407.3764               408.5065
 Red. masses --     10.6367                 3.6831                 3.4347
 Frc consts  --      0.8741                 0.3601                 0.3377
 IR Inten    --     30.3280                 1.5817                 2.2322

                     19                     20                     21
                      A                      A                      A
 Frequencies --    430.3964               449.7035               457.5219
 Red. masses --      4.9951                 5.8591                10.3681
 Frc consts  --      0.5452                 0.6981                 1.2787
 IR Inten    --      4.9612                31.0722                18.7115

                     22                     23                     24
                      A                      A                      A
 Frequencies --    474.1183               484.5077               528.5278
 Red. masses --      4.4345                 6.7908                 8.2491
 Frc consts  --      0.5873                 0.9392                 1.3577
 IR Inten    --      7.6162                 7.3266                95.1611

                     25                     26                     27
                      A                      A                      A
 Frequencies --    562.7781               619.2987               624.7411
 Red. masses --      8.0151                 7.7080                 6.4842
 Frc consts  --      1.4957                 1.7418                 1.4911
 IR Inten    --    269.4406                85.6379                 1.5114

                     28                     29                     30
                      A                      A                      A
 Frequencies --    670.7736               677.9801               694.9813
 Red. masses --      5.9385                 3.9447                 2.1551
 Frc consts  --      1.5743                 1.0683                 0.6133
 IR Inten    --      4.7639                 9.4497                60.5840

                     31                     32                     33
                      A                      A                      A
 Frequencies --    704.0150               715.0240               723.6328
 Red. masses --      4.1436                 6.5600                 4.5668
 Frc consts  --      1.2100                 1.9760                 1.4090
 IR Inten    --     39.8744                 3.3229               162.9982

                     34                     35                     36
                      A                      A                      A
 Frequencies --    762.5498               790.4662               809.2780
 Red. masses --      1.5931                 1.8903                 3.1209
 Frc consts  --      0.5458                 0.6959                 1.2043
 IR Inten    --     33.1651                43.7589                 2.4131

                     37                     38                     39
                      A                      A                      A
 Frequencies --    811.7506               830.3369               851.2548
 Red. masses --      5.9683                 6.9988                 1.2488
 Frc consts  --      2.3171                 2.8430                 0.5331
 IR Inten    --      9.8623                 5.9015                 0.0294

                     40                     41                     42
                      A                      A                      A
 Frequencies --    915.1771               946.0016               956.4711
 Red. masses --      1.3908                 1.3385                 1.4888
 Frc consts  --      0.6863                 0.7058                 0.8025
 IR Inten    --      0.3083                 0.3824                15.6463

                     43                     44                     45
                      A                      A                      A
 Frequencies --    997.1411              1003.2900              1011.4827
 Red. masses --      1.3825                 1.3928                 6.2684
 Frc consts  --      0.8099                 0.8260                 3.7785
 IR Inten    --      0.0682                 0.8821                14.8601

                     46                     47                     48
                      A                      A                      A
 Frequencies --   1020.5643              1025.4470              1033.8676
 Red. masses --      1.3192                 1.3344                 4.6918
 Frc consts  --      0.8096                 0.8267                 2.9547
 IR Inten    --      0.1013                 0.0090                32.8906

                     49                     50                     51
                      A                      A                      A
 Frequencies --   1040.3237              1055.9924              1078.9704
 Red. masses --      3.7675                 3.1204                 2.8588
 Frc consts  --      2.4024                 2.0501                 1.9609
 IR Inten    --     69.5933               115.9550                96.2218

                     52                     53                     54
                      A                      A                      A
 Frequencies --   1090.8521              1101.1969              1106.0738
 Red. masses --      2.9884                 1.7446                 3.4869
 Frc consts  --      2.0952                 1.2465                 2.5134
 IR Inten    --     28.4096                54.7061               208.6116

                     55                     56                     57
                      A                      A                      A
 Frequencies --   1134.5943              1183.2866              1184.0107
 Red. masses --      1.7527                 1.1118                 1.1148
 Frc consts  --      1.3293                 0.9172                 0.9208
 IR Inten    --     41.0049                 0.5414                10.8478

                     58                     59                     60
                      A                      A                      A
 Frequencies --   1197.9134              1230.2823              1236.4545
 Red. masses --      1.1563                 2.3095                13.1990
 Frc consts  --      0.9777                 2.0596                11.8890
 IR Inten    --      5.1972               130.7589               402.7361

                     61                     62                     63
                      A                      A                      A
 Frequencies --   1266.4006              1306.9661              1331.4444
 Red. masses --      2.3384                 2.3593                 3.1497
 Frc consts  --      2.2095                 2.3745                 3.2897
 IR Inten    --    269.6082               270.7135                 3.7924

                     64                     65                     66
                      A                      A                      A
 Frequencies --   1336.9268              1346.3779              1361.4706
 Red. masses --      2.5358                 1.7083                 7.5882
 Frc consts  --      2.6705                 1.8245                 8.2872
 IR Inten    --     39.5038                 9.4698                17.0573

                     67                     68                     69
                      A                      A                      A
 Frequencies --   1475.6448              1481.4499              1504.3351
 Red. masses --      2.1258                 2.3254                 2.5889
 Frc consts  --      2.7273                 3.0070                 3.4518
 IR Inten    --     28.2823                 0.8584                 4.8136

                     70                     71                     72
                      A                      A                      A
 Frequencies --   1504.8291              1609.0597              1616.4491
 Red. masses --      2.0170                 6.4397                 5.3376
 Frc consts  --      2.6912                 9.8233                 8.2171
 IR Inten    --      4.6418                 0.2573                 8.6090

                     73                     74                     75
                      A                      A                      A
 Frequencies --   1618.8576              1621.4967              1660.1377
 Red. masses --      5.7403                 5.7581                 9.3935
 Frc consts  --      8.8634                 8.9199                15.2534
 IR Inten    --    227.6828                 0.9912                69.2530

                     76                     77                     78
                      A                      A                      A
 Frequencies --   1705.1170              1711.1538              3178.3720
 Red. masses --     11.3084                12.5386                 1.0871
 Frc consts  --     19.3714                21.6310                 6.4706
 IR Inten    --    305.8419               629.3289                 0.9180

                     79                     80                     81
                      A                      A                      A
 Frequencies --   3183.4364              3188.9116              3194.6862
 Red. masses --      1.0877                 1.0900                 1.0910
 Frc consts  --      6.4946                 6.5307                 6.5606
 IR Inten    --      2.3684                11.7479                 6.1416

                     82                     83                     84
                      A                      A                      A
 Frequencies --   3196.4699              3196.6366              3204.7688
 Red. masses --      1.0925                 1.0939                 1.0932
 Frc consts  --      6.5768                 6.5860                 6.6151
 IR Inten    --      7.8140                11.3801                 2.4832

                     85                     86                     87
                      A                      A                      A
 Frequencies --   3206.1238              3208.3960              3219.1396
 Red. masses --      1.0955                 1.0961                 1.0936
 Frc consts  --      6.6350                 6.6478                 6.6768
 IR Inten    --      6.8614                14.7573                 4.0631

 - Thermochemistry -
 -------------------
 Temperature   298.150 Kelvin.  Pressure   1.00000 Atm.
 Atom     1 has atomic number  6 and mass  12.00000

 Molecular mass:   298.02998 amu.
 Principal axes and moments of inertia in atomic units:
                           1         2         3
     Eigenvalues --  3407.664419506.21240**********
           X            0.77097  -0.41396  -0.48399
           Y            0.13909  -0.63216   0.76225
           Z            0.62150   0.65499   0.42980
 This molecule is an asymmetric top.
 Rotational symmetry number  1.
 Warning -- assumption of classical behavior for rotation
           may cause significant error
 Rotational temperatures (Kelvin)      0.02542     0.00911     0.00809
 Rotational constants (GHZ):           0.52961     0.18985     0.16857
 Zero-point vibrational energy     582472.0 (Joules/Mol)
                                  139.21416 (Kcal/Mol)
 Warning -- explicit consideration of  26 degrees of freedom as
           vibrations may cause significant error
 Vibrational temperatures:     28.54    39.40    51.61    94.22   163.43
          (Kelvin)            190.37   194.40   251.53   271.99   298.88
                              334.46   381.96   402.43   436.23   506.79
                              537.34   586.12   587.75   619.24   647.02
                              658.27   682.15   697.10   760.43   809.71
                              891.03   898.86   965.09   975.46   999.92
                             1012.92  1028.76  1041.15  1097.14  1137.30
                             1164.37  1167.93  1194.67  1224.77  1316.74
                             1361.09  1376.15  1434.66  1443.51  1455.30
                             1468.36  1475.39  1487.50  1496.79  1519.34
                             1552.40  1569.49  1584.38  1591.39  1632.43
                             1702.49  1703.53  1723.53  1770.10  1778.98
                             1822.07  1880.43  1915.65  1923.54  1937.14
                             1958.85  2123.12  2131.48  2164.40  2165.11
                             2315.08  2325.71  2329.17  2332.97  2388.57
                             2453.28  2461.97  4572.97  4580.26  4588.13
                             4596.44  4599.01  4599.25  4610.95  4612.90
                             4616.17  4631.62

 Zero-point correction=                           0.221852 (Hartree/Particle)
 Thermal correction to Energy=                    0.238873
 Thermal correction to Enthalpy=                  0.239817
 Thermal correction to Gibbs Free Energy=         0.174996
 Sum of electronic and zero-point Energies=          -1314.792498
 Sum of electronic and thermal Energies=             -1314.775477
 Sum of electronic and thermal Enthalpies=           -1314.774533
 Sum of electronic and thermal Free Energies=        -1314.839355

                     E (Thermal)             CV                S
                      KCal/Mol        Cal/Mol-Kelvin    Cal/Mol-Kelvin
 Total                  149.895             65.933            136.429
 Electronic               0.000              0.000              0.000
 Translational            0.889              2.981             42.973
 Rotational               0.889              2.981             34.205
 Vibrational            148.118             59.972             59.251
 Vibration     1          0.593              1.986              6.651
 Vibration     2          0.593              1.984              6.010
 Vibration     3          0.594              1.982              5.475
 Vibration     4          0.597              1.971              4.285
 Vibration     5          0.607              1.938              3.207
 Vibration     6          0.612              1.921              2.912
 Vibration     7          0.613              1.918              2.872
 Vibration     8          0.627              1.873              2.383
 Vibration     9          0.633              1.855              2.237
 Vibration    10          0.641              1.829              2.063
 Vibration    11          0.653              1.791              1.860
 Vibration    12          0.671              1.736              1.625
 Vibration    13          0.680              1.711              1.535
 Vibration    14          0.695              1.668              1.399
 Vibration    15          0.729              1.571              1.156
 Vibration    16          0.745              1.527              1.065
 Vibration    17          0.772              1.454              0.936
 Vibration    18          0.773              1.452              0.932
 Vibration    19          0.792              1.404              0.857
 Vibration    20          0.809              1.362              0.797
 Vibration    21          0.816              1.344              0.773
 Vibration    22          0.831              1.307              0.726
 Vibration    23          0.841              1.284              0.698
 Vibration    24          0.883              1.187              0.591
 Vibration    25          0.919              1.112              0.518
 Vibration    26          0.979              0.991              0.418

                           ! Non-Optimized Parameters !
 Normal termination of Gaussian 16 at Sun Feb 11 05:11:02 2024.
