 Gaussian 16, Revision A.03,
 Gaussian 16:  ES64L-G16RevA.03 25-Dec-2016

 ----------------------------------------------------------------
 #P UB3LYP/6-311++G(d,p) SCRF=(PCM,Solvent=n,n-DiMethylFormamide)
 ----------------------------------------------------------------

 ------------------
 Quinone PCM in DMF
 ------------------
 Symbolic Z-matrix:
 Charge =  0 Multiplicity = 1

                         Standard orientation:
 ---------------------------------------------------------------------
 Center     Atomic      Atomic             Coordinates (Angstroms)
 Number     Number       Type             X           Y           Z
 ---------------------------------------------------------------------
      1          8           0        0.638260   -2.574764   -0.055697
      2          6           0        0.753372   -1.355284   -0.069335
      3          6           0       -0.432951   -0.481009   -0.173627
      4          6           0       -0.283961    0.871759   -0.178574
      5          8           0       -1.295058    1.747342   -0.270222
      6          6           0        1.055875    1.549360   -0.097359
      7          8           0        1.134874    2.761573   -0.114829
      8          6           0        2.251692    0.670778   -0.002254
      9          6           0        3.523143    1.244577    0.073814
     10          6           0        4.647145    0.430206    0.165622
     11          6           0        4.504972   -0.959085    0.181443
     12          6           0        3.239931   -1.535032    0.105412
     13          6           0        2.107667   -0.724079    0.013474
     14          6           0       -1.782047   -1.159971   -0.316795
     15          1           0        3.608307    2.324219    0.060312
     16          1           0        5.633756    0.875360    0.225188
     17          1           0        5.382176   -1.592180    0.252628
     18          1           0        3.107945   -2.609785    0.115543
     19          6           0       -2.868874   -0.582430    0.558521
     20          6           0       -4.100938   -0.179927    0.202981
     21          6           0       -4.649558   -0.213895   -1.201404
     22          6           0       -5.071746    0.326578    1.241468
     23          1           0       -2.140818    1.279261   -0.146868
     24          1           0       -1.631490   -2.213261   -0.063007
     25          1           0       -2.074533   -1.145625   -1.371898
     26          1           0       -2.610354   -0.523962    1.614884
     27          1           0       -3.921379   -0.528739   -1.948134
     28          1           0       -5.029617    0.772249   -1.490244
     29          1           0       -5.500837   -0.902111   -1.253936
     30          1           0       -4.631994    0.338256    2.240180
     31          1           0       -5.968377   -0.303126    1.269660
     32          1           0       -5.409719    1.340958    1.001350
 ---------------------------------------------------------------------

 SCF Done:  E(UB3LYP) =  -805.921125514     A.U. after   16 cycles

 The electronic state is 1-A.
 Alpha  occ. eigenvalues --  -19.17931 -19.14122 -19.12984 -10.28996 -10.28188
 Alpha  occ. eigenvalues --  -10.27224 -10.20964 -10.20902 -10.20803 -10.20005
 Alpha  occ. eigenvalues --  -10.19946 -10.19842 -10.19804 -10.19614 -10.18992
 Alpha  occ. eigenvalues --  -10.17887 -10.16998 -10.16793  -1.10309  -1.06946
 Alpha  occ. eigenvalues --   -1.06334  -0.89196  -0.84623  -0.82564  -0.78691
 Alpha  occ. eigenvalues --   -0.77979  -0.74704  -0.70146  -0.69994  -0.66504
 Alpha  occ. eigenvalues --   -0.65103  -0.63057  -0.59233  -0.58138  -0.54995
 Alpha  occ. eigenvalues --   -0.53195  -0.51055  -0.50138  -0.47870  -0.46802
 Alpha  occ. eigenvalues --   -0.46487  -0.46306  -0.45714  -0.45334  -0.44499
 Alpha  occ. eigenvalues --   -0.44133  -0.42683  -0.42472  -0.41319  -0.40089
 Alpha  occ. eigenvalues --   -0.39628  -0.39179  -0.38371  -0.38052  -0.37644
 Alpha  occ. eigenvalues --   -0.37064  -0.36931  -0.34644  -0.29321  -0.28945
 Alpha  occ. eigenvalues --   -0.28379  -0.28012  -0.26334  -0.25243
 Alpha virt. eigenvalues --   -0.12336  -0.05643  -0.02765  -0.01145  -0.00455
 Alpha virt. eigenvalues --   -0.00136   0.01052   0.01312   0.01353   0.02359
 Alpha virt. eigenvalues --    0.02589   0.03168   0.03451   0.03657   0.04228

  Beta  occ. eigenvalues --  -19.17931 -19.14122 -19.12984 -10.28996 -10.28188
  Beta  occ. eigenvalues --  -10.27224 -10.20964 -10.20902 -10.20803 -10.20005
  Beta  occ. eigenvalues --  -10.19946 -10.19842 -10.19804 -10.19614 -10.18992
  Beta  occ. eigenvalues --  -10.17887 -10.16998 -10.16793  -1.10309  -1.06946
  Beta  occ. eigenvalues --   -1.06334  -0.89196  -0.84623  -0.82564  -0.78691
  Beta  occ. eigenvalues --   -0.77979  -0.74704  -0.70146  -0.69994  -0.66504
  Beta  occ. eigenvalues --   -0.65103  -0.63057  -0.59233  -0.58138  -0.54995
  Beta  occ. eigenvalues --   -0.53195  -0.51055  -0.50138  -0.47870  -0.46802
  Beta  occ. eigenvalues --   -0.46487  -0.46306  -0.45714  -0.45334  -0.44499
  Beta  occ. eigenvalues --   -0.44133  -0.42683  -0.42472  -0.41319  -0.40089
  Beta  occ. eigenvalues --   -0.39628  -0.39179  -0.38371  -0.38052  -0.37644
  Beta  occ. eigenvalues --   -0.37064  -0.36931  -0.34644  -0.29321  -0.28945
  Beta  occ. eigenvalues --   -0.28379  -0.28012  -0.26334  -0.25243
  Beta virt. eigenvalues --   -0.12336  -0.05643  -0.02765  -0.01145  -0.00455
  Beta virt. eigenvalues --   -0.00136   0.01052   0.01312   0.01353   0.02359
  Beta virt. eigenvalues --    0.02589   0.03168   0.03451   0.03657   0.04228

 Mulliken charges and spin densities:
               1          2
     1  O   -0.276447  -0.000000
     2  C   -1.205088   0.000000
     3  C    1.928729   0.000000
     4  C   -0.856287  -0.000000
     5  O   -0.270598   0.000000
     6  C   -0.539366   0.000000
     7  O   -0.280342  -0.000000
     8  C    0.736553  -0.000000
     9  C    0.101667   0.000000
    10  C   -0.356332  -0.000000
    11  C   -0.441650  -0.000000
    12  C    0.238521  -0.000000
    13  C   -0.162997   0.000000
    14  C   -0.327777  -0.000000
    15  H    0.179616   0.000000
    16  H    0.209664   0.000000
    17  H    0.207626  -0.000000
    18  H    0.186083   0.000000
    19  C   -0.423889  -0.000000
    20  C    0.513983   0.000000
    21  C   -0.558803   0.000000
    22  C   -0.589827   0.000000
    23  H    0.421379  -0.000000
    24  H    0.216132   0.000000
    25  H    0.183723  -0.000000
    26  H    0.202212  -0.000000
    27  H    0.156363   0.000000
    28  H    0.161305  -0.000000
    29  H    0.167422   0.000000
    30  H    0.163659   0.000000
    31  H    0.154765  -0.000000
    32  H    0.160003  -0.000000
 Sum of Mulliken charges =  -0.00000  -0.00000

 Dipole moment (field-independent basis, Debye):
    X=             -1.1594    Y=             -1.4612    Z=              0.1209  Tot=              1.8692
 Quadrupole moment (field-independent basis, Debye-Ang):
   XX=            -68.5319   YY=           -127.5546   ZZ=           -105.3594
   XY=             -1.8809   XZ=              2.0883   YZ=              1.1943

 Normal termination of Gaussian 16 at Sun Jan 21 08:14:34 2024.
