 Gaussian 16, Revision A.03,
 Gaussian 16:  ES64L-G16RevA.03 25-Dec-2016

 ----------------------------------------------------------------------
 #P UB3LYP/6-311++G(d,p) nosym opt freq SCRF=(PCM,Solvent=n,n-DiMethylF
 ormamide)
 ----------------------------------------------------------------------

 --------
 Oxidized
 --------
 Symbolic Z-matrix:
 Charge =  0 Multiplicity = 1

 SCF Done:  E(UB3LYP) =  -678.771575622     A.U. after   15 cycles
 SCF Done:  E(UB3LYP) =  -678.771527315     A.U. after   13 cycles
 SCF Done:  E(UB3LYP) =  -678.771637035     A.U. after   12 cycles
 SCF Done:  E(UB3LYP) =  -678.771695936     A.U. after   12 cycles
 SCF Done:  E(UB3LYP) =  -678.771696752     A.U. after   10 cycles
 SCF Done:  E(UB3LYP) =  -678.771696785     A.U. after   10 cycles
 SCF Done:  E(UB3LYP) =  -678.771697093     A.U. after    9 cycles
 Optimization completed.
    -- Stationary point found.
 Normal termination of Gaussian 16 at Sun Feb 11 15:26:48 2024.

 ----------------------------------------------------------------------
 #P Geom=AllCheck Guess=TCheck SCRF=Check GenChk UB3LYP/6-311++G(d,p) F
 req
 ----------------------------------------------------------------------

 Structure from the checkpoint file:  "347.chk"
 --------
 Oxidized
 --------
 Charge =  0 Multiplicity = 1

                          Input orientation:
 ---------------------------------------------------------------------
 Center     Atomic      Atomic             Coordinates (Angstroms)
 Number     Number       Type             X           Y           Z
 ---------------------------------------------------------------------
      1          7           0       -4.698687    0.367618    0.356061
      2          6           0       -3.705876   -0.152887    0.639507
      3          6           0       -2.493643   -0.806824    1.001116
      4          6           0       -2.632156   -1.898167    1.905494
      5          7           0       -2.761339   -2.781674    2.640106
      6          6           0       -1.262650   -0.407815    0.507560
      7          6           0       -1.153037    0.702983   -0.411771
      8          6           0        0.048223    1.090743   -0.894694
      9          6           0        1.262666    0.407831   -0.507538
     10          6           0        1.153056   -0.702953    0.411809
     11          6           0       -0.048204   -1.090713    0.894735
     12          6           0        2.493654    0.806811   -1.001134
     13          6           0        3.705886    0.152861   -0.639544
     14          7           0        4.698685   -0.367677   -0.356117
     15          6           0        2.632159    1.898138   -1.905532
     16          7           0        2.761220    2.781648   -2.640162
     17          1           0       -2.050555    1.227085   -0.714396
     18          1           0        0.109294    1.924119   -1.582892
     19          1           0        2.050574   -1.227048    0.714445
     20          1           0       -0.109271   -1.924077    1.582947
 ---------------------------------------------------------------------

 SCF Done:  E(UB3LYP) =  -678.771697093     A.U. after    1 cycles

 Alpha  occ. eigenvalues --  -14.35386 -14.35386 -14.35385 -14.35385 -10.28730
 Alpha  occ. eigenvalues --  -10.28729 -10.26674 -10.26673 -10.25360 -10.25359
 Alpha  occ. eigenvalues --  -10.25356 -10.25356 -10.23143 -10.23142 -10.23068
 Alpha  occ. eigenvalues --  -10.23068  -0.96280  -0.96053  -0.94690  -0.94688
 Alpha  occ. eigenvalues --   -0.92539  -0.88471  -0.83567  -0.81091  -0.75901
 Alpha  occ. eigenvalues --   -0.68202  -0.67527  -0.63247  -0.59253  -0.58971
 Alpha  occ. eigenvalues --   -0.56483  -0.49566  -0.48809  -0.47993  -0.46279
 Alpha  occ. eigenvalues --   -0.44821  -0.44416  -0.41386  -0.41324  -0.41087
 Alpha  occ. eigenvalues --   -0.40784  -0.40337  -0.39319  -0.38851  -0.38382
 Alpha  occ. eigenvalues --   -0.38381  -0.38360  -0.37313  -0.37152  -0.34075
 Alpha  occ. eigenvalues --   -0.31613  -0.26718
 Alpha virt. eigenvalues --   -0.17177  -0.05995  -0.05555  -0.03990  -0.03481
 Alpha virt. eigenvalues --   -0.00923   0.00284   0.00301   0.00581   0.00795
 Alpha virt. eigenvalues --    0.01590   0.02334   0.02530   0.03154   0.03810

  Beta  occ. eigenvalues --  -14.35386 -14.35386 -14.35385 -14.35385 -10.28730
  Beta  occ. eigenvalues --  -10.28729 -10.26674 -10.26673 -10.25360 -10.25359
  Beta  occ. eigenvalues --  -10.25356 -10.25356 -10.23143 -10.23142 -10.23068
  Beta  occ. eigenvalues --  -10.23068  -0.96280  -0.96053  -0.94690  -0.94688
  Beta  occ. eigenvalues --   -0.92539  -0.88471  -0.83567  -0.81091  -0.75901
  Beta  occ. eigenvalues --   -0.68202  -0.67527  -0.63247  -0.59253  -0.58971
  Beta  occ. eigenvalues --   -0.56483  -0.49566  -0.48809  -0.47993  -0.46279
  Beta  occ. eigenvalues --   -0.44821  -0.44416  -0.41386  -0.41324  -0.41087
  Beta  occ. eigenvalues --   -0.40784  -0.40337  -0.39319  -0.38851  -0.38382
  Beta  occ. eigenvalues --   -0.38381  -0.38360  -0.37313  -0.37152  -0.34075
  Beta  occ. eigenvalues --   -0.31613  -0.26718
  Beta virt. eigenvalues --   -0.17177  -0.05995  -0.05555  -0.03990  -0.03481
  Beta virt. eigenvalues --   -0.00923   0.00284   0.00301   0.00581   0.00795
  Beta virt. eigenvalues --    0.01590   0.02334   0.02530   0.03154   0.03810

 Mulliken charges and spin densities:
               1          2
     1  N   -0.203422  -0.000000
     2  C   -1.436508   0.000000
     3  C    2.598447   0.000000
     4  C   -1.436412  -0.000000
     5  N   -0.203323   0.000000
     6  C    1.608872  -0.000000
     7  C   -0.645511   0.000000
     8  C   -0.645268   0.000000
     9  C    1.609099  -0.000000
    10  C   -0.645451  -0.000000
    11  C   -0.645251  -0.000000
    12  C    2.598331   0.000000
    13  C   -1.436559  -0.000000
    14  N   -0.203424   0.000000
    15  C   -1.436450   0.000000
    16  N   -0.203316   0.000000
    17  H    0.181765   0.000000
    18  H    0.181305  -0.000000
    19  H    0.181768  -0.000000
    20  H    0.181309  -0.000000
 Sum of Mulliken charges =  -0.00000   0.00000

 Dipole moment (field-independent basis, Debye):
    X=              0.0002    Y=              0.0001    Z=              0.0002  Tot=              0.0003
 Quadrupole moment (field-independent basis, Debye-Ang):
   XX=           -144.0715   YY=           -106.1812   ZZ=           -103.9394
   XY=             -9.5935   XZ=             15.2672   YZ=             14.0948

  Exact polarizability: 591.914 107.493 217.770-155.894-112.058 210.787
 Approx polarizability: 791.958 150.173 275.591-215.885-150.960 267.769

                      1                      2                      3
                      A                      A                      A
 Frequencies --     39.8061                48.6333                83.7809
 Red. masses --      8.6784                13.4188                12.2970
 Frc consts  --      0.0081                 0.0187                 0.0509
 IR Inten    --     16.9565                 0.2680                11.1484

                      4                      5                      6
                      A                      A                      A
 Frequencies --    109.6396               120.6151               137.7077
 Red. masses --      4.0831                13.5690                10.3382
 Frc consts  --      0.0289                 0.1163                 0.1155
 IR Inten    --      0.0000                 0.0000                 0.0000

                      7                      8                      9
                      A                      A                      A
 Frequencies --    143.3299               143.5262               223.8080
 Red. masses --     12.4557                 8.3060                 9.3026
 Frc consts  --      0.1508                 0.1008                 0.2745
 IR Inten    --     23.7565                 0.0000                23.6548

                     10                     11                     12
                      A                      A                      A
 Frequencies --    295.6636               308.4885               331.8414
 Red. masses --      9.8861                 6.9613                12.1236
 Frc consts  --      0.5092                 0.3903                 0.7866
 IR Inten    --      0.5937                 0.0000                 0.0000

                     13                     14                     15
                      A                      A                      A
 Frequencies --    381.7194               393.8898               459.2075
 Red. masses --      6.1738                 3.7581                10.7423
 Frc consts  --      0.5300                 0.3435                 1.3346
 IR Inten    --      0.0000                 0.0064                 0.0000

                     16                     17                     18
                      A                      A                      A
 Frequencies --    476.9407               484.4673               514.3311
 Red. masses --      6.8978                 2.9007                11.3674
 Frc consts  --      0.9245                 0.4011                 1.7717
 IR Inten    --      1.3679                39.3844                 0.1527

                     19                     20                     21
                      A                      A                      A
 Frequencies --    532.9707               555.1179               620.1901
 Red. masses --      7.6217                 7.7545                 7.2350
 Frc consts  --      1.2756                 1.4079                 1.6396
 IR Inten    --      0.0000                11.0469                 0.0000

                     22                     23                     24
                      A                      A                      A
 Frequencies --    624.4698               625.7198               638.2916
 Red. masses --     12.3088                12.4041                 8.9159
 Frc consts  --      2.8281                 2.8614                 2.1402
 IR Inten    --      0.0000                 0.0004                 0.0000

                     25                     26                     27
                      A                      A                      A
 Frequencies --    666.0246               724.9475               771.3947
 Red. masses --      5.3720                 7.6958                 6.5672
 Frc consts  --      1.4040                 2.3830                 2.3024
 IR Inten    --      1.2817                 0.0000                 0.0000

                     28                     29                     30
                      A                      A                      A
 Frequencies --    801.1627               866.0016               970.2323
 Red. masses --      1.2920                 1.8573                 8.5700
 Frc consts  --      0.4886                 0.8207                 4.7532
 IR Inten    --      0.0000                92.2645                 0.0000

                     31                     32                     33
                      A                      A                      A
 Frequencies --    983.1968              1005.8792              1007.5338
 Red. masses --      2.8507                 1.2683                 7.0502
 Frc consts  --      1.6236                 0.7561                 4.2167
 IR Inten    --      8.3437                 0.0000                 1.1735

                     34                     35                     36
                      A                      A                      A
 Frequencies --   1010.9278              1133.8606              1198.1712
 Red. masses --      1.3308                 2.6858                 6.9765
 Frc consts  --      0.8013                 2.0344                 5.9010
 IR Inten    --      0.0138                21.8479                 0.0000

                     37                     38                     39
                      A                      A                      A
 Frequencies --   1224.5309              1231.4978              1338.1367
 Red. masses --      2.1123                 1.1347                 1.8397
 Frc consts  --      1.8661                 1.0139                 1.9409
 IR Inten    --      3.8944                 0.0000                 0.0000

                     40                     41                     42
                      A                      A                      A
 Frequencies --   1375.0055              1427.6330              1470.6481
 Red. masses --      3.7835                 1.7986                 3.0534
 Frc consts  --      4.2146                 2.1598                 3.8909
 IR Inten    --      2.8277                34.3151                 0.0000

                     43                     44                     45
                      A                      A                      A
 Frequencies --   1494.1824              1572.1292              1587.6451
 Red. masses --      9.9873                 5.1603                 6.3335
 Frc consts  --     13.1373                 7.5146                 9.4059
 IR Inten    --      0.0000               624.9873                25.6405

                     46                     47                     48
                      A                      A                      A
 Frequencies --   1667.0664              2308.4930              2308.5531
 Red. masses --      5.7611                12.6786                12.6788
 Frc consts  --      9.4333                39.8087                39.8115
 IR Inten    --      0.0000                63.8694                 0.0264

                     49                     50                     51
                      A                      A                      A
 Frequencies --   2322.5988              2325.4212              3198.0207
 Red. masses --     12.6813                12.6795                 1.0890
 Frc consts  --     40.3053                40.3976                 6.5618
 IR Inten    --    745.1247                 0.0001                 0.7150

                     52                     53                     54
                      A                      A                      A
 Frequencies --   3198.2262              3210.4224              3211.7871
 Red. masses --      1.0876                 1.0964                 1.0979
 Frc consts  --      6.5544                 6.6578                 6.6729
 IR Inten    --      0.0000                 0.0387                 0.0000

 - Thermochemistry -
 -------------------
 Temperature   298.150 Kelvin.  Pressure   1.00000 Atm.
 Atom     1 has atomic number  7 and mass  14.00307

 Molecular mass:   204.04360 amu.
 Principal axes and moments of inertia in atomic units:
                           1         2         3
     Eigenvalues --  1524.777496649.605748174.38114
           X            0.88878  -0.44559   0.10733
           Y            0.28754   0.72444   0.62650
           Z           -0.35691  -0.52596   0.77200
 This molecule is an asymmetric top.
 Rotational symmetry number  1.
 Warning -- assumption of classical behavior for rotation
           may cause significant error
 Rotational temperatures (Kelvin)      0.05680     0.01303     0.01060
 Rotational constants (GHZ):           1.18361     0.27141     0.22078
 Zero-point vibrational energy     334389.1 (Joules/Mol)
                                   79.92091 (Kcal/Mol)
 Warning -- explicit consideration of  21 degrees of freedom as
           vibrations may cause significant error
 Vibrational temperatures:     57.27    69.97   120.54   157.75   173.54
          (Kelvin)            198.13   206.22   206.50   322.01   425.39
                              443.85   477.45   549.21   566.72   660.70
                              686.21   697.04   740.01   766.83   798.69
                              892.32   898.47   900.27   918.36   958.26
                             1043.04  1109.86  1152.69  1245.98  1395.95
                             1414.60  1447.24  1449.62  1454.50  1631.37
                             1723.90  1761.83  1771.85  1925.28  1978.33
                             2054.05  2115.93  2149.80  2261.94  2284.27
                             2398.54  3321.41  3321.49  3341.70  3345.76
                             4601.24  4601.53  4619.08  4621.05

 Zero-point correction=                           0.127362 (Hartree/Particle)
 Thermal correction to Energy=                    0.141101
 Thermal correction to Enthalpy=                  0.142046
 Thermal correction to Gibbs Free Energy=         0.085592
 Sum of electronic and zero-point Energies=           -678.644335
 Sum of electronic and thermal Energies=              -678.630596
 Sum of electronic and thermal Enthalpies=            -678.629651
 Sum of electronic and thermal Free Energies=         -678.686105

                     E (Thermal)             CV                S
                      KCal/Mol        Cal/Mol-Kelvin    Cal/Mol-Kelvin
 Total                   88.542             49.576            118.817
 Electronic               0.000              0.000              0.000
 Translational            0.889              2.981             41.844
 Rotational               0.889              2.981             32.783
 Vibrational             86.765             43.615             44.190
 Vibration     1          0.594              1.981              5.269
 Vibration     2          0.595              1.978              4.872
 Vibration     3          0.601              1.960              3.800
 Vibration     4          0.606              1.941              3.275
 Vibration     5          0.609              1.932              3.090
 Vibration     6          0.614              1.916              2.835
 Vibration     7          0.616              1.910              2.759
 Vibration     8          0.616              1.910              2.756
 Vibration     9          0.649              1.805              1.928
 Vibration    10          0.690              1.682              1.441
 Vibration    11          0.698              1.658              1.370
 Vibration    12          0.714              1.612              1.251
 Vibration    13          0.751              1.509              1.032
 Vibration    14          0.761              1.483              0.985
 Vibration    15          0.817              1.341              0.768
 Vibration    16          0.834              1.301              0.718
 Vibration    17          0.841              1.284              0.698
 Vibration    18          0.869              1.218              0.623
 Vibration    19          0.888              1.177              0.581
 Vibration    20          0.911              1.128              0.534
 Vibration    21          0.980              0.989              0.416

 Optimization completed.
    -- Stationary point found.
 Normal termination of Gaussian 16 at Sun Feb 11 15:52:35 2024.
