 Gaussian 16, Revision A.03,
 Gaussian 16:  ES64L-G16RevA.03 25-Dec-2016

 ----------------------------------------------------------------
 #P UB3LYP/6-311++G(d,p) SCRF=(PCM,Solvent=n,n-DiMethylFormamide)
 ----------------------------------------------------------------

 ------------------
 Radical PCM in DMF
 ------------------
 Symbolic Z-matrix:
 Charge = -1 Multiplicity = 2

                         Standard orientation:
 ---------------------------------------------------------------------
 Center     Atomic      Atomic             Coordinates (Angstroms)
 Number     Number       Type             X           Y           Z
 ---------------------------------------------------------------------
      1          6           0        1.152186   -1.864119    0.000105
      2          6           0        2.463482   -1.444217    0.000116
      3          6           0        2.755165   -0.052853    0.000036
      4          6           0        0.084665   -0.940448    0.000003
      5          6           0        0.376774    0.450613   -0.000008
      6          6           0        1.713324    0.872409   -0.000020
      7          6           0       -1.296870   -1.423980   -0.000083
      8          6           0       -2.339017   -0.410251   -0.000099
      9          6           0       -2.058059    0.946965    0.000013
     10          6           0       -0.697375    1.456301   -0.000038
     11          8           0       -1.553977   -2.659075   -0.000114
     12          8           0       -0.434067    2.685821   -0.000063
     13          6           0        4.113149    0.385764   -0.000015
     14          7           0        5.222454    0.722834   -0.000054
     15          1           0        0.900122   -2.918001    0.000158
     16          1           0        3.277934   -2.159638    0.000194
     17          1           0        1.909953    1.937693   -0.000057
     18          6           0       -3.764237   -0.904109   -0.000023
     19          6           0       -3.166547    1.970134    0.000146
     20          1           0       -3.770564   -1.993875   -0.002644
     21          1           0       -4.314884   -0.545460   -0.878212
     22          1           0       -4.313026   -0.550101    0.881269
     23          1           0       -3.812085    1.866721   -0.880682
     24          1           0       -2.735933    2.971321    0.001873
     25          1           0       -3.814185    1.864277    0.879111
 ---------------------------------------------------------------------

 SCF Done:  E(UB3LYP) =  -706.338233650     A.U. after   19 cycles

 The electronic state is 2-A.
 Alpha  occ. eigenvalues --  -19.08007 -19.07792 -14.32046 -10.22660 -10.22293
 Alpha  occ. eigenvalues --  -10.22239 -10.21528 -10.19207 -10.19038 -10.18233
 Alpha  occ. eigenvalues --  -10.18158 -10.17987 -10.17416 -10.17263 -10.15473
 Alpha  occ. eigenvalues --  -10.15470  -1.00665  -1.00219  -0.92199  -0.87357
 Alpha  occ. eigenvalues --   -0.82477  -0.78123  -0.76594  -0.72657  -0.69044
 Alpha  occ. eigenvalues --   -0.66929  -0.62437  -0.60529  -0.56738  -0.54084
 Alpha  occ. eigenvalues --   -0.51278  -0.48212  -0.47115  -0.43984  -0.43842
 Alpha  occ. eigenvalues --   -0.43120  -0.42379  -0.41091  -0.40486  -0.39862
 Alpha  occ. eigenvalues --   -0.38981  -0.38677  -0.38549  -0.38222  -0.37176
 Alpha  occ. eigenvalues --   -0.36975  -0.35147  -0.34797  -0.34135  -0.34014
 Alpha  occ. eigenvalues --   -0.27430  -0.26843  -0.25068  -0.24711  -0.23883
 Alpha  occ. eigenvalues --   -0.15563
 Alpha virt. eigenvalues --   -0.05829  -0.03231  -0.00595   0.00336   0.01342
 Alpha virt. eigenvalues --    0.01879   0.02580   0.02776   0.03100   0.04069
 Alpha virt. eigenvalues --    0.04078   0.04771   0.05119   0.05390   0.05393

  Beta  occ. eigenvalues --  -19.07418 -19.07143 -14.32008 -10.22521 -10.22249
  Beta  occ. eigenvalues --  -10.22132 -10.21473 -10.19239 -10.18966 -10.18129
  Beta  occ. eigenvalues --  -10.18080 -10.17993 -10.17334 -10.17141 -10.15480
  Beta  occ. eigenvalues --  -10.15479  -0.99637  -0.99083  -0.92140  -0.87161
  Beta  occ. eigenvalues --   -0.82051  -0.77919  -0.76416  -0.72345  -0.68815
  Beta  occ. eigenvalues --   -0.66408  -0.62248  -0.60227  -0.56547  -0.53792
  Beta  occ. eigenvalues --   -0.51072  -0.47990  -0.46951  -0.43814  -0.43252
  Beta  occ. eigenvalues --   -0.42781  -0.42008  -0.40758  -0.40094  -0.39289
  Beta  occ. eigenvalues --   -0.38839  -0.38478  -0.38148  -0.37779  -0.36935
  Beta  occ. eigenvalues --   -0.35074  -0.35032  -0.34607  -0.33889  -0.33190
  Beta  occ. eigenvalues --   -0.26260  -0.25299  -0.24499  -0.23572  -0.23320
  Beta virt. eigenvalues --   -0.09211  -0.05072  -0.02242  -0.00572   0.00342
  Beta virt. eigenvalues --    0.01357   0.01899   0.02583   0.02795   0.03203
  Beta virt. eigenvalues --    0.04096   0.04787   0.05087   0.05135   0.05400

 Mulliken charges and spin densities:
               1          2
     1  C    0.010207   0.014905
     2  C   -0.670159   0.060104
     3  C    1.401240   0.035372
     4  C    0.152169   0.045482
     5  C   -0.089433   0.035369
     6  C    0.221596  -0.010516
     7  C   -0.575647   0.106354
     8  C    0.388666   0.056355
     9  C    0.748872   0.105702
    10  C   -0.654511   0.079247
    11  O   -0.468569   0.237337
    12  O   -0.454327   0.215048
    13  C   -1.417328  -0.014566
    14  N   -0.293469   0.019544
    15  H    0.167196  -0.001674
    16  H    0.205954  -0.003934
    17  H    0.188699  -0.000103
    18  C   -0.438371   0.006671
    19  C   -0.407881   0.001982
    20  H    0.186195  -0.001548
    21  H    0.153960   0.002865
    22  H    0.154340   0.002889
    23  H    0.154429   0.004223
    24  H    0.181986  -0.001308
    25  H    0.154190   0.004199
 Sum of Mulliken charges =  -1.00000   1.00000

 Dipole moment (field-independent basis, Debye):
    X=             -3.6718    Y=             -1.2970    Z=              0.0009  Tot=              3.8942
 Quadrupole moment (field-independent basis, Debye-Ang):
   XX=           -139.1738   YY=           -128.3558   ZZ=            -97.0474
   XY=            -16.9558   XZ=             -0.0005   YZ=             -0.0012

 Normal termination of Gaussian 16 at Thu Jan 25 05:33:33 2024.
