 Gaussian 16, Revision A.03,
 Gaussian 16:  ES64L-G16RevA.03 25-Dec-2016

 --------------------------------------
 #P UB3LYP/6-311++G(d,p) nosym opt freq
 --------------------------------------

 --------
 Oxidized
 --------
 Symbolic Z-matrix:
 Charge =  0 Multiplicity = 1

 SCF Done:  E(UB3LYP) =  -8338.10378196     A.U. after   17 cycles
 SCF Done:  E(UB3LYP) =  -8338.11169102     A.U. after   16 cycles
 SCF Done:  E(UB3LYP) =  -8338.11613659     A.U. after   15 cycles
 SCF Done:  E(UB3LYP) =  -8338.11658355     A.U. after   12 cycles
 SCF Done:  E(UB3LYP) =  -8338.11660950     A.U. after   12 cycles
 SCF Done:  E(UB3LYP) =  -8338.11660790     A.U. after   11 cycles
 SCF Done:  E(UB3LYP) =  -8338.11660904     A.U. after   11 cycles
 SCF Done:  E(UB3LYP) =  -8338.11661083     A.U. after   10 cycles
 SCF Done:  E(UB3LYP) =  -8338.11661102     A.U. after   10 cycles
 SCF Done:  E(UB3LYP) =  -8338.11661151     A.U. after   10 cycles
 SCF Done:  E(UB3LYP) =  -8338.12753337     A.U. after   14 cycles
 SCF Done:  E(UB3LYP) =  -8338.12760454     A.U. after   13 cycles
 SCF Done:  E(UB3LYP) =  -8338.12762076     A.U. after   13 cycles
 SCF Done:  E(UB3LYP) =  -8338.12763441     A.U. after   12 cycles
 SCF Done:  E(UB3LYP) =  -8338.12765393     A.U. after   13 cycles
 SCF Done:  E(UB3LYP) =  -8338.12767113     A.U. after   12 cycles
 SCF Done:  E(UB3LYP) =  -8338.12768928     A.U. after   12 cycles
 SCF Done:  E(UB3LYP) =  -8338.12770198     A.U. after   12 cycles
 SCF Done:  E(UB3LYP) =  -8338.12770509     A.U. after   11 cycles
 Optimization completed.
    -- Stationary point found.
 Normal termination of Gaussian 16 at Sun Dec 17 23:24:09 2023.

 ----------------------------------------------------------------------
 #P Geom=AllCheck Guess=TCheck SCRF=Check GenChk UB3LYP/6-311++G(d,p) F
 req
 ----------------------------------------------------------------------

 Structure from the checkpoint file:  "027.chk"
 --------
 Oxidized
 --------
 Charge =  0 Multiplicity = 1

                          Input orientation:
 ---------------------------------------------------------------------
 Center     Atomic      Atomic             Coordinates (Angstroms)
 Number     Number       Type             X           Y           Z
 ---------------------------------------------------------------------
      1          6           0        0.641353   -1.708717   -0.924231
      2          6           0       -0.556711   -1.142163   -0.219185
      3          6           0       -0.475477    0.013878    0.465461
      4          6           0        0.816574    0.780233    0.551000
      5          6           0        1.995312    0.183216   -0.149114
      6          6           0        1.943843   -0.963842   -0.851972
      7          8           0        0.565892   -2.748608   -1.543241
      8          8           0        0.887122    1.823305    1.156051
      9         35           0       -2.137739   -2.160607   -0.374881
     10         35           0       -1.927120    0.799957    1.377581
     11         35           0        3.598036    1.194526    0.029748
     12          6           0        3.102630   -1.607539   -1.557805
     13          6           0        3.840070   -2.632250   -0.666467
     14          6           0        5.013594   -3.294253   -1.396150
     15          6           0        5.761685   -4.315972   -0.532593
     16          6           0        6.937325   -4.983450   -1.255530
     17          6           0        7.679459   -6.003466   -0.387232
     18          1           0        3.802514   -0.834642   -1.879753
     19          1           0        2.724900   -2.119739   -2.444949
     20          1           0        3.130927   -3.400225   -0.340947
     21          1           0        4.203619   -2.129244    0.236180
     22          1           0        5.715048   -2.520014   -1.732130
     23          1           0        4.642731   -3.787515   -2.303283
     24          1           0        5.059240   -5.089222   -0.195930
     25          1           0        6.130140   -3.822773    0.376219
     26          1           0        7.639269   -4.210820   -1.592113
     27          1           0        6.569058   -5.476044   -2.163572
     28          1           0        8.089888   -5.533557    0.512144
     29          1           0        8.510506   -6.460905   -0.931039
     30          1           0        7.011543   -6.808044   -0.063797
 ---------------------------------------------------------------------

 SCF Done:  E(UB3LYP) =  -8338.12770509     A.U. after    1 cycles

 Alpha  occ. eigenvalues -- -482.86049-482.86023-482.85624 -62.51313 -62.51287
 Alpha  occ. eigenvalues --  -62.50894 -56.33372 -56.33344 -56.32976 -56.32950
 Alpha  occ. eigenvalues --  -56.32942 -56.32916 -56.32891 -56.32554 -56.32507
 Alpha  occ. eigenvalues --  -19.16086 -19.16028 -10.31655 -10.31368 -10.28394
 Alpha  occ. eigenvalues --  -10.28252 -10.27559 -10.24396 -10.19740 -10.18531
 Alpha  occ. eigenvalues --  -10.17580 -10.17118 -10.17062 -10.16205  -8.72283
 Alpha  occ. eigenvalues --   -8.72257  -8.71864  -6.55494  -6.55465  -6.55042
 Alpha  occ. eigenvalues --   -6.54166  -6.54141  -6.53990  -6.53967  -6.53746
 Alpha  occ. eigenvalues --   -6.53609  -2.66581  -2.66552  -2.66230  -2.66202
 Alpha  occ. eigenvalues --   -2.66131  -2.66096  -2.66069  -2.65783  -2.65680
 Alpha  occ. eigenvalues --   -2.65037  -2.65034  -2.65014  -2.65011  -2.64648
 Alpha  occ. eigenvalues --   -2.64646  -1.09897  -1.09649  -0.91395  -0.88171
 Alpha  occ. eigenvalues --   -0.82996  -0.82543  -0.80857  -0.79177  -0.76011
 Alpha  occ. eigenvalues --   -0.72766  -0.70790  -0.66512  -0.62101  -0.61696
 Alpha  occ. eigenvalues --   -0.59821  -0.58651  -0.56988  -0.50799  -0.49427
 Alpha  occ. eigenvalues --   -0.48779  -0.48505  -0.46532  -0.46142  -0.45222
 Alpha  occ. eigenvalues --   -0.44861  -0.44649  -0.43859  -0.42730  -0.41149
 Alpha  occ. eigenvalues --   -0.40792  -0.40292  -0.38407  -0.37277  -0.36360
 Alpha  occ. eigenvalues --   -0.35808  -0.34446  -0.33950  -0.33295  -0.33244
 Alpha  occ. eigenvalues --   -0.33134  -0.32928  -0.31466  -0.31432  -0.30910
 Alpha  occ. eigenvalues --   -0.29706  -0.29149  -0.27680
 Alpha virt. eigenvalues --   -0.15363  -0.06047  -0.05513  -0.03546  -0.02334
 Alpha virt. eigenvalues --   -0.01172  -0.00618  -0.00374   0.00195   0.00623
 Alpha virt. eigenvalues --    0.01126   0.01815   0.02433   0.02914   0.03533

  Beta  occ. eigenvalues -- -482.86049-482.86023-482.85624 -62.51313 -62.51287
  Beta  occ. eigenvalues --  -62.50894 -56.33372 -56.33344 -56.32976 -56.32950
  Beta  occ. eigenvalues --  -56.32942 -56.32916 -56.32891 -56.32554 -56.32507
  Beta  occ. eigenvalues --  -19.16086 -19.16028 -10.31655 -10.31368 -10.28394
  Beta  occ. eigenvalues --  -10.28252 -10.27559 -10.24396 -10.19740 -10.18531
  Beta  occ. eigenvalues --  -10.17580 -10.17118 -10.17062 -10.16205  -8.72283
  Beta  occ. eigenvalues --   -8.72257  -8.71864  -6.55494  -6.55465  -6.55042
  Beta  occ. eigenvalues --   -6.54166  -6.54141  -6.53990  -6.53967  -6.53746
  Beta  occ. eigenvalues --   -6.53609  -2.66581  -2.66552  -2.66230  -2.66202
  Beta  occ. eigenvalues --   -2.66131  -2.66096  -2.66069  -2.65783  -2.65680
  Beta  occ. eigenvalues --   -2.65037  -2.65034  -2.65014  -2.65011  -2.64648
  Beta  occ. eigenvalues --   -2.64646  -1.09897  -1.09649  -0.91395  -0.88171
  Beta  occ. eigenvalues --   -0.82996  -0.82543  -0.80857  -0.79177  -0.76011
  Beta  occ. eigenvalues --   -0.72766  -0.70790  -0.66512  -0.62101  -0.61696
  Beta  occ. eigenvalues --   -0.59821  -0.58651  -0.56988  -0.50799  -0.49427
  Beta  occ. eigenvalues --   -0.48779  -0.48505  -0.46532  -0.46142  -0.45222
  Beta  occ. eigenvalues --   -0.44861  -0.44649  -0.43859  -0.42730  -0.41149
  Beta  occ. eigenvalues --   -0.40792  -0.40292  -0.38407  -0.37277  -0.36360
  Beta  occ. eigenvalues --   -0.35808  -0.34446  -0.33950  -0.33295  -0.33244
  Beta  occ. eigenvalues --   -0.33134  -0.32928  -0.31466  -0.31432  -0.30910
  Beta  occ. eigenvalues --   -0.29706  -0.29149  -0.27680
  Beta virt. eigenvalues --   -0.15363  -0.06047  -0.05513  -0.03546  -0.02334
  Beta virt. eigenvalues --   -0.01172  -0.00618  -0.00374   0.00195   0.00623
  Beta virt. eigenvalues --    0.01126   0.01815   0.02433   0.02914   0.03533

 Mulliken charges and spin densities:
               1          2
     1  C   -1.030847   0.000000
     2  C   -0.224370  -0.000000
     3  C    0.542571   0.000000
     4  C   -0.732051  -0.000000
     5  C    0.311250  -0.000000
     6  C    2.044000  -0.000000
     7  O   -0.130514  -0.000000
     8  O   -0.094257  -0.000000
     9  Br  -0.012417   0.000000
    10  Br  -0.001951   0.000000
    11  Br   0.011548   0.000000
    12  C   -0.838013  -0.000000
    13  C   -0.474967   0.000000
    14  C   -0.150680  -0.000000
    15  C   -0.255247   0.000000
    16  C   -0.188343  -0.000000
    17  C   -0.651411   0.000000
    18  H    0.177339  -0.000000
    19  H    0.226662   0.000000
    20  H    0.191968  -0.000000
    21  H    0.118910   0.000000
    22  H    0.120916   0.000000
    23  H    0.121890   0.000000
    24  H    0.119296  -0.000000
    25  H    0.123240  -0.000000
    26  H    0.129709   0.000000
    27  H    0.130356   0.000000
    28  H    0.136573  -0.000000
    29  H    0.141447   0.000000
    30  H    0.137393  -0.000000
 Sum of Mulliken charges =  -0.00000   0.00000

 Dipole moment (field-independent basis, Debye):
    X=              1.3344    Y=             -1.1998    Z=             -0.6976  Tot=              1.9253
 Quadrupole moment (field-independent basis, Debye-Ang):
   XX=           -128.1422   YY=           -146.0768   ZZ=           -141.2494
   XY=             -5.5607   XZ=             -4.1484   YZ=             -4.3550

  Exact polarizability: 249.736  -6.001 235.786 -16.215  43.909 163.707
 Approx polarizability: 325.373  34.302 414.367  -8.978 108.733 283.376

                      1                      2                      3
                      A                      A                      A
 Frequencies --     16.6328                22.6652                36.0647
 Red. masses --      6.5055                 9.9482                11.9432
 Frc consts  --      0.0011                 0.0030                 0.0092
 IR Inten    --      0.0616                 0.1358                 0.9289

                      4                      5                      6
                      A                      A                      A
 Frequencies --     46.1895                54.9403                69.0175
 Red. masses --      1.5950                 9.7580                 3.3865
 Frc consts  --      0.0020                 0.0174                 0.0095
 IR Inten    --      0.0466                 0.8209                 0.1070

                      7                      8                      9
                      A                      A                      A
 Frequencies --     77.7022               120.5190               128.0135
 Red. masses --      6.1171                 5.2703                 1.9369
 Frc consts  --      0.0218                 0.0451                 0.0187
 IR Inten    --      0.8982                 0.3728                 0.0480

                     10                     11                     12
                      A                      A                      A
 Frequencies --    129.1287               143.8780               146.0934
 Red. masses --      9.5015                 2.8528                 7.0035
 Frc consts  --      0.0933                 0.0348                 0.0881
 IR Inten    --      0.1670                 0.2489                 0.5227

                     13                     14                     15
                      A                      A                      A
 Frequencies --    179.1853               197.6584               226.1192
 Red. masses --     11.2888                25.1713                 4.7081
 Frc consts  --      0.2136                 0.5794                 0.1418
 IR Inten    --      1.3857                 0.2099                 0.1500

                     16                     17                     18
                      A                      A                      A
 Frequencies --    244.3234               249.0730               292.9956
 Red. masses --      1.1883                 3.9750                 6.9012
 Frc consts  --      0.0418                 0.1453                 0.3491
 IR Inten    --      0.0426                 0.4096                 0.2914

                     19                     20                     21
                      A                      A                      A
 Frequencies --    304.8132               331.1981               372.2902
 Red. masses --      8.6421                 9.3945                 4.6664
 Frc consts  --      0.4731                 0.6072                 0.3811
 IR Inten    --      0.0721                 0.6889                 1.6749

                     22                     23                     24
                      A                      A                      A
 Frequencies --    378.2816               424.9748               445.7290
 Red. masses --      4.6338                 4.1336                 5.2726
 Frc consts  --      0.3907                 0.4398                 0.6172
 IR Inten    --      0.9248                 4.6799                 0.1633

                     25                     26                     27
                      A                      A                      A
 Frequencies --    475.7992               526.2131               587.6281
 Red. masses --     10.2946                 5.9987                 8.1186
 Frc consts  --      1.3731                 0.9787                 1.6517
 IR Inten    --      0.0734                27.0650                20.6118

                     28                     29                     30
                      A                      A                      A
 Frequencies --    679.2286               691.0482               733.4570
 Red. masses --      9.0959                 3.8333                 1.0849
 Frc consts  --      2.4725                 1.0785                 0.3439
 IR Inten    --     74.8072                 0.4164                 5.0439

                     31                     32                     33
                      A                      A                      A
 Frequencies --    734.4188               747.7706               769.5879
 Red. masses --     10.1369                 1.1857                11.0461
 Frc consts  --      3.2214                 0.3906                 3.8546
 IR Inten    --     16.7591                 1.3964                 2.6854

                     34                     35                     36
                      A                      A                      A
 Frequencies --    798.5834               818.7117               860.9642
 Red. masses --      1.3491                 8.9160                 2.8818
 Frc consts  --      0.5069                 3.5211                 1.2586
 IR Inten    --      3.3631                27.2810                 2.2303

                     37                     38                     39
                      A                      A                      A
 Frequencies --    896.4621               908.2543               976.0235
 Red. masses --      1.9982                 1.6267                 5.5163
 Frc consts  --      0.9461                 0.7906                 3.0961
 IR Inten    --      2.7328                10.1616                65.9169

                     40                     41                     42
                      A                      A                      A
 Frequencies --   1000.3990              1012.7725              1017.2548
 Red. masses --      2.1127                 2.0358                 3.1403
 Frc consts  --      1.2458                 1.2303                 1.9146
 IR Inten    --     26.5792                 6.6542                10.3083

                     43                     44                     45
                      A                      A                      A
 Frequencies --   1048.9925              1064.6748              1095.1899
 Red. masses --      2.8561                 2.3504                 3.0436
 Frc consts  --      1.8517                 1.5697                 2.1509
 IR Inten    --      2.5895                 3.3301               165.1645

                     46                     47                     48
                      A                      A                      A
 Frequencies --   1130.0678              1151.7545              1200.8894
 Red. masses --      2.4060                 2.3798                 8.0178
 Frc consts  --      1.8103                 1.8600                 6.8126
 IR Inten    --      6.6877                60.9881               128.4004

                     49                     50                     51
                      A                      A                      A
 Frequencies --   1219.6231              1253.0616              1256.2176
 Red. masses --      1.8802                 1.9968                 1.4753
 Frc consts  --      1.6478                 1.8472                 1.3717
 IR Inten    --     41.5887                35.9133                14.9284

                     52                     53                     54
                      A                      A                      A
 Frequencies --   1292.1008              1315.4197              1326.5854
 Red. masses --      1.4458                 1.3119                 1.1633
 Frc consts  --      1.4222                 1.3375                 1.2062
 IR Inten    --      6.0870                 2.7943                 5.7896

                     55                     56                     57
                      A                      A                      A
 Frequencies --   1334.2138              1340.8779              1359.4228
 Red. masses --      1.0832                 1.0976                 1.3629
 Frc consts  --      1.1360                 1.1627                 1.4839
 IR Inten    --      0.0523                 0.8204                 2.5068

                     58                     59                     60
                      A                      A                      A
 Frequencies --   1387.2142              1399.8081              1413.8289
 Red. masses --      1.4401                 1.5840                 1.2453
 Frc consts  --      1.6327                 1.8287                 1.4666
 IR Inten    --      2.5948                 1.3888                 2.2647

                     61                     62                     63
                      A                      A                      A
 Frequencies --   1481.0238              1486.9530              1487.7751
 Red. masses --      1.0995                 1.0718                 1.0732
 Frc consts  --      1.4210                 1.3962                 1.3996
 IR Inten    --      5.4878                 0.0758                 0.8236

                     64                     65                     66
                      A                      A                      A
 Frequencies --   1495.3390              1500.0142              1504.8251
 Red. masses --      1.0716                 1.0396                 1.0842
 Frc consts  --      1.4117                 1.3782                 1.4466
 IR Inten    --      2.2092                 8.1701                 1.0180

                     67                     68                     69
                      A                      A                      A
 Frequencies --   1513.4444              1589.9519              1643.3876
 Red. masses --      1.0952                11.6631                10.1457
 Frc consts  --      1.4780                17.3713                16.1441
 IR Inten    --     11.5562               206.8684                13.7573

                     70                     71                     72
                      A                      A                      A
 Frequencies --   1726.8394              1745.1612              2994.4009
 Red. masses --     12.9279                13.2752                 1.0575
 Frc consts  --     22.7133                23.8211                 5.5866
 IR Inten    --    183.7358               203.6693                 0.8974

                     73                     74                     75
                      A                      A                      A
 Frequencies --   2999.3446              3008.5187              3013.2384
 Red. masses --      1.0584                 1.0604                 1.0987
 Frc consts  --      5.6099                 5.6547                 5.8778
 IR Inten    --      4.1482                58.7880                 0.7526

                     76                     77                     78
                      A                      A                      A
 Frequencies --   3018.0181              3023.5567              3027.5680
 Red. masses --      1.0358                 1.0634                 1.0977
 Frc consts  --      5.5589                 5.7277                 5.9284
 IR Inten    --     40.1220                32.6727                 3.9377

                     79                     80                     81
                      A                      A                      A
 Frequencies --   3044.9499              3061.6330              3064.7811
 Red. masses --      1.1048                 1.0583                 1.1047
 Frc consts  --      6.0353                 5.8448                 6.1133
 IR Inten    --     27.8835                17.0254                30.8010

                     82                     83                     84
                      A                      A                      A
 Frequencies --   3078.7564              3083.8160              3108.4604
 Red. masses --      1.1025                 1.1009                 1.1053
 Frc consts  --      6.1573                 6.1686                 6.2926
 IR Inten    --     67.9415                44.7080                 6.7152

 - Thermochemistry -
 -------------------
 Temperature   298.150 Kelvin.  Pressure   1.00000 Atm.
 Atom     1 has atomic number  6 and mass  12.00000

 Molecular mass:   425.84656 amu.
 Principal axes and moments of inertia in atomic units:
                           1         2         3
     Eigenvalues --  6178.80786********************
           X            0.91149   0.40498   0.07198
           Y           -0.37307   0.88765  -0.27000
           Z           -0.17324   0.21925   0.96017
 This molecule is an asymmetric top.
 Rotational symmetry number  1.
 Warning -- assumption of classical behavior for rotation
           may cause significant error
 Rotational temperatures (Kelvin)      0.01402     0.00527     0.00403
 Rotational constants (GHZ):           0.29209     0.10975     0.08395
 Zero-point vibrational energy     587149.7 (Joules/Mol)
                                  140.33214 (Kcal/Mol)
 Warning -- explicit consideration of  27 degrees of freedom as
           vibrations may cause significant error
 Vibrational temperatures:     23.93    32.61    51.89    66.46    79.05
          (Kelvin)             99.30   111.80   173.40   184.18   185.79
                              207.01   210.20   257.81   284.39   325.34
                              351.53   358.36   421.56   438.56   476.52
                              535.64   544.26   611.44   641.30   684.57
                              757.10   845.47   977.26   994.26  1055.28
                             1056.66  1075.88  1107.27  1148.98  1177.94
                             1238.74  1289.81  1306.78  1404.28  1439.35
                             1457.15  1463.60  1509.27  1531.83  1575.73
                             1625.92  1657.12  1727.81  1754.77  1802.88
                             1807.42  1859.04  1892.60  1908.66  1919.64
                             1929.22  1955.91  1995.89  2014.01  2034.18
                             2130.86  2139.39  2140.58  2151.46  2158.19
                             2165.11  2177.51  2287.59  2364.47  2484.54
                             2510.90  4308.28  4315.39  4328.59  4335.38
                             4342.25  4350.22  4356.00  4381.00  4405.01
                             4409.54  4429.64  4436.92  4472.38

 Zero-point correction=                           0.223634 (Hartree/Particle)
 Thermal correction to Energy=                    0.242860
 Thermal correction to Enthalpy=                  0.243805
 Thermal correction to Gibbs Free Energy=         0.170438
 Sum of electronic and zero-point Energies=          -8337.904072
 Sum of electronic and thermal Energies=             -8337.884845
 Sum of electronic and thermal Enthalpies=           -8337.883901
 Sum of electronic and thermal Free Energies=        -8337.957267

                     E (Thermal)             CV                S
                      KCal/Mol        Cal/Mol-Kelvin    Cal/Mol-Kelvin
 Total                  152.397             65.799            154.413
 Electronic               0.000              0.000              0.000
 Translational            0.889              2.981             44.037
 Rotational               0.889              2.981             36.033
 Vibrational            150.620             59.837             74.342
 Vibration     1          0.593              1.986              7.000
 Vibration     2          0.593              1.985              6.386
 Vibration     3          0.594              1.982              5.464
 Vibration     4          0.595              1.979              4.974
 Vibration     5          0.596              1.976              4.631
 Vibration     6          0.598              1.969              4.181
 Vibration     7          0.599              1.964              3.948
 Vibration     8          0.609              1.932              3.092
 Vibration     9          0.611              1.925              2.976
 Vibration    10          0.612              1.924              2.959
 Vibration    11          0.616              1.909              2.752
 Vibration    12          0.617              1.907              2.722
 Vibration    13          0.629              1.868              2.337
 Vibration    14          0.637              1.843              2.155
 Vibration    15          0.650              1.801              1.910
 Vibration    16          0.660              1.772              1.771
 Vibration    17          0.662              1.764              1.737
 Vibration    18          0.688              1.687              1.457
 Vibration    19          0.696              1.665              1.390
 Vibration    20          0.714              1.613              1.254
 Vibration    21          0.744              1.529              1.070
 Vibration    22          0.749              1.516              1.046
 Vibration    23          0.787              1.416              0.875
 Vibration    24          0.805              1.370              0.809
 Vibration    25          0.832              1.304              0.721
 Vibration    26          0.881              1.192              0.596
 Vibration    27          0.945              1.058              0.471

                           ! Non-Optimized Parameters !
 Normal termination of Gaussian 16 at Mon Dec 18 00:00:01 2023.
