 Gaussian 16, Revision A.03,
 Gaussian 16:  ES64L-G16RevA.03 25-Dec-2016

 ----------------------------------------------------------------
 #P UB3LYP/6-311++G(d,p) SCRF=(PCM,Solvent=n,n-DiMethylFormamide)
 ----------------------------------------------------------------

 -------
 Reduced
 -------
 Symbolic Z-matrix:
 Charge = -2 Multiplicity = 1

                         Standard orientation:
 ---------------------------------------------------------------------
 Center     Atomic      Atomic             Coordinates (Angstroms)
 Number     Number       Type             X           Y           Z
 ---------------------------------------------------------------------
      1          6           0        1.547951    2.497505   -0.000652
      2          6           0        2.905974    2.332935   -0.000747
      3          6           0        3.461686    1.017629   -0.000259
      4          6           0        0.657390    1.385839   -0.000248
      5          6           0        1.192833    0.022669   -0.000186
      6          6           0        2.630164   -0.088627    0.000114
      7          6           0       -0.741031    1.651977   -0.000015
      8          6           0       -1.625796    0.525211    0.000086
      9          6           0       -1.114195   -0.817064   -0.000167
     10          6           0        0.302781   -1.100252   -0.000479
     11          6           0       -3.050210    0.742562    0.000384
     12          6           0       -3.909879   -0.335577    0.000343
     13          6           0       -2.049851   -1.916930   -0.000181
     14          6           0       -3.409059   -1.665998    0.000068
     15          8           0       -1.217536    2.884222    0.000102
     16          8           0        0.699893   -2.353472   -0.001147
     17          8           0       -3.527118    2.020711    0.000764
     18          1           0        1.090459    3.480437   -0.000855
     19          1           0        3.573382    3.192480   -0.001061
     20          1           0        4.538029    0.901581   -0.000041
     21          8           0        3.154786   -1.365825    0.001041
     22          1           0       -2.654684    2.592208    0.000793
     23          8           0       -1.579942   -3.191737   -0.000434
     24          1           0       -4.090594   -2.512891    0.000003
     25          1           0       -4.980933   -0.148254    0.000604
     26          1           0       -0.529167   -3.037030   -0.000460
     27          6           0        4.543732   -1.525827    0.001103
     28          1           0        4.720196   -2.604805    0.001770
     29          1           0        5.018882   -1.085078    0.892135
     30          1           0        5.018841   -1.086150   -0.890484
 ---------------------------------------------------------------------

 SCF Done:  E(UB3LYP) =  -954.270269952     A.U. after   15 cycles

 The electronic state is 1-A.
 Alpha  occ. eigenvalues --  -19.13694 -19.09387 -19.08905 -19.04296 -19.04250
 Alpha  occ. eigenvalues --  -10.22037 -10.20959 -10.19789 -10.19728 -10.19363
 Alpha  occ. eigenvalues --  -10.18482 -10.15374 -10.15289 -10.14821 -10.14764
 Alpha  occ. eigenvalues --  -10.14715 -10.14569 -10.14366 -10.13941 -10.13758
 Alpha  occ. eigenvalues --   -1.05482  -1.01227  -1.00996  -0.95062  -0.94696
 Alpha  occ. eigenvalues --   -0.83236  -0.81276  -0.75925  -0.74229  -0.71512
 Alpha  occ. eigenvalues --   -0.70185  -0.68028  -0.64762  -0.60968  -0.60492
 Alpha  occ. eigenvalues --   -0.55857  -0.54857  -0.52377  -0.50445  -0.48498
 Alpha  occ. eigenvalues --   -0.47573  -0.46726  -0.45937  -0.45767  -0.44257
 Alpha  occ. eigenvalues --   -0.42617  -0.41802  -0.40326  -0.39541  -0.38927
 Alpha  occ. eigenvalues --   -0.38088  -0.37444  -0.36952  -0.36872  -0.36499
 Alpha  occ. eigenvalues --   -0.35174  -0.33846  -0.33285  -0.32788  -0.32243
 Alpha  occ. eigenvalues --   -0.31794  -0.31101  -0.29693  -0.27369  -0.23583
 Alpha  occ. eigenvalues --   -0.22369  -0.22192  -0.21411  -0.21051  -0.18242
 Alpha  occ. eigenvalues --   -0.11606
 Alpha virt. eigenvalues --   -0.01715  -0.00305  -0.00015   0.00837   0.01205
 Alpha virt. eigenvalues --    0.02173   0.02396   0.03644   0.03834   0.03852
 Alpha virt. eigenvalues --    0.04291   0.04560   0.05848   0.05866   0.06550

  Beta  occ. eigenvalues --  -19.13694 -19.09387 -19.08905 -19.04296 -19.04250
  Beta  occ. eigenvalues --  -10.22037 -10.20959 -10.19789 -10.19728 -10.19363
  Beta  occ. eigenvalues --  -10.18482 -10.15374 -10.15289 -10.14821 -10.14764
  Beta  occ. eigenvalues --  -10.14715 -10.14569 -10.14366 -10.13941 -10.13758
  Beta  occ. eigenvalues --   -1.05482  -1.01227  -1.00996  -0.95062  -0.94696
  Beta  occ. eigenvalues --   -0.83236  -0.81276  -0.75925  -0.74229  -0.71512
  Beta  occ. eigenvalues --   -0.70185  -0.68028  -0.64762  -0.60968  -0.60492
  Beta  occ. eigenvalues --   -0.55857  -0.54857  -0.52377  -0.50445  -0.48498
  Beta  occ. eigenvalues --   -0.47573  -0.46726  -0.45937  -0.45767  -0.44257
  Beta  occ. eigenvalues --   -0.42617  -0.41802  -0.40326  -0.39541  -0.38927
  Beta  occ. eigenvalues --   -0.38088  -0.37444  -0.36952  -0.36872  -0.36499
  Beta  occ. eigenvalues --   -0.35174  -0.33846  -0.33285  -0.32788  -0.32243
  Beta  occ. eigenvalues --   -0.31794  -0.31101  -0.29693  -0.27369  -0.23583
  Beta  occ. eigenvalues --   -0.22369  -0.22192  -0.21411  -0.21051  -0.18242
  Beta  occ. eigenvalues --   -0.11606
  Beta virt. eigenvalues --   -0.01715  -0.00305  -0.00015   0.00837   0.01205
  Beta virt. eigenvalues --    0.02173   0.02396   0.03644   0.03834   0.03852
  Beta virt. eigenvalues --    0.04291   0.04560   0.05848   0.05866   0.06550

 Mulliken charges and spin densities:
               1          2
     1  C   -0.324807   0.000000
     2  C   -0.482943  -0.000000
     3  C   -0.055083   0.000000
     4  C    0.162066  -0.000000
     5  C    0.008025   0.000000
     6  C    0.047506  -0.000000
     7  C   -0.282065   0.000000
     8  C    0.312142  -0.000000
     9  C    0.612585   0.000000
    10  C   -0.322554   0.000000
    11  C   -0.265326   0.000000
    12  C   -0.156151   0.000000
    13  C   -0.319409   0.000000
    14  C   -0.230258  -0.000000
    15  O   -0.667665  -0.000000
    16  O   -0.675041  -0.000000
    17  O   -0.505374  -0.000000
    18  H    0.148359  -0.000000
    19  H    0.172860  -0.000000
    20  H    0.163587   0.000000
    21  O   -0.173414   0.000000
    22  H    0.386730   0.000000
    23  O   -0.538843   0.000000
    24  H    0.159036  -0.000000
    25  H    0.161086   0.000000
    26  H    0.451962  -0.000000
    27  C   -0.270980  -0.000000
    28  H    0.188460   0.000000
    29  H    0.147715   0.000000
    30  H    0.147795   0.000000
 Sum of Mulliken charges =  -2.00000  -0.00000

 Dipole moment (field-independent basis, Debye):
    X=             10.5142    Y=             -0.3116    Z=              0.0029  Tot=             10.5188
 Quadrupole moment (field-independent basis, Debye-Ang):
   XX=           -155.4032   YY=           -182.9191   ZZ=           -127.5732
   XY=              7.8009   XZ=              0.0076   YZ=             -0.0112

 Normal termination of Gaussian 16 at Tue Jan 16 06:18:18 2024.
