 Q-Chem 5.4, Q-Chem, Inc., Pleasanton, CA (2021)
 Q-Chem 5.4.0 for Intel X86 EM64T Linux

User input:
--------------------------------------------------------------
$molecule
-2 1
C                  4.8776090000     -2.9403920000     -0.3100800000
C                  5.6399540000     -2.0933220000     -1.0667910000
C                  5.0886180000     -0.8573450000     -1.5220210000
C                  3.5340730000     -2.6266760000      0.0440290000
C                  2.9366950000     -1.3672790000     -0.4054050000
C                  3.7869230000     -0.5157460000     -1.1993270000
C                  2.8158670000     -3.5679170000      0.8343810000
C                  1.4657250000     -3.2401850000      1.1838370000
C                  0.8675190000     -2.0083520000      0.7500460000
C                  1.5859290000     -1.0449510000     -0.0523020000
C                  0.6969860000     -4.1606450000      1.9825800000
C                 -0.6032870000     -3.8540270000      2.3241780000
C                 -0.4968140000     -1.7270890000      1.1303690000
C                 -1.2002430000     -2.6364270000      1.8976400000
O                  3.3606600000     -4.7023970000      1.2364250000
O                  0.9755870000      0.0620680000     -0.4132030000
O                  1.2731830000     -5.3281820000      2.3899630000
H                  5.2623420000     -3.8867940000      0.0529070000
H                  6.6651200000     -2.3472680000     -1.3290840000
H                  5.7026930000     -0.1963610000     -2.1203470000
O                  3.2417430000      0.6761630000     -1.6336030000
H                  2.2312890000     -5.2667850000      1.9825170000
O                 -1.0752550000     -0.5657520000      0.7270710000
H                 -2.2256490000     -2.3989200000      2.1693940000
H                 -1.1648100000     -4.5631920000      2.9275210000
H                 -0.2903350000     -0.1113990000      0.1743260000
C                  4.0271460000      1.5365220000     -2.4067100000
H                  3.3945290000      2.4001720000     -2.6286040000
H                  4.3492050000      1.0760610000     -3.3544550000
H                  4.9272570000      1.8802470000     -1.8722690000
$end
$rem
MAX_SCF_CYCLES=200
BASIS  =  6-311++G(d,p)
GUI  =  2
JOB_TYPE  =  SP
METHOD  =  B3LYP
SOLVENT_METHOD = PCM
$end
$pcm
theory = CPCM
$end
$solvent
dielectric 37.219
opticaldielectric 1.43
$end

--------------------------------------------------------------

             Standard Nuclear Orientation (Angstroms)
    I     Atom           X                Y                Z
 ----------------------------------------------------------------
    1      C       4.8776090000    -2.9403920000    -0.3100800000
    2      C       5.6399540000    -2.0933220000    -1.0667910000
    3      C       5.0886180000    -0.8573450000    -1.5220210000
    4      C       3.5340730000    -2.6266760000     0.0440290000
    5      C       2.9366950000    -1.3672790000    -0.4054050000
    6      C       3.7869230000    -0.5157460000    -1.1993270000
    7      C       2.8158670000    -3.5679170000     0.8343810000
    8      C       1.4657250000    -3.2401850000     1.1838370000
    9      C       0.8675190000    -2.0083520000     0.7500460000
   10      C       1.5859290000    -1.0449510000    -0.0523020000
   11      C       0.6969860000    -4.1606450000     1.9825800000
   12      C      -0.6032870000    -3.8540270000     2.3241780000
   13      C      -0.4968140000    -1.7270890000     1.1303690000
   14      C      -1.2002430000    -2.6364270000     1.8976400000
   15      O       3.3606600000    -4.7023970000     1.2364250000
   16      O       0.9755870000     0.0620680000    -0.4132030000
   17      O       1.2731830000    -5.3281820000     2.3899630000
   18      H       5.2623420000    -3.8867940000     0.0529070000
   19      H       6.6651200000    -2.3472680000    -1.3290840000
   20      H       5.7026930000    -0.1963610000    -2.1203470000
   21      O       3.2417430000     0.6761630000    -1.6336030000
   22      H       2.2312890000    -5.2667850000     1.9825170000
   23      O      -1.0752550000    -0.5657520000     0.7270710000
   24      H      -2.2256490000    -2.3989200000     2.1693940000
   25      H      -1.1648100000    -4.5631920000     2.9275210000
   26      H      -0.2903350000    -0.1113990000     0.1743260000
   27      C       4.0271460000     1.5365220000    -2.4067100000
   28      H       3.3945290000     2.4001720000    -2.6286040000
   29      H       4.3492050000     1.0760610000    -3.3544550000
   30      H       4.9272570000     1.8802470000    -1.8722690000
 ----------------------------------------------------------------

    9    -954.2772847162      2.44e-06  Convergence criterion met
 Total energy in the final basis set =     -954.2772847162

                    Orbital Energies (a.u.)
 --------------------------------------------------------------

 Alpha MOs
 -- Occupied --
-19.1378 -19.0975 -19.0928 -19.0473 -19.0469 -10.2216 -10.2064 -10.2005
-10.1999 -10.1968 -10.1881 -10.1555 -10.1545 -10.1505 -10.1500 -10.1487
-10.1483 -10.1450 -10.1411 -10.1394  -1.0555  -1.0160  -1.0139  -0.9550
 -0.9513  -0.8345  -0.8151  -0.7614  -0.7432  -0.7171  -0.7046  -0.6799
 -0.6501  -0.6119  -0.6065  -0.5611  -0.5498  -0.5252  -0.5060  -0.4881
 -0.4789  -0.4691  -0.4606  -0.4565  -0.4441  -0.4275  -0.4191  -0.4063
 -0.3977  -0.3928  -0.3826  -0.3775  -0.3719  -0.3709  -0.3684  -0.3536
 -0.3405  -0.3352  -0.3303  -0.3260  -0.3192  -0.3144  -0.2984  -0.2772
 -0.2393  -0.2282  -0.2240  -0.2160  -0.2148  -0.1857  -0.1193

          Ground-State Mulliken Net Atomic Charges

     Atom                 Charge (a.u.)
  ----------------------------------------
      1 C                    -0.326774
      2 C                    -0.474722
      3 C                    -0.063755
      4 C                     0.144724
      5 C                    -0.020067
      6 C                     0.030560
      7 C                    -0.247061
      8 C                     0.325225
      9 C                     0.616968
     10 C                    -0.302558
     11 C                    -0.254113
     12 C                    -0.180604
     13 C                    -0.301279
     14 C                    -0.256593
     15 O                    -0.686535
     16 O                    -0.692559
     17 O                    -0.514208
     18 H                     0.151101
     19 H                     0.189636
     20 H                     0.184442
     21 O                    -0.187066
     22 H                     0.390127
     23 O                    -0.547823
     24 H                     0.174584
     25 H                     0.177180
     26 H                     0.453625
     27 C                    -0.292882
     28 H                     0.196452
     29 H                     0.156956
     30 H                     0.157017
  ----------------------------------------
  Sum of atomic charges =    -2.000000

                    Cartesian Multipole Moments
 -----------------------------------------------------------------
    Charge (ESU x 10^10)
                -9.6064
    Dipole Moment (Debye)
         X     -13.8910      Y      25.0796      Z      -8.1724
       Tot      29.8117
    Quadrupole Moments (Debye-Ang)
        XX    -171.8963     XY      58.4741     YY    -231.4253
        XZ     -14.3193     YZ      33.5467     ZZ    -140.0095

 Total job time:  67.25s(wall), 480.89s(cpu)
        *  Thank you very much for using Q-Chem.  Have a nice day.  *
