 Gaussian 16, Revision A.03,
 Gaussian 16:  ES64L-G16RevA.03 25-Dec-2016

 --------------------------------------
 #P UB3LYP/6-311++G(d,p) nosym opt freq
 --------------------------------------

 -------
 Reduced
 -------
 Symbolic Z-matrix:
 Charge = -2 Multiplicity = 1

 SCF Done:  E(UB3LYP) =  -954.014828821     A.U. after   27 cycles
 SCF Done:  E(UB3LYP) =  -954.014828710     A.U. after   16 cycles
 SCF Done:  E(UB3LYP) =  -954.014828893     A.U. after   16 cycles
 SCF Done:  E(UB3LYP) =  -954.014828992     A.U. after   16 cycles
 Optimization completed.
    -- Stationary point found.
 Normal termination of Gaussian 16 at Sun Jan  7 05:28:52 2024.

 ----------------------------------------------------------------------
 #P Geom=AllCheck Guess=TCheck SCRF=Check GenChk UB3LYP/6-311++G(d,p) F
 req
 ----------------------------------------------------------------------

 Structure from the checkpoint file:  "191-an.chk"
 -------
 Reduced
 -------
 Charge = -2 Multiplicity = 1

                          Input orientation:
 ---------------------------------------------------------------------
 Center     Atomic      Atomic             Coordinates (Angstroms)
 Number     Number       Type             X           Y           Z
 ---------------------------------------------------------------------
      1          6           0        4.877609   -2.940392   -0.310080
      2          6           0        5.639954   -2.093322   -1.066791
      3          6           0        5.088618   -0.857345   -1.522021
      4          6           0        3.534073   -2.626676    0.044029
      5          6           0        2.936695   -1.367279   -0.405405
      6          6           0        3.786923   -0.515746   -1.199327
      7          6           0        2.815867   -3.567917    0.834381
      8          6           0        1.465725   -3.240185    1.183837
      9          6           0        0.867519   -2.008352    0.750046
     10          6           0        1.585929   -1.044951   -0.052302
     11          6           0        0.696986   -4.160645    1.982580
     12          6           0       -0.603287   -3.854027    2.324178
     13          6           0       -0.496814   -1.727089    1.130369
     14          6           0       -1.200243   -2.636427    1.897640
     15          8           0        3.360660   -4.702397    1.236425
     16          8           0        0.975587    0.062068   -0.413203
     17          8           0        1.273183   -5.328182    2.389963
     18          1           0        5.262342   -3.886794    0.052907
     19          1           0        6.665120   -2.347268   -1.329084
     20          1           0        5.702693   -0.196361   -2.120347
     21          8           0        3.241743    0.676163   -1.633603
     22          1           0        2.231289   -5.266785    1.982517
     23          8           0       -1.075255   -0.565752    0.727071
     24          1           0       -2.225649   -2.398920    2.169394
     25          1           0       -1.164810   -4.563192    2.927521
     26          1           0       -0.290335   -0.111399    0.174326
     27          6           0        4.027146    1.536522   -2.406710
     28          1           0        3.394529    2.400172   -2.628604
     29          1           0        4.349205    1.076061   -3.354455
     30          1           0        4.927257    1.880247   -1.872269
 ---------------------------------------------------------------------

 SCF Done:  E(UB3LYP) =  -954.014828992     A.U. after    1 cycles

 Alpha  occ. eigenvalues --  -18.92782 -18.85398 -18.84858 -18.80056 -18.80011
 Alpha  occ. eigenvalues --  -10.02835 -10.00069  -9.96213  -9.96185  -9.95609
 Alpha  occ. eigenvalues --   -9.94762  -9.93424  -9.93261  -9.92144  -9.91920
 Alpha  occ. eigenvalues --   -9.91106  -9.91078  -9.91023  -9.90871  -9.90679
 Alpha  occ. eigenvalues --   -0.84612  -0.77153  -0.76871  -0.70821  -0.70437
 Alpha  occ. eigenvalues --   -0.60556  -0.57889  -0.53243  -0.52753  -0.48749
 Alpha  occ. eigenvalues --   -0.47396  -0.46315  -0.41499  -0.38096  -0.37858
 Alpha  occ. eigenvalues --   -0.33792  -0.32099  -0.30060  -0.27966  -0.26530
 Alpha  occ. eigenvalues --   -0.25495  -0.24782  -0.24064  -0.23318  -0.21716
 Alpha  occ. eigenvalues --   -0.20588  -0.19807  -0.16619  -0.16511  -0.15555
 Alpha  occ. eigenvalues --   -0.15169  -0.14534  -0.14175  -0.13433  -0.12578
 Alpha  occ. eigenvalues --   -0.12363  -0.10953  -0.10583  -0.10201  -0.09335
 Alpha  occ. eigenvalues --   -0.08415  -0.07180  -0.07148  -0.03362   0.00215
 Alpha  occ. eigenvalues --    0.00675   0.01368   0.01849   0.03036   0.05729
 Alpha  occ. eigenvalues --    0.12134
 Alpha virt. eigenvalues --    0.14166   0.16285   0.17662   0.17955   0.18023
 Alpha virt. eigenvalues --    0.19533   0.20228   0.21069   0.21541   0.21823
 Alpha virt. eigenvalues --    0.22523   0.23372   0.23812   0.25540   0.25876

  Beta  occ. eigenvalues --  -18.92782 -18.85398 -18.84858 -18.80056 -18.80011
  Beta  occ. eigenvalues --  -10.02835 -10.00069  -9.96213  -9.96185  -9.95609
  Beta  occ. eigenvalues --   -9.94762  -9.93424  -9.93261  -9.92144  -9.91920
  Beta  occ. eigenvalues --   -9.91106  -9.91078  -9.91023  -9.90871  -9.90679
  Beta  occ. eigenvalues --   -0.84612  -0.77153  -0.76871  -0.70821  -0.70437
  Beta  occ. eigenvalues --   -0.60556  -0.57889  -0.53243  -0.52753  -0.48749
  Beta  occ. eigenvalues --   -0.47396  -0.46315  -0.41499  -0.38096  -0.37858
  Beta  occ. eigenvalues --   -0.33792  -0.32099  -0.30060  -0.27966  -0.26530
  Beta  occ. eigenvalues --   -0.25495  -0.24782  -0.24064  -0.23318  -0.21716
  Beta  occ. eigenvalues --   -0.20588  -0.19807  -0.16619  -0.16511  -0.15555
  Beta  occ. eigenvalues --   -0.15169  -0.14534  -0.14175  -0.13433  -0.12578
  Beta  occ. eigenvalues --   -0.12363  -0.10953  -0.10583  -0.10201  -0.09335
  Beta  occ. eigenvalues --   -0.08415  -0.07180  -0.07148  -0.03362   0.00215
  Beta  occ. eigenvalues --    0.00675   0.01368   0.01849   0.03036   0.05729
  Beta  occ. eigenvalues --    0.12134
  Beta virt. eigenvalues --    0.14166   0.16285   0.17662   0.17955   0.18023
  Beta virt. eigenvalues --    0.19533   0.20228   0.21069   0.21541   0.21823
  Beta virt. eigenvalues --    0.22523   0.23372   0.23812   0.25540   0.25876

 Mulliken charges and spin densities:
               1          2
     1  C   -0.316732  -0.000000
     2  C   -0.503614  -0.000000
     3  C   -0.114501   0.000000
     4  C    0.341347  -0.000000
     5  C    0.171742  -0.000000
     6  C    0.048425   0.000000
     7  C   -0.448213   0.000000
     8  C    0.274863   0.000000
     9  C    0.607340   0.000000
    10  C   -0.413309   0.000000
    11  C   -0.358421  -0.000000
    12  C    0.025531  -0.000000
    13  C   -0.428710  -0.000000
    14  C   -0.055212   0.000000
    15  O   -0.575609  -0.000000
    16  O   -0.584178  -0.000000
    17  O   -0.469646   0.000000
    18  H    0.131122  -0.000000
    19  H    0.088651   0.000000
    20  H    0.081041  -0.000000
    21  O   -0.089895  -0.000000
    22  H    0.375411  -0.000000
    23  O   -0.500278   0.000000
    24  H    0.088576  -0.000000
    25  H    0.089768   0.000000
    26  H    0.446583  -0.000000
    27  C   -0.258529  -0.000000
    28  H    0.154929  -0.000000
    29  H    0.095678   0.000000
    30  H    0.095841   0.000000
 Sum of Mulliken charges =  -2.00000   0.00000

 Dipole moment (field-independent basis, Debye):
    X=            -16.6038    Y=             23.5447    Z=             -6.2812  Tot=             29.4872
 Quadrupole moment (field-independent basis, Debye-Ang):
   XX=           -202.3257   YY=           -229.4385   ZZ=           -147.5720
   XY=             51.5811   XZ=              0.8627   YZ=             34.5595

  Exact polarizability: 354.334  29.154 265.459 -95.929 -74.440 227.244
 Approx polarizability: 608.888  10.575 445.109-164.145-135.251 340.585

                      1                      2                      3
                      A                      A                      A
 Frequencies --     35.7815                58.0058                65.7827
 Red. masses --      4.7316                 5.0310                 4.5241
 Frc consts  --      0.0036                 0.0100                 0.0115
 IR Inten    --      2.2327                 2.4507                 0.0251

                      4                      5                      6
                      A                      A                      A
 Frequencies --     99.4579               137.0013               157.6315
 Red. masses --     12.3323                 8.0597                 4.7425
 Frc consts  --      0.0719                 0.0891                 0.0694
 IR Inten    --      0.0063                 0.0032                 1.6418

                      7                      8                      9
                      A                      A                      A
 Frequencies --    170.1964               208.3544               261.4878
 Red. masses --      6.2634                 3.0797                 5.5560
 Frc consts  --      0.1069                 0.0788                 0.2238
 IR Inten    --      2.5070                 0.0056                 1.5350

                     10                     11                     12
                      A                      A                      A
 Frequencies --    265.1862               288.3809               317.6311
 Red. masses --      1.7725                 2.3764                 4.3845
 Frc consts  --      0.0734                 0.1164                 0.2606
 IR Inten    --      0.0242                 2.2275                21.0048

                     13                     14                     15
                      A                      A                      A
 Frequencies --    343.9852               369.4895               382.5607
 Red. masses --      4.8849                 7.8364                 7.9831
 Frc consts  --      0.3406                 0.6303                 0.6884
 IR Inten    --     18.4246                 0.0161                 0.6784

                     16                     17                     18
                      A                      A                      A
 Frequencies --    383.7272               421.5596               440.9597
 Red. masses --      8.4830                 6.6915                 8.0695
 Frc consts  --      0.7359                 0.7006                 0.9245
 IR Inten    --     10.8152                63.1209                17.1516

                     19                     20                     21
                      A                      A                      A
 Frequencies --    450.4553               481.0720               482.4186
 Red. masses --     11.4470                10.4752                 4.2997
 Frc consts  --      1.3685                 1.4283                 0.5896
 IR Inten    --     33.8840                 1.1779                 0.1849

                     22                     23                     24
                      A                      A                      A
 Frequencies --    524.5819               528.7350               537.6427
 Red. masses --      8.8652                 5.6748                 4.3273
 Frc consts  --      1.4374                 0.9347                 0.7370
 IR Inten    --     25.9961                10.4920                 9.2934

                     25                     26                     27
                      A                      A                      A
 Frequencies --    596.0076               601.2733               621.6539
 Red. masses --      6.2984                 3.5399                 4.4580
 Frc consts  --      1.3182                 0.7540                 1.0150
 IR Inten    --      8.7187                24.4875                 2.8717

                     28                     29                     30
                      A                      A                      A
 Frequencies --    631.6441               682.8175               706.3392
 Red. masses --      3.0152                 1.4388                 6.5637
 Frc consts  --      0.7088                 0.3952                 1.9294
 IR Inten    --      0.3191                48.6669                40.3877

                     31                     32                     33
                      A                      A                      A
 Frequencies --    715.3711               736.7810               751.3574
 Red. masses --      2.4658                 4.7644                 7.1692
 Frc consts  --      0.7435                 1.5238                 2.3846
 IR Inten    --     16.9884                 0.9844                56.7352

                     34                     35                     36
                      A                      A                      A
 Frequencies --    752.0255               781.5157               798.5173
 Red. masses --      1.8887                 2.3575                 4.3306
 Frc consts  --      0.6293                 0.8483                 1.6269
 IR Inten    --     12.0418                34.0047                 3.3609

                     37                     38                     39
                      A                      A                      A
 Frequencies --    809.9299               810.2385               883.5623
 Red. masses --      1.6546                 8.0922                 7.4110
 Frc consts  --      0.6395                 3.1300                 3.4088
 IR Inten    --      0.1432                51.3835                22.6362

                     40                     41                     42
                      A                      A                      A
 Frequencies --    940.3797               945.5662               971.8089
 Red. masses --      1.2581                 6.5660                 6.0861
 Frc consts  --      0.6555                 3.4589                 3.3865
 IR Inten    --      4.0155               114.2147               105.2507

                     43                     44                     45
                      A                      A                      A
 Frequencies --   1039.7936              1070.9734              1077.3543
 Red. masses --      2.6412                 1.0487                 2.0540
 Frc consts  --      1.6825                 0.7087                 1.4046
 IR Inten    --     13.8270                60.9077                86.8353

                     46                     47                     48
                      A                      A                      A
 Frequencies --   1095.9927              1115.2456              1122.7170
 Red. masses --      5.0382                 1.0486                 2.0482
 Frc consts  --      3.5656                 0.7684                 1.5211
 IR Inten    --    260.7790                58.5095               203.9369

                     49                     50                     51
                      A                      A                      A
 Frequencies --   1150.0546              1157.4346              1178.8478
 Red. masses --      1.3904                 1.2861                 3.2515
 Frc consts  --      1.0835                 1.0151                 2.6623
 IR Inten    --     33.2917                 0.7276                 9.1964

                     52                     53                     54
                      A                      A                      A
 Frequencies --   1198.8202              1217.4837              1231.0123
 Red. masses --      2.0482                 2.9866                 2.7798
 Frc consts  --      1.7344                 2.6083                 2.4819
 IR Inten    --     34.7404               145.1032                83.3234

                     55                     56                     57
                      A                      A                      A
 Frequencies --   1243.6267              1252.2662              1286.9351
 Red. masses --      3.0546                 3.6062                 5.9000
 Frc consts  --      2.7835                 3.3319                 5.7572
 IR Inten    --    228.3567                19.6579               155.9121

                     58                     59                     60
                      A                      A                      A
 Frequencies --   1305.7129              1333.3971              1355.6921
 Red. masses --      2.4869                 3.3725                 7.1725
 Frc consts  --      2.4980                 3.5328                 7.7668
 IR Inten    --    377.8181                43.5082                59.6259

                     61                     62                     63
                      A                      A                      A
 Frequencies --   1371.5588              1415.3489              1437.2908
 Red. masses --      3.5376                 7.1478                 3.5092
 Frc consts  --      3.9209                 8.4363                 4.2712
 IR Inten    --    325.0946                 0.2691               236.4141

                     64                     65                     66
                      A                      A                      A
 Frequencies --   1454.8656              1470.8727              1472.2630
 Red. masses --      1.5050                 2.4812                 1.0519
 Frc consts  --      1.8768                 3.1627                 1.3434
 IR Inten    --    177.9202               312.8406                 3.2349

                     67                     68                     69
                      A                      A                      A
 Frequencies --   1494.0079              1502.3210              1532.5375
 Red. masses --      4.9862                 1.1046                 4.3282
 Frc consts  --      6.5574                 1.4689                 5.9893
 IR Inten    --    107.8340                46.1475               121.1532

                     70                     71                     72
                      A                      A                      A
 Frequencies --   1566.6961              1589.4745              1604.9018
 Red. masses --      2.8374                 4.9398                 4.7028
 Frc consts  --      4.1034                 7.3531                 7.1369
 IR Inten    --    171.1985                36.9315               188.6337

                     73                     74                     75
                      A                      A                      A
 Frequencies --   1640.9852              1669.8586              2169.3529
 Red. masses --      1.9648                 1.6566                 1.0950
 Frc consts  --      3.1173                 2.7216                 3.0361
 IR Inten    --    287.2378                98.3056               515.6462

                     76                     77                     78
                      A                      A                      A
 Frequencies --   2385.6954              2933.5776              2963.3995
 Red. masses --      1.0891                 1.0376                 1.1024
 Frc consts  --      3.6521                 5.2611                 5.7037
 IR Inten    --    780.5044               180.9198               148.2048

                     79                     80                     81
                      A                      A                      A
 Frequencies --   3065.4206              3107.4515              3118.2682
 Red. masses --      1.0923                 1.0858                 1.0847
 Frc consts  --      6.0474                 6.1775                 6.2141
 IR Inten    --     68.3199                71.9617                55.2635

                     82                     83                     84
                      A                      A                      A
 Frequencies --   3140.4091              3174.0220              3178.6109
 Red. masses --      1.0921                 1.0897                 1.0897
 Frc consts  --      6.3460                 6.4680                 6.4870
 IR Inten    --    109.2490                20.1432                51.7809

 - Thermochemistry -
 -------------------
 Temperature   298.150 Kelvin.  Pressure   1.00000 Atm.
 Atom     1 has atomic number  6 and mass  12.00000

 Molecular mass:   270.05282 amu.
 Principal axes and moments of inertia in atomic units:
                           1         2         3
     Eigenvalues --  3156.633066264.528279409.72398
           X            0.64376  -0.69292   0.32471
           Y            0.53878   0.71175   0.45070
           Z           -0.54341  -0.11520   0.83153
 This molecule is an asymmetric top.
 Rotational symmetry number  1.
 Warning -- assumption of classical behavior for rotation
           may cause significant error
 Rotational temperatures (Kelvin)      0.02744     0.01383     0.00920
 Rotational constants (GHZ):           0.57173     0.28809     0.19180
 Zero-point vibrational energy     556511.3 (Joules/Mol)
                                  133.00939 (Kcal/Mol)
 Warning -- explicit consideration of  26 degrees of freedom as
           vibrations may cause significant error
 Vibrational temperatures:     51.48    83.46    94.65   143.10   197.11
          (Kelvin)            226.80   244.87   299.78   376.22   381.54
                              414.92   457.00   494.92   531.61   550.42
                              552.10   606.53   634.44   648.10   692.16
                              694.09   754.76   760.73   773.55   857.52
                              865.10   894.42   908.79   982.42  1016.26
                             1029.26  1060.06  1081.04  1082.00  1124.43
                             1148.89  1165.31  1165.75  1271.25  1353.00
                             1360.46  1398.22  1496.03  1540.89  1550.07
                             1576.89  1604.59  1615.34  1654.67  1665.29
                             1696.10  1724.83  1751.69  1771.15  1789.30
                             1801.73  1851.61  1878.63  1918.46  1950.54
                             1973.37  2036.37  2067.94  2093.23  2116.26
                             2118.26  2149.54  2161.50  2204.98  2254.13
                             2286.90  2309.10  2361.01  2402.55  3121.22
                             3432.48  4220.76  4263.67  4410.46  4470.93
                             4486.49  4518.35  4566.71  4573.31

 Zero-point correction=                           0.211964 (Hartree/Particle)
 Thermal correction to Energy=                    0.227650
 Thermal correction to Enthalpy=                  0.228594
 Thermal correction to Gibbs Free Energy=         0.168860
 Sum of electronic and zero-point Energies=           -953.802865
 Sum of electronic and thermal Energies=              -953.787179
 Sum of electronic and thermal Enthalpies=            -953.786235
 Sum of electronic and thermal Free Energies=         -953.845969

                     E (Thermal)             CV                S
                      KCal/Mol        Cal/Mol-Kelvin    Cal/Mol-Kelvin
 Total                  142.853             62.732            125.722
 Electronic               0.000              0.000              0.000
 Translational            0.889              2.981             42.679
 Rotational               0.889              2.981             33.586
 Vibrational            141.075             56.770             49.456
 Vibration     1          0.594              1.982              5.480
 Vibration     2          0.596              1.974              4.524
 Vibration     3          0.597              1.971              4.276
 Vibration     4          0.604              1.949              3.465
 Vibration     5          0.614              1.916              2.845
 Vibration     6          0.621              1.894              2.578
 Vibration     7          0.625              1.879              2.433
 Vibration     8          0.642              1.828              2.058
 Vibration     9          0.669              1.743              1.652
 Vibration    10          0.671              1.737              1.627
 Vibration    11          0.685              1.695              1.483
 Vibration    12          0.704              1.640              1.322
 Vibration    13          0.723              1.587              1.194
 Vibration    14          0.742              1.535              1.082
 Vibration    15          0.752              1.507              1.029
 Vibration    16          0.753              1.505              1.024
 Vibration    17          0.784              1.423              0.887
 Vibration    18          0.801              1.381              0.824
 Vibration    19          0.809              1.360              0.794
 Vibration    20          0.837              1.292              0.707
 Vibration    21          0.839              1.289              0.704
 Vibration    22          0.880              1.196              0.599
 Vibration    23          0.884              1.186              0.590
 Vibration    24          0.893              1.167              0.570
 Vibration    25          0.954              1.040              0.457
 Vibration    26          0.959              1.029              0.447

 Optimization completed.
    -- Stationary point found.
 Normal termination of Gaussian 16 at Sun Jan  7 06:39:12 2024.
