 Gaussian 16, Revision A.03,
 Gaussian 16:  ES64L-G16RevA.03 25-Dec-2016

 ----------------------------------------------------------------
 #P UB3LYP/6-311++G(d,p) SCRF=(PCM,Solvent=n,n-DiMethylFormamide)
 ----------------------------------------------------------------

 ------------------
 Quinone PCM in DMF
 ------------------
 Symbolic Z-matrix:
 Charge =  0 Multiplicity = 1

                         Standard orientation:
 ---------------------------------------------------------------------
 Center     Atomic      Atomic             Coordinates (Angstroms)
 Number     Number       Type             X           Y           Z
 ---------------------------------------------------------------------
      1          6           0       -5.270204    0.145990   -0.908662
      2          6           0       -5.926646   -1.079324   -0.970660
      3          6           0       -5.297064   -2.232753   -0.499170
      4          6           0       -3.981541    0.214740   -0.373836
      5          6           0       -3.345587   -0.943844    0.101491
      6          6           0       -4.011678   -2.166340    0.035409
      7          6           0       -3.272775    1.505271   -0.300545
      8          6           0       -1.896847    1.522508    0.274072
      9          6           0       -1.266156    0.419844    0.748078
     10          6           0       -1.959628   -0.883607    0.679967
     11          8           0       -3.744447    2.570013   -0.683930
     12          8           0       -1.422239   -1.903294    1.089445
     13          1           0       -5.738001    1.054581   -1.267559
     14          1           0       -6.926408   -1.137227   -1.385174
     15          1           0       -5.810151   -3.186504   -0.548471
     16          1           0       -3.508985   -3.051180    0.405627
     17          8           0       -1.329012    2.739516    0.290345
     18          6           0        0.126317    0.465825    1.311304
     19          6           0        1.210357    0.178780    0.250023
     20          6           0        2.626862    0.216601    0.832593
     21          6           0        3.718435   -0.062049   -0.206858
     22          6           0        5.137970   -0.025600    0.370786
     23          1           0       -1.989800    3.350781   -0.087281
     24          1           0        0.203219   -0.280264    2.106096
     25          1           0        0.302858    1.451214    1.750059
     26          1           0        1.125632    0.914483   -0.557814
     27          1           0        1.022724   -0.804563   -0.193988
     28          1           0        2.702870   -0.518003    1.644269
     29          1           0        2.804491    1.198329    1.290356
     30          1           0        3.639809    0.671625   -1.019564
     31          1           0        3.539241   -1.043354   -0.664637
     32          1           0        5.216239   -0.759216    1.183608
     33          1           0        5.316630    0.955616    0.829518
     34          6           0        6.230729   -0.303958   -0.667252
     35          1           0        6.153136    0.429387   -1.480708
     36          1           0        6.052742   -1.285254   -1.126393
     37          6           0        7.651016   -0.268188   -0.091557
     38          6           0        8.735586   -0.547413   -1.136199
     39          1           0        7.729224   -1.001286    0.720597
     40          1           0        7.829552    0.712249    0.366762
     41          1           0        8.604668   -1.536016   -1.587714
     42          1           0        9.735320   -0.514606   -0.694040
     43          1           0        8.705708    0.190429   -1.944321
 ---------------------------------------------------------------------

 SCF Done:  E(UB3LYP) =  -925.128388155     A.U. after   16 cycles

 The electronic state is 1-A.
 Alpha  occ. eigenvalues --  -19.18060 -19.15132 -19.13081 -10.29518 -10.28230
 Alpha  occ. eigenvalues --  -10.26894 -10.21287 -10.21158 -10.20552 -10.20351
 Alpha  occ. eigenvalues --  -10.20180 -10.20012 -10.19969 -10.17805 -10.16904
 Alpha  occ. eigenvalues --  -10.16289 -10.16176 -10.16096 -10.15998 -10.15948
 Alpha  occ. eigenvalues --  -10.15530  -1.11059  -1.06908  -1.06435  -0.89482
 Alpha  occ. eigenvalues --   -0.84606  -0.81234  -0.79725  -0.78261  -0.77769
 Alpha  occ. eigenvalues --   -0.74899  -0.71458  -0.69097  -0.66352  -0.65215
 Alpha  occ. eigenvalues --   -0.62539  -0.60758  -0.59561  -0.57813  -0.57605
 Alpha  occ. eigenvalues --   -0.57404  -0.54459  -0.52086  -0.49993  -0.48475
 Alpha  occ. eigenvalues --   -0.48017  -0.47364  -0.46924  -0.46469  -0.45527
 Alpha  occ. eigenvalues --   -0.44997  -0.44009  -0.43051  -0.42810  -0.42364
 Alpha  occ. eigenvalues --   -0.42152  -0.40905  -0.40813  -0.39475  -0.38963
 Alpha  occ. eigenvalues --   -0.38334  -0.37905  -0.37402  -0.36417  -0.35931
 Alpha  occ. eigenvalues --   -0.35843  -0.33656  -0.33639  -0.32517  -0.32452
 Alpha  occ. eigenvalues --   -0.32059  -0.31162  -0.30412  -0.29169  -0.28232
 Alpha  occ. eigenvalues --   -0.28049  -0.25842
 Alpha virt. eigenvalues --   -0.12739  -0.05819  -0.02779  -0.00966  -0.00298
 Alpha virt. eigenvalues --    0.00196   0.00640   0.00849   0.01320   0.01609
 Alpha virt. eigenvalues --    0.02142   0.02334   0.02472   0.03134   0.03472

  Beta  occ. eigenvalues --  -19.18060 -19.15132 -19.13081 -10.29518 -10.28230
  Beta  occ. eigenvalues --  -10.26894 -10.21287 -10.21158 -10.20552 -10.20351
  Beta  occ. eigenvalues --  -10.20180 -10.20012 -10.19969 -10.17805 -10.16904
  Beta  occ. eigenvalues --  -10.16289 -10.16176 -10.16096 -10.15998 -10.15948
  Beta  occ. eigenvalues --  -10.15530  -1.11059  -1.06908  -1.06435  -0.89482
  Beta  occ. eigenvalues --   -0.84606  -0.81234  -0.79725  -0.78261  -0.77769
  Beta  occ. eigenvalues --   -0.74899  -0.71458  -0.69097  -0.66352  -0.65215
  Beta  occ. eigenvalues --   -0.62539  -0.60758  -0.59561  -0.57813  -0.57605
  Beta  occ. eigenvalues --   -0.57404  -0.54459  -0.52086  -0.49993  -0.48475
  Beta  occ. eigenvalues --   -0.48017  -0.47364  -0.46924  -0.46469  -0.45527
  Beta  occ. eigenvalues --   -0.44997  -0.44009  -0.43051  -0.42810  -0.42364
  Beta  occ. eigenvalues --   -0.42152  -0.40905  -0.40813  -0.39475  -0.38963
  Beta  occ. eigenvalues --   -0.38334  -0.37905  -0.37402  -0.36417  -0.35931
  Beta  occ. eigenvalues --   -0.35843  -0.33656  -0.33639  -0.32517  -0.32452
  Beta  occ. eigenvalues --   -0.32059  -0.31162  -0.30412  -0.29169  -0.28232
  Beta  occ. eigenvalues --   -0.28049  -0.25842
  Beta virt. eigenvalues --   -0.12739  -0.05819  -0.02779  -0.00966  -0.00298
  Beta virt. eigenvalues --    0.00196   0.00640   0.00849   0.01320   0.01609
  Beta virt. eigenvalues --    0.02142   0.02334   0.02472   0.03134   0.03472

 Mulliken charges and spin densities:
               1          2
     1  C    0.168627   0.000000
     2  C   -0.380577  -0.000000
     3  C   -0.402944  -0.000000
     4  C    0.538308  -0.000000
     5  C   -0.125918   0.000000
     6  C    0.163733   0.000000
     7  C   -0.835653   0.000000
     8  C   -0.445286  -0.000000
     9  C    1.923175  -0.000000
    10  C   -0.784151   0.000000
    11  O   -0.313018   0.000000
    12  O   -0.276317   0.000000
    13  H    0.190996   0.000000
    14  H    0.211482  -0.000000
    15  H    0.207644   0.000000
    16  H    0.191558  -0.000000
    17  O   -0.222564   0.000000
    18  C   -0.379458   0.000000
    19  C   -0.724537  -0.000000
    20  C   -0.111490   0.000000
    21  C    0.014540  -0.000000
    22  C   -0.129281  -0.000000
    23  H    0.307365  -0.000000
    24  H    0.219456  -0.000000
    25  H    0.233251   0.000000
    26  H    0.176743   0.000000
    27  H    0.178515   0.000000
    28  H    0.120375  -0.000000
    29  H    0.117394  -0.000000
    30  H    0.126984   0.000000
    31  H    0.127418  -0.000000
    32  H    0.129774   0.000000
    33  H    0.129430   0.000000
    34  C   -0.343205   0.000000
    35  H    0.124331  -0.000000
    36  H    0.124138  -0.000000
    37  C   -0.252012  -0.000000
    38  C   -0.687288   0.000000
    39  H    0.131101  -0.000000
    40  H    0.131149  -0.000000
    41  H    0.140177   0.000000
    42  H    0.145960   0.000000
    43  H    0.140073  -0.000000
 Sum of Mulliken charges =  -0.00000   0.00000

 Dipole moment (field-independent basis, Debye):
    X=             -2.6426    Y=             -0.3705    Z=             -1.2121  Tot=              2.9308
 Quadrupole moment (field-independent basis, Debye-Ang):
   XX=           -105.0556   YY=           -130.2529   ZZ=           -130.6931
   XY=             11.4561   XZ=              5.5035   YZ=              4.1541

 Normal termination of Gaussian 16 at Sun Jan 21 08:17:10 2024.
