 Gaussian 16, Revision A.03,
 Gaussian 16:  ES64L-G16RevA.03 25-Dec-2016

 --------------------------------------
 #P UB3LYP/6-311++G(d,p) nosym opt freq
 --------------------------------------

 --------
 Oxidized
 --------
 Symbolic Z-matrix:
 Charge =  0 Multiplicity = 1

 SCF Done:  E(UB3LYP) =  -925.120004963     A.U. after   17 cycles
 Optimization completed.
    -- Stationary point found.
 Normal termination of Gaussian 16 at Mon Jan  8 01:34:09 2024.

 ----------------------------------------------------------------------
 #P Geom=AllCheck Guess=TCheck SCRF=Check GenChk UB3LYP/6-311++G(d,p) F
 req
 ----------------------------------------------------------------------

 Structure from the checkpoint file:  "286.chk"
 --------
 Oxidized
 --------
 Charge =  0 Multiplicity = 1

                          Input orientation:
 ---------------------------------------------------------------------
 Center     Atomic      Atomic             Coordinates (Angstroms)
 Number     Number       Type             X           Y           Z
 ---------------------------------------------------------------------
      1          6           0       -0.281338    3.827727   -0.204914
      2          6           0       -1.500920    3.219846   -0.486435
      3          6           0       -1.540072    1.876522   -0.864621
      4          6           0        0.899758    3.088256   -0.302959
      5          6           0        0.863627    1.736602   -0.682982
      6          6           0       -0.362989    1.136719   -0.962435
      7          6           0        2.199799    3.717391   -0.007543
      8          6           0        3.430727    2.885075   -0.132949
      9          6           0        3.420631    1.576659   -0.488291
     10          6           0        2.126915    0.929473   -0.791569
     11          8           0        2.334106    4.886640    0.335900
     12          8           0        2.075370   -0.246697   -1.123515
     13          1           0       -0.225394    4.868184    0.090886
     14          1           0       -2.419662    3.789991   -0.411959
     15          1           0       -2.491277    1.404762   -1.083667
     16          1           0       -0.375475    0.093932   -1.254227
     17          8           0        4.565748    3.546404    0.146659
     18          6           0        4.679110    0.765634   -0.617852
     19          6           0        5.248830    0.770992   -2.052859
     20          6           0        6.525633   -0.066104   -2.180723
     21          6           0        7.109540   -0.070135   -3.598000
     22          6           0        8.387318   -0.906492   -3.731681
     23          1           0        4.297454    4.454019    0.385699
     24          1           0        4.458266   -0.264900   -0.328912
     25          1           0        5.431359    1.159271    0.070505
     26          1           0        5.455529    1.804480   -2.353219
     27          1           0        4.487756    0.386009   -2.739786
     28          1           0        6.312961   -1.097786   -1.873084
     29          1           0        7.279736    0.313442   -1.479180
     30          1           0        7.319389    0.962443   -3.905727
     31          1           0        6.354378   -0.448784   -4.298705
     32          1           0        8.177225   -1.938963   -3.423683
     33          1           0        9.142140   -0.528262   -3.030021
     34          6           0        8.972580   -0.911572   -5.148215
     35          1           0        9.182983    0.120819   -5.457124
     36          1           0        8.218204   -1.289872   -5.850525
     37          6           0       10.250303   -1.747569   -5.284062
     38          6           0       10.827325   -1.746401   -6.702716
     39          1           0       10.040338   -2.779254   -4.976355
     40          1           0       11.004532   -1.369618   -4.583007
     41          1           0       10.108868   -2.151910   -7.422246
     42          1           0       11.736629   -2.350767   -6.765621
     43          1           0       11.080273   -0.731576   -7.026000
 ---------------------------------------------------------------------

 SCF Done:  E(UB3LYP) =  -925.120004963     A.U. after    2 cycles

 Alpha  occ. eigenvalues --  -19.17885 -19.14995 -19.12596 -10.29385 -10.27804
 Alpha  occ. eigenvalues --  -10.26742 -10.21565 -10.21385 -10.20789 -10.20773
 Alpha  occ. eigenvalues --  -10.20646 -10.20486 -10.20304 -10.17621 -10.16786
 Alpha  occ. eigenvalues --  -10.16310 -10.16271 -10.16177 -10.16107 -10.16064
 Alpha  occ. eigenvalues --  -10.15594  -1.10934  -1.06752  -1.05874  -0.89783
 Alpha  occ. eigenvalues --   -0.84624  -0.81306  -0.79870  -0.78580  -0.77916
 Alpha  occ. eigenvalues --   -0.74951  -0.71484  -0.69153  -0.66499  -0.65350
 Alpha  occ. eigenvalues --   -0.62657  -0.60927  -0.59550  -0.57849  -0.57740
 Alpha  occ. eigenvalues --   -0.57477  -0.54400  -0.52182  -0.50132  -0.48646
 Alpha  occ. eigenvalues --   -0.48281  -0.47341  -0.46759  -0.46402  -0.45831
 Alpha  occ. eigenvalues --   -0.44715  -0.43986  -0.42893  -0.42760  -0.42327
 Alpha  occ. eigenvalues --   -0.42108  -0.40982  -0.40785  -0.39553  -0.39007
 Alpha  occ. eigenvalues --   -0.38494  -0.37971  -0.37750  -0.36399  -0.35913
 Alpha  occ. eigenvalues --   -0.35821  -0.33652  -0.33624  -0.32587  -0.32487
 Alpha  occ. eigenvalues --   -0.32177  -0.31175  -0.30221  -0.29384  -0.28517
 Alpha  occ. eigenvalues --   -0.27552  -0.25817
 Alpha virt. eigenvalues --   -0.12641  -0.06056  -0.03077  -0.01287  -0.00585
 Alpha virt. eigenvalues --   -0.00230   0.00656   0.00816   0.01138   0.01257
 Alpha virt. eigenvalues --    0.02082   0.02172   0.02346   0.02997   0.03440

  Beta  occ. eigenvalues --  -19.17885 -19.14995 -19.12596 -10.29385 -10.27804
  Beta  occ. eigenvalues --  -10.26742 -10.21565 -10.21385 -10.20789 -10.20773
  Beta  occ. eigenvalues --  -10.20646 -10.20486 -10.20304 -10.17621 -10.16786
  Beta  occ. eigenvalues --  -10.16310 -10.16271 -10.16177 -10.16107 -10.16064
  Beta  occ. eigenvalues --  -10.15594  -1.10934  -1.06752  -1.05874  -0.89783
  Beta  occ. eigenvalues --   -0.84624  -0.81306  -0.79870  -0.78580  -0.77916
  Beta  occ. eigenvalues --   -0.74951  -0.71484  -0.69153  -0.66499  -0.65350
  Beta  occ. eigenvalues --   -0.62657  -0.60927  -0.59550  -0.57849  -0.57740
  Beta  occ. eigenvalues --   -0.57477  -0.54400  -0.52182  -0.50132  -0.48646
  Beta  occ. eigenvalues --   -0.48281  -0.47341  -0.46759  -0.46402  -0.45831
  Beta  occ. eigenvalues --   -0.44715  -0.43986  -0.42893  -0.42760  -0.42327
  Beta  occ. eigenvalues --   -0.42108  -0.40982  -0.40785  -0.39553  -0.39007
  Beta  occ. eigenvalues --   -0.38494  -0.37971  -0.37750  -0.36399  -0.35913
  Beta  occ. eigenvalues --   -0.35821  -0.33652  -0.33624  -0.32587  -0.32487
  Beta  occ. eigenvalues --   -0.32177  -0.31175  -0.30221  -0.29384  -0.28517
  Beta  occ. eigenvalues --   -0.27552  -0.25817
  Beta virt. eigenvalues --   -0.12641  -0.06056  -0.03077  -0.01287  -0.00585
  Beta virt. eigenvalues --   -0.00230   0.00656   0.00816   0.01138   0.01257
  Beta virt. eigenvalues --    0.02082   0.02172   0.02346   0.02997   0.03440

 Mulliken charges and spin densities:
               1          2
     1  C    0.149625   0.000000
     2  C   -0.331064  -0.000000
     3  C   -0.341310   0.000000
     4  C    0.525947   0.000000
     5  C   -0.074324  -0.000000
     6  C    0.130666  -0.000000
     7  C   -0.897552  -0.000000
     8  C   -0.481652   0.000000
     9  C    1.944475   0.000000
    10  C   -0.867670   0.000000
    11  O   -0.277944   0.000000
    12  O   -0.209859  -0.000000
    13  H    0.186092  -0.000000
    14  H    0.180076   0.000000
    15  H    0.177654   0.000000
    16  H    0.191651   0.000000
    17  O   -0.197007  -0.000000
    18  C   -0.358087  -0.000000
    19  C   -0.715977   0.000000
    20  C   -0.113164  -0.000000
    21  C    0.017215  -0.000000
    22  C   -0.127569  -0.000000
    23  H    0.287902  -0.000000
    24  H    0.226569   0.000000
    25  H    0.232739   0.000000
    26  H    0.172069   0.000000
    27  H    0.180798  -0.000000
    28  H    0.117047   0.000000
    29  H    0.109843  -0.000000
    30  H    0.120979   0.000000
    31  H    0.123082   0.000000
    32  H    0.125199   0.000000
    33  H    0.123754   0.000000
    34  C   -0.336721  -0.000000
    35  H    0.119060   0.000000
    36  H    0.119469   0.000000
    37  C   -0.238871   0.000000
    38  C   -0.661206  -0.000000
    39  H    0.127786  -0.000000
    40  H    0.127398   0.000000
    41  H    0.135453  -0.000000
    42  H    0.142301   0.000000
    43  H    0.135127  -0.000000
 Sum of Mulliken charges =  -0.00000   0.00000

 Dipole moment (field-independent basis, Debye):
    X=             -1.9420    Y=              0.8718    Z=             -0.0621  Tot=              2.1297
 Quadrupole moment (field-independent basis, Debye-Ang):
   XX=           -122.9104   YY=           -131.2910   ZZ=           -130.7807
   XY=             -3.8016   XZ=              1.6696   YZ=             -1.8439

  Exact polarizability: 287.084 -25.287 238.452 -18.811  36.579 171.022
 Approx polarizability: 375.181   5.993 443.604  14.330  62.379 247.452

                      1                      2                      3
                      A                      A                      A
 Frequencies --     14.1362                24.5107                32.0017
 Red. masses --      5.2762                 5.2578                 1.5775
 Frc consts  --      0.0006                 0.0019                 0.0010
 IR Inten    --      0.1157                 0.5871                 0.0170

                      4                      5                      6
                      A                      A                      A
 Frequencies --     44.3419                57.7320                81.5507
 Red. masses --      3.6322                 5.3923                 5.8814
 Frc consts  --      0.0042                 0.0106                 0.0230
 IR Inten    --      0.1987                 2.5087                 1.3289

                      7                      8                      9
                      A                      A                      A
 Frequencies --     93.4185               103.0482               112.3931
 Red. masses --      1.6892                 2.6195                 4.8187
 Frc consts  --      0.0087                 0.0164                 0.0359
 IR Inten    --      0.1164                 0.0878                 0.1376

                     10                     11                     12
                      A                      A                      A
 Frequencies --    127.5239               147.4855               155.9603
 Red. masses --      6.3507                 1.7777                 2.1656
 Frc consts  --      0.0608                 0.0228                 0.0310
 IR Inten    --      0.0279                 0.0045                 0.0387

                     13                     14                     15
                      A                      A                      A
 Frequencies --    163.0835               174.3628               243.6992
 Red. masses --      3.7604                 6.6179                 1.1198
 Frc consts  --      0.0589                 0.1185                 0.0392
 IR Inten    --      0.0450                 0.5161                 0.0004

                     16                     17                     18
                      A                      A                      A
 Frequencies --    249.6981               251.6588               302.9176
 Red. masses --      4.3426                 4.3253                 2.9290
 Frc consts  --      0.1595                 0.1614                 0.1584
 IR Inten    --      0.0901                 0.1931                 2.4249

                     19                     20                     21
                      A                      A                      A
 Frequencies --    310.9456               338.2637               365.6605
 Red. masses --      3.6046                 4.9196                 5.2623
 Frc consts  --      0.2053                 0.3317                 0.4146
 IR Inten    --      0.2460                 2.3537                 5.9172

                     22                     23                     24
                      A                      A                      A
 Frequencies --    388.7545               416.0624               420.2851
 Red. masses --      9.4542                 4.3442                 8.1847
 Frc consts  --      0.8418                 0.4431                 0.8518
 IR Inten    --     20.9774                10.6645                 4.1995

                     25                     26                     27
                      A                      A                      A
 Frequencies --    443.1620               450.3068               468.0540
 Red. masses --      4.0313                 3.9579                 4.4729
 Frc consts  --      0.4665                 0.4729                 0.5773
 IR Inten    --      2.9507                 0.5859                 3.6521

                     28                     29                     30
                      A                      A                      A
 Frequencies --    488.9823               526.8978               589.3902
 Red. masses --      4.2594                 6.7659                 5.8721
 Frc consts  --      0.6001                 1.1067                 1.2019
 IR Inten    --      2.1864                 3.4141                 6.8551

                     31                     32                     33
                      A                      A                      A
 Frequencies --    646.8601               654.4795               677.8355
 Red. masses --      1.1506                 5.7666                 6.0091
 Frc consts  --      0.2836                 1.4553                 1.6267
 IR Inten    --     69.0290                 7.7296                 2.6230

                     34                     35                     36
                      A                      A                      A
 Frequencies --    707.5555               713.4456               731.6652
 Red. masses --      3.3561                 4.6182                 1.0617
 Frc consts  --      0.9899                 1.3850                 0.3349
 IR Inten    --      2.6952                 3.6887                 5.1349

                     37                     38                     39
                      A                      A                      A
 Frequencies --    735.7172               736.1552               752.7316
 Red. masses --      1.2833                 1.9665                 1.2327
 Frc consts  --      0.4093                 0.6279                 0.4115
 IR Inten    --     16.2223                61.4976                 1.6002

                     40                     41                     42
                      A                      A                      A
 Frequencies --    763.6610               792.2592               805.7923
 Red. masses --      6.6371                 1.3307                 1.8902
 Frc consts  --      2.2805                 0.4921                 0.7231
 IR Inten    --      2.4125                 0.6730                12.0315

                     43                     44                     45
                      A                      A                      A
 Frequencies --    844.6373               890.6337               895.9523
 Red. masses --      1.7570                 1.7771                 1.9949
 Frc consts  --      0.7385                 0.8306                 0.9435
 IR Inten    --      4.5440                10.7038                 2.3250

                     46                     47                     48
                      A                      A                      A
 Frequencies --    912.8442               950.3844               955.8277
 Red. masses --      1.3245                 3.9080                 1.5555
 Frc consts  --      0.6503                 2.0797                 0.8373
 IR Inten    --      0.0109                21.8411                 6.7562

                     49                     50                     51
                      A                      A                      A
 Frequencies --    986.8249               997.7470              1004.6194
 Red. masses --      4.5987                 1.3822                 4.0401
 Frc consts  --      2.6386                 0.8107                 2.4024
 IR Inten    --      9.7496                 1.3346                21.6045

                     52                     53                     54
                      A                      A                      A
 Frequencies --   1016.2874              1021.3830              1041.0751
 Red. masses --      1.3266                 1.7702                 2.4660
 Frc consts  --      0.8073                 1.0880                 1.5747
 IR Inten    --      0.1345                 3.7764                12.6532

                     55                     56                     57
                      A                      A                      A
 Frequencies --   1046.6490              1051.8667              1057.8434
 Red. masses --      2.2781                 2.9575                 1.8658
 Frc consts  --      1.4703                 1.9280                 1.2302
 IR Inten    --     11.9679                 3.7129                 5.6836

                     58                     59                     60
                      A                      A                      A
 Frequencies --   1064.0927              1068.3557              1110.4978
 Red. masses --      2.3559                 2.3811                 2.1899
 Frc consts  --      1.5717                 1.6012                 1.5912
 IR Inten    --      0.1420                 0.1465                 1.7434

                     61                     62                     63
                      A                      A                      A
 Frequencies --   1134.7078              1136.9447              1182.3814
 Red. masses --      2.1835                 1.9477                 1.1778
 Frc consts  --      1.6564                 1.4834                 0.9702
 IR Inten    --     10.9914                25.0564                21.3470

                     64                     65                     66
                      A                      A                      A
 Frequencies --   1195.6170              1214.0283              1230.6429
 Red. masses --      2.2679                 1.7468                 2.4202
 Frc consts  --      1.9101                 1.5169                 2.1595
 IR Inten    --     29.5869                 8.9533                53.2776

                     67                     68                     69
                      A                      A                      A
 Frequencies --   1238.7467              1259.2295              1281.6807
 Red. masses --      1.2645                 1.4696                 1.4637
 Frc consts  --      1.1432                 1.3730                 1.4166
 IR Inten    --      0.5818                64.9099                14.1168

                     70                     71                     72
                      A                      A                      A
 Frequencies --   1291.0889              1297.1816              1308.7700
 Red. masses --      1.5086                 1.6092                 1.9169
 Frc consts  --      1.4816                 1.5953                 1.9345
 IR Inten    --     41.4907                95.0139                78.2001

                     73                     74                     75
                      A                      A                      A
 Frequencies --   1318.3285              1327.0635              1331.1806
 Red. masses --      1.7353                 1.0339                 1.3883
 Frc consts  --      1.7769                 1.0728                 1.4495
 IR Inten    --    107.7275                 1.8044                 0.9695

                     76                     77                     78
                      A                      A                      A
 Frequencies --   1334.3277              1338.0526              1344.8271
 Red. masses --      1.4205                 1.0714                 1.4313
 Frc consts  --      1.4901                 1.1302                 1.5252
 IR Inten    --     33.2276                 0.2982                21.4910

                     79                     80                     81
                      A                      A                      A
 Frequencies --   1363.9062              1366.8649              1384.8023
 Red. masses --      1.3957                 6.2797                 1.4512
 Frc consts  --      1.5297                 6.9126                 1.6397
 IR Inten    --      5.7227                66.2883                 2.6202

                     82                     83                     84
                      A                      A                      A
 Frequencies --   1398.7233              1399.6058              1401.6106
 Red. masses --      1.6132                 1.6055                 2.0166
 Frc consts  --      1.8595                 1.8530                 2.3341
 IR Inten    --     58.2865                 1.0580               284.2675

                     85                     86                     87
                      A                      A                      A
 Frequencies --   1412.7764              1479.4258              1484.3200
 Red. masses --      1.2508                 1.1922                 1.1047
 Frc consts  --      1.4709                 1.5374                 1.4340
 IR Inten    --      2.3401                 5.1210                 0.1139

                     88                     89                     90
                      A                      A                      A
 Frequencies --   1485.2329              1486.6873              1488.5006
 Red. masses --      1.3634                 1.4261                 1.0844
 Frc consts  --      1.7721                 1.8572                 1.4156
 IR Inten    --      2.4344                 9.4187                 0.7393

                     91                     92                     93
                      A                      A                      A
 Frequencies --   1493.4034              1499.5518              1500.9918
 Red. masses --      1.0776                 1.0398                 1.0844
 Frc consts  --      1.4160                 1.3776                 1.4394
 IR Inten    --      0.8260                 7.9514                 2.0731

                     94                     95                     96
                      A                      A                      A
 Frequencies --   1506.6072              1508.7153              1514.4584
 Red. masses --      2.6353                 1.0944                 1.0974
 Frc consts  --      3.5244                 1.4677                 1.4830
 IR Inten    --      4.1594                 0.3736                12.9998

                     97                     98                     99
                      A                      A                      A
 Frequencies --   1613.4159              1627.8856              1690.5091
 Red. masses --      6.6589                 5.9401                 7.9899
 Frc consts  --     10.2128                 9.2745                13.4532
 IR Inten    --      2.0885                79.0103                47.1250

                    100                    101                    102
                      A                      A                      A
 Frequencies --   1702.0927              1704.4910              2990.1703
 Red. masses --     11.1965                11.2480                 1.0574
 Frc consts  --     19.1116                19.2537                 5.5704
 IR Inten    --     58.1285               405.0747                 1.3544

                    103                    104                    105
                      A                      A                      A
 Frequencies --   2992.0437              2995.2154              3001.8260
 Red. masses --      1.0576                 1.0583                 1.0596
 Frc consts  --      5.5782                 5.5938                 5.6254
 IR Inten    --      0.3260                 0.2416                12.1922

                    106                    107                    108
                      A                      A                      A
 Frequencies --   3006.8207              3008.0062              3012.4661
 Red. masses --      1.0942                 1.0637                 1.0994
 Frc consts  --      5.8287                 5.6708                 5.8781
 IR Inten    --     11.8434                96.6624                 0.3853

                    109                    110                    111
                      A                      A                      A
 Frequencies --   3016.5207              3018.4477              3023.3501
 Red. masses --      1.0358                 1.0639                 1.0990
 Frc consts  --      5.5532                 5.7110                 5.9184
 IR Inten    --     44.0012                43.8887                 4.3327

                    112                    113                    114
                      A                      A                      A
 Frequencies --   3036.0471              3046.8503              3048.5069
 Red. masses --      1.1044                 1.0690                 1.0942
 Frc consts  --      5.9979                 5.8471                 5.9914
 IR Inten    --      0.0513                33.5118                59.6365

                    115                    116                    117
                      A                      A                      A
 Frequencies --   3059.7086              3076.9460              3081.2774
 Red. masses --      1.1041                 1.1025                 1.1009
 Frc consts  --      6.0902                 6.1497                 6.1584
 IR Inten    --     64.7848                73.3238                47.5757

                    118                    119                    120
                      A                      A                      A
 Frequencies --   3094.2971              3171.6844              3185.7515
 Red. masses --      1.1056                 1.0870                 1.0915
 Frc consts  --      6.2370                 6.4429                 6.5267
 IR Inten    --     14.4118                 3.1467                 8.3314

                    121                    122                    123
                      A                      A                      A
 Frequencies --   3199.5335              3202.9119              3617.7151
 Red. masses --      1.0933                 1.0948                 1.0642
 Frc consts  --      6.5941                 6.6171                 8.2064
 IR Inten    --      1.6107                 8.5479               153.7501

 - Thermochemistry -
 -------------------
 Temperature   298.150 Kelvin.  Pressure   1.00000 Atm.
 Atom     1 has atomic number  6 and mass  12.00000

 Molecular mass:   286.15689 amu.
 Principal axes and moments of inertia in atomic units:
                           1         2         3
     Eigenvalues --  2501.45621********************
           X            0.82291   0.54488   0.16101
           Y           -0.37334   0.73218  -0.56968
           Z           -0.42829   0.40868   0.80594
 This molecule is an asymmetric top.
 Rotational symmetry number  1.
 Warning -- assumption of classical behavior for rotation
           may cause significant error
 Rotational temperatures (Kelvin)      0.03463     0.00432     0.00403
 Rotational constants (GHZ):           0.72148     0.09002     0.08407
 Zero-point vibrational energy     953348.6 (Joules/Mol)
                                  227.85579 (Kcal/Mol)
 Warning -- explicit consideration of  30 degrees of freedom as
           vibrations may cause significant error
 Vibrational temperatures:     20.34    35.27    46.04    63.80    83.06
          (Kelvin)            117.33   134.41   148.26   161.71   183.48
                              212.20   224.39   234.64   250.87   350.63
                              359.26   362.08   435.83   447.38   486.69
                              526.10   559.33   598.62   604.70   637.61
                              647.89   673.43   703.54   758.09   848.00
                              930.69   941.65   975.25  1018.01  1026.49
                             1052.70  1058.53  1059.16  1083.01  1098.74
                             1139.88  1159.36  1215.24  1281.42  1289.08
                             1313.38  1367.39  1375.22  1419.82  1435.54
                             1445.42  1462.21  1469.54  1497.87  1505.89
                             1513.40  1522.00  1530.99  1537.13  1597.76
                             1632.59  1635.81  1701.18  1720.23  1746.72
                             1770.62  1782.28  1811.75  1844.05  1857.59
                             1866.35  1883.03  1896.78  1909.35  1915.27
                             1919.80  1925.16  1934.91  1962.36  1966.61
                             1992.42  2012.45  2013.72  2016.61  2032.67
                             2128.56  2135.61  2136.92  2139.01  2141.62
                             2148.67  2157.52  2159.59  2167.67  2170.70
                             2178.97  2321.35  2342.16  2432.27  2448.93
                             2452.38  4302.19  4304.88  4309.45  4318.96
                             4326.14  4327.85  4334.27  4340.10  4342.87
                             4349.93  4368.19  4383.74  4386.12  4402.24
                             4427.04  4433.27  4452.00  4563.35  4583.59
                             4603.42  4608.28  5205.09

 Zero-point correction=                           0.363111 (Hartree/Particle)
 Thermal correction to Energy=                    0.384037
 Thermal correction to Enthalpy=                  0.384981
 Thermal correction to Gibbs Free Energy=         0.310135
 Sum of electronic and zero-point Energies=           -924.756894
 Sum of electronic and thermal Energies=              -924.735968
 Sum of electronic and thermal Enthalpies=            -924.735024
 Sum of electronic and thermal Free Energies=         -924.809870

                     E (Thermal)             CV                S
                      KCal/Mol        Cal/Mol-Kelvin    Cal/Mol-Kelvin
 Total                  240.987             78.114            157.527
 Electronic               0.000              0.000              0.000
 Translational            0.889              2.981             42.852
 Rotational               0.889              2.981             35.330
 Vibrational            239.209             72.153             79.345
 Vibration     1          0.593              1.986              7.323
 Vibration     2          0.593              1.985              6.230
 Vibration     3          0.594              1.983              5.701
 Vibration     4          0.595              1.980              5.055
 Vibration     5          0.596              1.974              4.533
 Vibration     6          0.600              1.962              3.853
 Vibration     7          0.602              1.954              3.587
 Vibration     8          0.605              1.947              3.396
 Vibration     9          0.607              1.939              3.227
 Vibration    10          0.611              1.926              2.983
 Vibration    11          0.617              1.905              2.704
 Vibration    12          0.620              1.896              2.598
 Vibration    13          0.623              1.888              2.514
 Vibration    14          0.627              1.874              2.388
 Vibration    15          0.659              1.773              1.776
 Vibration    16          0.662              1.763              1.733
 Vibration    17          0.664              1.760              1.719
 Vibration    18          0.694              1.668              1.401
 Vibration    19          0.700              1.653              1.357
 Vibration    20          0.719              1.599              1.220
 Vibration    21          0.739              1.543              1.098
 Vibration    22          0.757              1.494              1.005
 Vibration    23          0.779              1.435              0.905
 Vibration    24          0.783              1.426              0.891
 Vibration    25          0.803              1.376              0.817
 Vibration    26          0.809              1.360              0.795
 Vibration    27          0.825              1.321              0.743
 Vibration    28          0.845              1.274              0.686
 Vibration    29          0.882              1.190              0.594
 Vibration    30          0.947              1.054              0.468

 Optimization completed.
    -- Stationary point found.
 Normal termination of Gaussian 16 at Mon Jan  8 05:03:33 2024.
