 Q-Chem 5.4, Q-Chem, Inc., Pleasanton, CA (2021)
 Q-Chem 5.4.0 for Intel X86 EM64T Linux

User input:
--------------------------------------------------------------
$molecule
-2 1
Br                -3.1142420000     -1.1457180000      0.0155150000
C                 -1.2930050000     -0.4631990000      0.0064810000
C                 -1.0286880000      0.9102290000      0.0084330000
Br                -2.4664240000      2.2197790000      0.0203690000
C                  0.2879130000      1.4955420000      0.0021350000
O                  0.5282400000      2.7442720000      0.0039160000
C                  1.2930610000      0.4632600000     -0.0064820000
C                  1.0286550000     -0.9101940000     -0.0084340000
Br                 2.4664680000     -2.2197090000     -0.0203690000
C                 -0.2879100000     -1.4955110000     -0.0021370000
O                 -0.5283060000     -2.7442790000     -0.0039150000
Br                 3.1142390000      1.1455290000     -0.0155120000
$end
$rem
MAX_SCF_CYCLES=200
BASIS  =  6-311++G(d,p)
GUI  =  2
JOB_TYPE  =  SP
METHOD  =  B3LYP
SOLVENT_METHOD = PCM
$end
$pcm
theory = CPCM
$end
$solvent
dielectric 37.219
opticaldielectric 1.43
$end

--------------------------------------------------------------

             Standard Nuclear Orientation (Angstroms)
    I     Atom           X                Y                Z
 ----------------------------------------------------------------
    1      Br     -3.1142420000    -1.1457180000     0.0155150000
    2      C      -1.2930050000    -0.4631990000     0.0064810000
    3      C      -1.0286880000     0.9102290000     0.0084330000
    4      Br     -2.4664240000     2.2197790000     0.0203690000
    5      C       0.2879130000     1.4955420000     0.0021350000
    6      O       0.5282400000     2.7442720000     0.0039160000
    7      C       1.2930610000     0.4632600000    -0.0064820000
    8      C       1.0286550000    -0.9101940000    -0.0084340000
    9      Br      2.4664680000    -2.2197090000    -0.0203690000
   10      C      -0.2879100000    -1.4955110000    -0.0021370000
   11      O      -0.5283060000    -2.7442790000    -0.0039150000
   12      Br      3.1142390000     1.1455290000    -0.0155120000
 ----------------------------------------------------------------

    8  -10676.0163904614      5.99e-06  Convergence criterion met
 Total energy in the final basis set =   -10676.0163904614

                    Orbital Energies (a.u.)
 --------------------------------------------------------------

 Alpha MOs
 -- Occupied --
********-482.8159-482.8158-482.8158 -62.4687 -62.4687 -62.4686 -62.4686
-56.2890 -56.2890 -56.2890 -56.2890 -56.2855 -56.2855 -56.2854 -56.2854
-56.2851 -56.2851 -56.2851 -56.2851 -19.0406 -19.0406 -10.2121 -10.2120
-10.2074 -10.2074 -10.2069 -10.2069  -8.6773  -8.6773  -8.6773  -8.6773
 -6.5084  -6.5084  -6.5083  -6.5083  -6.4964  -6.4964  -6.4963  -6.4963
 -6.4955  -6.4955  -6.4954  -6.4954  -2.6195  -2.6195  -2.6194  -2.6194
 -2.6159  -2.6159  -2.6158  -2.6158  -2.6152  -2.6152  -2.6152  -2.6152
 -2.6059  -2.6059  -2.6059  -2.6059  -2.6058  -2.6058  -2.6058  -2.6058
 -0.9698  -0.9659  -0.8438  -0.8164  -0.7750  -0.7749  -0.7503  -0.6763
 -0.6684  -0.5573  -0.5520  -0.4849  -0.4396  -0.4060  -0.4049  -0.3862
 -0.3845  -0.3698  -0.3536  -0.3483  -0.3351  -0.2985  -0.2962  -0.2946
 -0.2897  -0.2835  -0.2667  -0.2665  -0.2463  -0.2256  -0.2205  -0.2180
 -0.1457

          Ground-State Mulliken Net Atomic Charges

     Atom                 Charge (a.u.)
  ----------------------------------------
      1 Br                   -0.213948
      2 C                     0.459765
      3 C                     0.457907
      4 Br                   -0.213586
      5 C                    -0.935527
      6 O                    -0.554538
      7 C                     0.459634
      8 C                     0.457885
      9 Br                   -0.213627
     10 C                    -0.935447
     11 O                    -0.554594
     12 Br                   -0.213923
  ----------------------------------------
  Sum of atomic charges =    -2.000000

                    Cartesian Multipole Moments
 -----------------------------------------------------------------
    Charge (ESU x 10^10)
                -9.6064
    Dipole Moment (Debye)
         X       0.0007      Y       0.0013      Z      -0.0000
       Tot       0.0015
    Quadrupole Moments (Debye-Ang)
        XX    -153.1369     XY      -6.8675     YY    -187.4256
        XZ       0.1399     YZ      -0.1154     ZZ    -126.7660

 Total job time:  24.79s(wall), 140.80s(cpu)
        *  Thank you very much for using Q-Chem.  Have a nice day.  *
