 Q-Chem 5.4, Q-Chem, Inc., Pleasanton, CA (2021)
 Q-Chem 5.4.0 for Intel X86 EM64T Linux

User input:
--------------------------------------------------------------
$molecule
-1 2
C                 -1.8396950000      1.9160740000     -5.1437300000
C                 -1.7480750000      0.6001200000     -5.5504170000
C                 -1.3240830000     -0.3904920000     -4.6371730000
C                 -1.5147440000      2.2955510000     -3.8222270000
C                 -1.0916460000      1.3015430000     -2.9053700000
C                 -1.0034910000     -0.0395750000     -3.3411020000
C                 -1.6146750000      3.6987880000     -3.4334620000
C                 -0.7578940000      1.6304950000     -1.5234770000
C                 -1.2496000000      4.0463960000     -2.0639820000
C                 -0.8689620000      3.0222160000     -1.1145020000
C                 -1.2948210000      5.4141170000     -1.6406370000
C                 -1.0057700000      5.7230710000     -0.3150780000
C                 -0.6690180000      4.7394430000      0.6164920000
C                 -0.5923780000      3.3922950000      0.2501100000
O                 -2.0151090000      4.5510630000     -4.2866450000
O                 -0.3865950000      0.6966000000     -0.7394400000
N                 -1.5660360000      6.4514510000     -2.5387620000
N                 -0.2768020000      2.4250900000      1.1810640000
C                  0.2233820000      2.7290130000      2.4917320000
H                 -2.1601880000      2.6981960000     -5.8215670000
H                 -2.0002220000      0.3257280000     -6.5706500000
H                 -1.2513000000     -1.4264950000     -4.9552700000
H                 -0.6777050000     -0.7776920000     -2.6180380000
H                 -1.0296810000      6.7649520000     -0.0051780000
H                 -0.4624120000      5.0326840000      1.6385410000
H                 -1.9558260000      6.1050130000     -3.4168800000
H                 -2.0320620000      7.2472980000     -2.1282490000
H                 -0.1496660000      1.4993270000      0.7646770000
H                 -0.5244910000      3.2383020000      3.1182710000
H                  1.1216720000      3.3698880000      2.4743390000
H                  0.4860410000      1.7931090000      2.9900890000
$end

$rem
BASIS  =  6-311++G(d,p)
GUI  =  2
JOB_TYPE  =  SP
METHOD  =  B3LYP
SCF_CONVERGENCE  = 8
SOLVENT_METHOD = sm12
$end

$smx
solvent dimethylformamide
charges CM5
$end

--------------------------------------------------------------

             Standard Nuclear Orientation (Angstroms)
    I     Atom           X                Y                Z
 ----------------------------------------------------------------
    1      C      -1.8396950000     1.9160740000    -5.1437300000
    2      C      -1.7480750000     0.6001200000    -5.5504170000
    3      C      -1.3240830000    -0.3904920000    -4.6371730000
    4      C      -1.5147440000     2.2955510000    -3.8222270000
    5      C      -1.0916460000     1.3015430000    -2.9053700000
    6      C      -1.0034910000    -0.0395750000    -3.3411020000
    7      C      -1.6146750000     3.6987880000    -3.4334620000
    8      C      -0.7578940000     1.6304950000    -1.5234770000
    9      C      -1.2496000000     4.0463960000    -2.0639820000
   10      C      -0.8689620000     3.0222160000    -1.1145020000
   11      C      -1.2948210000     5.4141170000    -1.6406370000
   12      C      -1.0057700000     5.7230710000    -0.3150780000
   13      C      -0.6690180000     4.7394430000     0.6164920000
   14      C      -0.5923780000     3.3922950000     0.2501100000
   15      O      -2.0151090000     4.5510630000    -4.2866450000
   16      O      -0.3865950000     0.6966000000    -0.7394400000
   17      N      -1.5660360000     6.4514510000    -2.5387620000
   18      N      -0.2768020000     2.4250900000     1.1810640000
   19      C       0.2233820000     2.7290130000     2.4917320000
   20      H      -2.1601880000     2.6981960000    -5.8215670000
   21      H      -2.0002220000     0.3257280000    -6.5706500000
   22      H      -1.2513000000    -1.4264950000    -4.9552700000
   23      H      -0.6777050000    -0.7776920000    -2.6180380000
   24      H      -1.0296810000     6.7649520000    -0.0051780000
   25      H      -0.4624120000     5.0326840000     1.6385410000
   26      H      -1.9558260000     6.1050130000    -3.4168800000
   27      H      -2.0320620000     7.2472980000    -2.1282490000
   28      H      -0.1496660000     1.4993270000     0.7646770000
   29      H      -0.5244910000     3.2383020000     3.1182710000
   30      H       1.1216720000     3.3698880000     2.4743390000
   31      H       0.4860410000     1.7931090000     2.9900890000
 ----------------------------------------------------------------

   16    -839.0842599638      9.96e-09  Convergence criterion met
 Total energy in the final basis set =     -839.1758678401

                    Orbital Energies (a.u.)
 --------------------------------------------------------------

 Alpha MOs
 -- Occupied --
-19.0775 -19.0773 -14.3115 -14.3040 -10.2286 -10.2283 -10.2151 -10.2119
-10.1990 -10.1811 -10.1806 -10.1790 -10.1785 -10.1776 -10.1772 -10.1768
-10.1767 -10.1729 -10.1718  -1.0047  -1.0025  -0.9306  -0.9092  -0.8636
 -0.8315  -0.7882  -0.7566  -0.7470  -0.7357  -0.6832  -0.6696  -0.6394
 -0.6273  -0.5868  -0.5694  -0.5478  -0.5298  -0.5154  -0.4960  -0.4802
 -0.4705  -0.4680  -0.4567  -0.4436  -0.4386  -0.4302  -0.4232  -0.4182
 -0.4141  -0.4000  -0.3894  -0.3859  -0.3799  -0.3785  -0.3739  -0.3545
 -0.3474  -0.3427  -0.3280  -0.2742  -0.2624  -0.2618  -0.2535  -0.2474
 -0.2381  -0.1930  -0.1387

 Beta MOs
 -- Occupied --
-19.0727 -19.0722 -14.3109 -14.3033 -10.2271 -10.2267 -10.2148 -10.2115
-10.1990 -10.1807 -10.1802 -10.1790 -10.1785 -10.1771 -10.1770 -10.1766
-10.1762 -10.1716 -10.1705  -0.9964  -0.9939  -0.9290  -0.9075  -0.8616
 -0.8298  -0.7843  -0.7547  -0.7452  -0.7339  -0.6810  -0.6637  -0.6375
 -0.6254  -0.5857  -0.5677  -0.5457  -0.5286  -0.5145  -0.4947  -0.4774
 -0.4697  -0.4669  -0.4555  -0.4413  -0.4373  -0.4298  -0.4169  -0.4144
 -0.4100  -0.3980  -0.3875  -0.3822  -0.3757  -0.3729  -0.3639  -0.3530
 -0.3415  -0.3360  -0.3206  -0.2616  -0.2556  -0.2501  -0.2487  -0.2431
 -0.2338  -0.1815

          Ground-State Mulliken Net Atomic Charges

     Atom                 Charge (a.u.)    Spin (a.u.)
  --------------------------------------------------------
      1 C                     0.181337       0.024385
      2 C                     0.996382       0.032145
      3 C                     0.910346       0.037625
      4 C                    -0.654443       0.035503
      5 C                    -0.510423       0.034540
      6 C                     0.035136       0.020200
      7 C                    -2.015037       0.072760
      8 C                    -1.502406       0.075940
      9 C                    -0.655207       0.006930
     10 C                    -0.672402       0.000078
     11 C                    -0.699792       0.041510
     12 C                     1.285743       0.099382
     13 C                     1.218272       0.100591
     14 C                    -1.204245       0.024228
     15 O                    -0.277470       0.185597
     16 O                    -0.297847       0.178424
     17 N                    -0.284139       0.027624
     18 N                    -0.302232       0.029461
     19 C                     0.055672      -0.002850
     20 H                     0.183954      -0.000822
     21 H                     0.357961      -0.002654
     22 H                     0.357631      -0.002948
     23 H                     0.184641      -0.000697
     24 H                     0.309402      -0.007289
     25 H                     0.333575      -0.007210
     26 H                     0.278052      -0.003051
     27 H                     0.363659      -0.001538
     28 H                     0.323562      -0.003447
     29 H                     0.199294       0.002230
     30 H                     0.210641       0.003439
     31 H                     0.290381      -0.000087
  --------------------------------------------------------
  Sum of atomic charges =    -1.000000

                    Cartesian Multipole Moments
 -----------------------------------------------------------------
    Charge (ESU x 10^10)
                -4.8032
    Dipole Moment (Debye)
         X       5.3491      Y     -13.4498      Z      12.5821
       Tot      19.1786
    Quadrupole Moments (Debye-Ang)
        XX    -126.9773     XY      14.4697     YY    -166.8046
        XZ     -15.2492     YZ      45.2282     ZZ    -156.4825

 Total job time:  934.90s(wall), 7033.99s(cpu)
        *  Thank you very much for using Q-Chem.  Have a nice day.  *
