 Gaussian 16, Revision A.03,
 Gaussian 16:  ES64L-G16RevA.03 25-Dec-2016

 --------------------------------------
 #P UB3LYP/6-311++G(d,p) nosym opt freq
 --------------------------------------

 -------
 Radical
 -------
 Symbolic Z-matrix:
 Charge = -1 Multiplicity = 2

 SCF Done:  E(UB3LYP) =  -6108.91153538     A.U. after   22 cycles
 SCF Done:  E(UB3LYP) =  -6108.93785953     A.U. after   18 cycles
 SCF Done:  E(UB3LYP) =  -6108.94509829     A.U. after   17 cycles
 SCF Done:  E(UB3LYP) =  -6108.95056513     A.U. after   17 cycles
 SCF Done:  E(UB3LYP) =  -6108.95204713     A.U. after   16 cycles
 SCF Done:  E(UB3LYP) =  -6108.95297862     A.U. after   19 cycles
 SCF Done:  E(UB3LYP) =  -6108.95398301     A.U. after   16 cycles
 SCF Done:  E(UB3LYP) =  -6108.95447822     A.U. after   17 cycles
 SCF Done:  E(UB3LYP) =  -6108.95474467     A.U. after   17 cycles
 SCF Done:  E(UB3LYP) =  -6108.95490034     A.U. after   16 cycles
 SCF Done:  E(UB3LYP) =  -6108.95640182     A.U. after   15 cycles
 SCF Done:  E(UB3LYP) =  -6108.95630928     A.U. after   16 cycles
 SCF Done:  E(UB3LYP) =  -6108.95641602     A.U. after   16 cycles
 SCF Done:  E(UB3LYP) =  -6108.95641328     A.U. after   14 cycles
 SCF Done:  E(UB3LYP) =  -6108.95642059     A.U. after   14 cycles
 SCF Done:  E(UB3LYP) =  -6108.95642025     A.U. after   12 cycles
 SCF Done:  E(UB3LYP) =  -6108.95642080     A.U. after   12 cycles
 SCF Done:  E(UB3LYP) =  -6108.95642080     A.U. after   10 cycles
 SCF Done:  E(UB3LYP) =  -6108.95642081     A.U. after    9 cycles
 Optimization completed.
    -- Stationary point found.
 Normal termination of Gaussian 16 at Mon Dec 18 01:50:17 2023.

 ----------------------------------------------------------------------
 #P Geom=AllCheck Guess=TCheck SCRF=Check GenChk UB3LYP/6-311++G(d,p) F
 req
 ----------------------------------------------------------------------

 Structure from the checkpoint file:  "025-rad.chk"
 -------
 Radical
 -------
 Charge = -1 Multiplicity = 2

                          Input orientation:
 ---------------------------------------------------------------------
 Center     Atomic      Atomic             Coordinates (Angstroms)
 Number     Number       Type             X           Y           Z
 ---------------------------------------------------------------------
      1          6           0       -1.922932   -0.293588    1.223020
      2          6           0       -2.754137    0.763499    0.602282
      3          6           0       -2.169411    1.677185   -0.248545
      4          6           0       -0.766406    1.697672   -0.556068
      5          6           0        0.064828    0.640591    0.064703
      6          6           0       -0.519912   -0.273106    0.915504
      7          8           0       -0.215144    2.529211   -1.324169
      8          8           0       -2.474196   -1.125153    1.991091
      9         35           0        0.531703   -1.574817    1.888924
     10         35           0       -3.221080    2.978837   -1.221977
     11          7           0        1.416333    0.742755   -0.271898
     12          7           0       -4.105681    0.661420    0.938859
     13          6           0       -4.849632    1.776099    1.542164
     14          6           0       -6.317375    1.357777    1.703598
     15          6           0       -7.163019    2.469927    2.341661
     16          6           0       -6.573067    2.940340    3.679267
     17          6           0       -5.103803    3.357500    3.522152
     18          6           0       -4.265243    2.234927    2.893616
     19          6           0        2.160639   -0.371894   -0.874779
     20          6           0        3.628129    0.047069   -1.036854
     21          6           0        1.576102   -0.831752   -2.225821
     22          6           0        2.415044   -1.954251   -2.853976
     23          6           0        4.474145   -1.065016   -1.674537
     24          6           0        3.884057   -1.536451   -3.011724
     25          1           0        1.485226    1.576463   -0.858755
     26          1           0       -4.174646   -0.172368    1.525593
     27          1           0       -4.814165    2.620445    0.850676
     28          1           0       -6.363637    0.457596    2.332932
     29          1           0       -6.718593    1.078744    0.724628
     30          1           0       -8.193937    2.124469    2.481689
     31          1           0       -7.212487    3.323209    1.652295
     32          1           0       -6.638063    2.121988    4.409014
     33          1           0       -7.165645    3.769135    4.084632
     34          1           0       -4.684452    3.643619    4.493487
     35          1           0       -5.049183    4.250535    2.885428
     36          1           0       -4.227963    1.373495    3.573246
     37          1           0       -3.232121    2.563300    2.747620
     38          1           0        2.125785   -1.215890   -0.182833
     39          1           0        4.029491    0.326841   -0.058152
     40          1           0        3.673773    0.946924   -1.666700
     41          1           0        1.538211    0.029296   -2.905904
     42          1           0        0.543186   -1.160560   -2.079353
     43          1           0        1.995567   -2.241105   -3.825040
     44          1           0        2.361036   -2.846966   -2.216752
     45          1           0        4.524221   -1.917896   -0.984718
     46          1           0        5.504853   -0.719126   -1.815035
     47          1           0        4.476934   -2.365173   -3.416797
     48          1           0        3.948449   -0.718465   -3.741934
 ---------------------------------------------------------------------

 SCF Done:  E(UB3LYP) =  -6108.95642081     A.U. after    2 cycles

 Alpha  occ. eigenvalues -- -482.70330-482.70330 -62.35608 -62.35608 -56.17629
 Alpha  occ. eigenvalues --  -56.17629 -56.17274 -56.17274 -56.17245 -56.17244
 Alpha  occ. eigenvalues --  -18.95953 -18.95952 -14.20051 -14.20050 -10.11185
 Alpha  occ. eigenvalues --  -10.11184 -10.09917 -10.09916 -10.09674 -10.09672
 Alpha  occ. eigenvalues --  -10.09127 -10.09126 -10.08642 -10.08642 -10.08589
 Alpha  occ. eigenvalues --  -10.08589 -10.08136 -10.08135 -10.07530 -10.07529
 Alpha  occ. eigenvalues --  -10.06670 -10.06670  -8.56576  -8.56576  -6.39665
 Alpha  occ. eigenvalues --   -6.39665  -6.38481  -6.38481  -6.38397  -6.38397
 Alpha  occ. eigenvalues --   -2.50768  -2.50768  -2.50442  -2.50442  -2.50379
 Alpha  occ. eigenvalues --   -2.50379  -2.49438  -2.49438  -2.49436  -2.49435
 Alpha  occ. eigenvalues --   -0.89292  -0.88891  -0.81591  -0.81526  -0.74160
 Alpha  occ. eigenvalues --   -0.73868  -0.71330  -0.68747  -0.65795  -0.65698
 Alpha  occ. eigenvalues --   -0.65496  -0.64885  -0.63039  -0.57907  -0.55586
 Alpha  occ. eigenvalues --   -0.52887  -0.52518  -0.52295  -0.51018  -0.47651
 Alpha  occ. eigenvalues --   -0.47412  -0.46411  -0.44430  -0.41341  -0.39415
 Alpha  occ. eigenvalues --   -0.38919  -0.37739  -0.37714  -0.36392  -0.35856
 Alpha  occ. eigenvalues --   -0.35461  -0.35435  -0.33565  -0.33000  -0.31657
 Alpha  occ. eigenvalues --   -0.31444  -0.30489  -0.30413  -0.29445  -0.29432
 Alpha  occ. eigenvalues --   -0.29299  -0.28524  -0.28504  -0.28118  -0.26536
 Alpha  occ. eigenvalues --   -0.26089  -0.25952  -0.25943  -0.25907  -0.24916
 Alpha  occ. eigenvalues --   -0.23943  -0.23816  -0.23132  -0.22844  -0.22600
 Alpha  occ. eigenvalues --   -0.22059  -0.21129  -0.19385  -0.17200  -0.16500
 Alpha  occ. eigenvalues --   -0.16384  -0.16137  -0.13507  -0.12625  -0.12324
 Alpha  occ. eigenvalues --   -0.09062  -0.03435
 Alpha virt. eigenvalues --    0.06064   0.06070   0.07969   0.08013   0.08036
 Alpha virt. eigenvalues --    0.08051   0.08825   0.09151   0.09920   0.10040
 Alpha virt. eigenvalues --    0.10967   0.11330   0.11338   0.11459   0.11521

  Beta  occ. eigenvalues -- -482.70330-482.70330 -62.35609 -62.35608 -56.17629
  Beta  occ. eigenvalues --  -56.17629 -56.17274 -56.17274 -56.17245 -56.17245
  Beta  occ. eigenvalues --  -18.95341 -18.95340 -14.19963 -14.19963 -10.11019
  Beta  occ. eigenvalues --  -10.11018 -10.09900 -10.09899 -10.09456 -10.09455
  Beta  occ. eigenvalues --  -10.09151 -10.09151 -10.08642 -10.08642 -10.08590
  Beta  occ. eigenvalues --  -10.08589 -10.08135 -10.08135 -10.07530 -10.07529
  Beta  occ. eigenvalues --  -10.06663 -10.06663  -8.56576  -8.56576  -6.39666
  Beta  occ. eigenvalues --   -6.39666  -6.38481  -6.38481  -6.38397  -6.38397
  Beta  occ. eigenvalues --   -2.50769  -2.50768  -2.50443  -2.50443  -2.50380
  Beta  occ. eigenvalues --   -2.50379  -2.49438  -2.49438  -2.49436  -2.49435
  Beta  occ. eigenvalues --   -0.88319  -0.87868  -0.81337  -0.81207  -0.74046
  Beta  occ. eigenvalues --   -0.73829  -0.71072  -0.68689  -0.65746  -0.65683
  Beta  occ. eigenvalues --   -0.65410  -0.64757  -0.62915  -0.57731  -0.54832
  Beta  occ. eigenvalues --   -0.52843  -0.52501  -0.52256  -0.50850  -0.47575
  Beta  occ. eigenvalues --   -0.47393  -0.46100  -0.44151  -0.41226  -0.39367
  Beta  occ. eigenvalues --   -0.38760  -0.37670  -0.37467  -0.36359  -0.35801
  Beta  occ. eigenvalues --   -0.35435  -0.35421  -0.33428  -0.32657  -0.31598
  Beta  occ. eigenvalues --   -0.31059  -0.30222  -0.30118  -0.29436  -0.29423
  Beta  occ. eigenvalues --   -0.29016  -0.28187  -0.27889  -0.27662  -0.26150
  Beta  occ. eigenvalues --   -0.25959  -0.25932  -0.25873  -0.25157  -0.24075
  Beta  occ. eigenvalues --   -0.23922  -0.23440  -0.23079  -0.22762  -0.22397
  Beta  occ. eigenvalues --   -0.21971  -0.20828  -0.18196  -0.16433  -0.16361
  Beta  occ. eigenvalues --   -0.15873  -0.15822  -0.12924  -0.12067  -0.10738
  Beta  occ. eigenvalues --   -0.08443
  Beta virt. eigenvalues --    0.03312   0.06065   0.06075   0.07968   0.08010
  Beta virt. eigenvalues --    0.08035   0.08052   0.08834   0.09154   0.09978
  Beta virt. eigenvalues --    0.10059   0.11077   0.11332   0.11368   0.11465

 Mulliken charges and spin densities:
               1          2
     1  C   -0.689021   0.083102
     2  C   -0.174578   0.176521
     3  C    0.791910  -0.022598
     4  C   -0.689344   0.083111
     5  C   -0.173882   0.176455
     6  C    0.791996  -0.022584
     7  O   -0.316944   0.225959
     8  O   -0.316959   0.225957
     9  Br  -0.133019   0.001308
    10  Br  -0.133020   0.001311
    11  N    0.330285   0.036197
    12  N    0.330441   0.036178
    13  C   -0.514732  -0.002413
    14  C   -0.159841   0.003710
    15  C   -0.359693  -0.000014
    16  C   -0.389249   0.000045
    17  C   -0.418451   0.000636
    18  C   -0.248004  -0.001924
    19  C   -0.514533  -0.002426
    20  C   -0.159942   0.003703
    21  C   -0.247914  -0.001910
    22  C   -0.418477   0.000637
    23  C   -0.359880  -0.000014
    24  C   -0.389214   0.000045
    25  H    0.287606  -0.000861
    26  H    0.287578  -0.000859
    27  H    0.009381  -0.002411
    28  H    0.116065  -0.000616
    29  H    0.180366   0.002307
    30  H    0.156182  -0.000216
    31  H    0.131627   0.000414
    32  H    0.111125   0.000319
    33  H    0.147760   0.000049
    34  H    0.152324   0.000636
    35  H    0.137097   0.000166
    36  H    0.172805   0.000097
    37  H    0.178646  -0.000381
    38  H    0.009454  -0.002408
    39  H    0.180353   0.002308
    40  H    0.116087  -0.000616
    41  H    0.172821   0.000100
    42  H    0.178659  -0.000384
    43  H    0.152327   0.000636
    44  H    0.137096   0.000166
    45  H    0.131630   0.000413
    46  H    0.156189  -0.000216
    47  H    0.147760   0.000049
    48  H    0.111126   0.000319
 Sum of Mulliken charges =  -1.00000   1.00000

 Dipole moment (field-independent basis, Debye):
    X=              6.4596    Y=             -3.3721    Z=             -1.6018  Tot=              7.4608
 Quadrupole moment (field-independent basis, Debye-Ang):
   XX=           -205.7913   YY=           -201.8349   ZZ=           -193.9587
   XY=              5.8907   XZ=              4.4927   YZ=             13.4735

  Exact polarizability: 374.150 -44.487 274.734 -49.353 -26.213 274.235
 Approx polarizability: 486.379   4.580 452.298 -45.422 -99.622 420.885

                      1                      2                      3
                      A                      A                      A
 Frequencies --     17.1758                18.9636                19.1628
 Red. masses --      3.6529                 3.1516                 3.7051
 Frc consts  --      0.0006                 0.0007                 0.0008
 IR Inten    --      1.4230                 0.0015                 0.5005

                      4                      5                      6
                      A                      A                      A
 Frequencies --     31.4359                36.0909                60.7459
 Red. masses --      5.1865                 5.6975                 8.8255
 Frc consts  --      0.0030                 0.0044                 0.0192
 IR Inten    --      1.0299                 0.0000                 1.2029

                      7                      8                      9
                      A                      A                      A
 Frequencies --     62.7239               104.0962               113.1233
 Red. masses --      5.3560                 7.7002                 9.1213
 Frc consts  --      0.0124                 0.0492                 0.0688
 IR Inten    --      0.0000                 9.5299                 0.0000

                     10                     11                     12
                      A                      A                      A
 Frequencies --    138.4809               143.4872               147.8753
 Red. masses --     12.8500                 3.9874                 3.0435
 Frc consts  --      0.1452                 0.0484                 0.0392
 IR Inten    --      0.7482                 0.0000                 2.3084

                     13                     14                     15
                      A                      A                      A
 Frequencies --    186.5342               198.4548               200.5415
 Red. masses --      6.9839                 8.8224                 7.2022
 Frc consts  --      0.1432                 0.2047                 0.1707
 IR Inten    --      0.0000                 0.0000                 0.3972

                     16                     17                     18
                      A                      A                      A
 Frequencies --    216.4615               227.5645               230.2949
 Red. masses --      4.2179                 1.8714                 1.9266
 Frc consts  --      0.1164                 0.0571                 0.0602
 IR Inten    --      0.0000                 0.0345                 0.0000

                     19                     20                     21
                      A                      A                      A
 Frequencies --    257.7841               296.4734               304.2769
 Red. masses --      5.6562                 4.9014                 8.8572
 Frc consts  --      0.2215                 0.2538                 0.4832
 IR Inten    --      1.5391                 9.5543                 0.0000

                     22                     23                     24
                      A                      A                      A
 Frequencies --    327.5281               331.2887               366.1876
 Red. masses --      1.9246                 2.0466                 5.2680
 Frc consts  --      0.1216                 0.1323                 0.4162
 IR Inten    --      0.0000                 4.9413                 0.0000

                     25                     26                     27
                      A                      A                      A
 Frequencies --    372.9602               407.3565               427.0672
 Red. masses --      4.8985                 5.1451                 3.0183
 Frc consts  --      0.4015                 0.5030                 0.3243
 IR Inten    --      0.1623                 0.0000                 0.0000

                     28                     29                     30
                      A                      A                      A
 Frequencies --    431.3465               442.4971               452.0085
 Red. masses --      2.5145                 3.8350                 3.1498
 Frc consts  --      0.2757                 0.4424                 0.3792
 IR Inten    --      4.0945                24.2165                 0.0000

                     31                     32                     33
                      A                      A                      A
 Frequencies --    453.7034               473.4292               483.7741
 Red. masses --      2.6742                 2.4020                 7.0439
 Frc consts  --      0.3243                 0.3172                 0.9713
 IR Inten    --      1.6693                 0.0000                 0.0000

                     34                     35                     36
                      A                      A                      A
 Frequencies --    521.1100               549.4316               556.1461
 Red. masses --      2.7281                 3.2065                 2.5310
 Frc consts  --      0.4365                 0.5703                 0.4612
 IR Inten    --      0.5914                39.3102                 0.0000

                     37                     38                     39
                      A                      A                      A
 Frequencies --    593.0966               593.8255               732.5320
 Red. masses --      5.1170                 7.4979                 7.0752
 Frc consts  --      1.0605                 1.5578                 2.2369
 IR Inten    --      0.0000                20.0526                13.7110

                     40                     41                     42
                      A                      A                      A
 Frequencies --    738.4196               752.2031               757.2956
 Red. masses --      5.6373                 7.0931                 7.2707
 Frc consts  --      1.8110                 2.3646                 2.4567
 IR Inten    --      0.0000                 0.0000               142.0031

                     43                     44                     45
                      A                      A                      A
 Frequencies --    788.8291               789.8325               793.8591
 Red. masses --      2.0895                 1.9260                 1.6145
 Frc consts  --      0.7661                 0.7079                 0.5995
 IR Inten    --      0.0001                 8.6351                 0.0000

                     46                     47                     48
                      A                      A                      A
 Frequencies --    794.9373               822.9720               842.2299
 Red. masses --      1.8102                 4.6229                 2.2755
 Frc consts  --      0.6740                 1.8447                 0.9510
 IR Inten    --     19.2761                 0.0000                56.5380

                     49                     50                     51
                      A                      A                      A
 Frequencies --    848.4252               855.8808               875.3113
 Red. masses --      2.4581                 1.4515                 1.5991
 Frc consts  --      1.0425                 0.6264                 0.7218
 IR Inten    --      0.0000                91.0624                 0.0000

                     52                     53                     54
                      A                      A                      A
 Frequencies --    898.3775               899.3444               900.3130
 Red. masses --      1.8632                 1.8486                 1.9228
 Frc consts  --      0.8860                 0.8809                 0.9183
 IR Inten    --     56.2394                 0.0011                 3.5239

                     55                     56                     57
                      A                      A                      A
 Frequencies --    923.1398               930.3426               932.0915
 Red. masses --      1.8914                 1.5094                 1.6655
 Frc consts  --      0.9497                 0.7697                 0.8525
 IR Inten    --      0.0000                 0.2565                 0.0000

                     58                     59                     60
                      A                      A                      A
 Frequencies --    984.0713               985.2419              1032.3999
 Red. masses --      2.1673                 2.0479                 1.7823
 Frc consts  --      1.2366                 1.1713                 1.1192
 IR Inten    --     25.9724                 0.0002                 2.1932

                     61                     62                     63
                      A                      A                      A
 Frequencies --   1032.5828              1040.9248              1062.3936
 Red. masses --      1.7832                 3.8647                 1.4220
 Frc consts  --      1.1202                 2.4672                 0.9457
 IR Inten    --      0.0000                20.1577                 0.0000

                     64                     65                     66
                      A                      A                      A
 Frequencies --   1065.0682              1088.7096              1089.3062
 Red. masses --      1.4752                 1.3654                 1.0798
 Frc consts  --      0.9860                 0.9536                 0.7549
 IR Inten    --     12.6504                11.4545                 0.0004

                     67                     68                     69
                      A                      A                      A
 Frequencies --   1091.2291              1093.5689              1097.0099
 Red. masses --      2.4662                 3.0973                 3.0975
 Frc consts  --      1.7302                 2.1824                 2.1963
 IR Inten    --     16.2987                 0.0000                54.4913

                     70                     71                     72
                      A                      A                      A
 Frequencies --   1100.8028              1162.2621              1167.5603
 Red. masses --      3.5529                 6.4586                 2.7199
 Frc consts  --      2.5366                 5.1404                 2.1845
 IR Inten    --      0.0000               178.2736                24.2847

                     73                     74                     75
                      A                      A                      A
 Frequencies --   1173.0081              1197.5137              1205.2011
 Red. masses --      2.4074                 2.4485                 1.5836
 Frc consts  --      1.9517                 2.0688                 1.3553
 IR Inten    --      0.0000               118.8597                 0.0000

                     76                     77                     78
                      A                      A                      A
 Frequencies --   1211.9374              1213.9189              1268.8529
 Red. masses --      2.0338                 4.5236                 1.4774
 Frc consts  --      1.7600                 3.9275                 1.4015
 IR Inten    --     33.8843                 0.0014                 0.0000

                     79                     80                     81
                      A                      A                      A
 Frequencies --   1275.7522              1281.8217              1284.2020
 Red. masses --      1.3417                 1.2927                 1.3229
 Frc consts  --      1.2866                 1.2514                 1.2854
 IR Inten    --     38.5267                 0.0000                 8.6227

                     82                     83                     84
                      A                      A                      A
 Frequencies --   1285.2846              1285.3158              1308.3431
 Red. masses --      1.2625                 1.2628                 2.3685
 Frc consts  --      1.2288                 1.2292                 2.3887
 IR Inten    --      5.6288                 0.0027                 0.0000

                     85                     86                     87
                      A                      A                      A
 Frequencies --   1334.8734              1335.7846              1348.4097
 Red. masses --      1.3259                 1.3513                 1.2355
 Frc consts  --      1.3921                 1.4207                 1.3236
 IR Inten    --      0.2658                 0.0000                33.8154

                     88                     89                     90
                      A                      A                      A
 Frequencies --   1356.7045              1363.0083              1363.2088
 Red. masses --      1.4956                 1.3762                 1.3842
 Frc consts  --      1.6219                 1.5064                 1.5155
 IR Inten    --      0.0000                 2.3192                 0.0000

                     91                     92                     93
                      A                      A                      A
 Frequencies --   1370.5186              1370.5245              1374.9702
 Red. masses --      1.4048                 1.4051                 1.4624
 Frc consts  --      1.5546                 1.5550                 1.6289
 IR Inten    --      0.1118                 0.0018                20.5137

                     94                     95                     96
                      A                      A                      A
 Frequencies --   1375.3558              1382.6214              1382.6742
 Red. masses --      1.4620                 1.3443                 1.3453
 Frc consts  --      1.6294                 1.5141                 1.5154
 IR Inten    --      0.0001                 6.9949                 0.0527

                     97                     98                     99
                      A                      A                      A
 Frequencies --   1397.4045              1400.7570              1484.0287
 Red. masses --      1.4589                 1.5263                 1.0871
 Frc consts  --      1.6785                 1.7645                 1.4106
 IR Inten    --      6.7680                 0.0000                 0.6701

                    100                    101                    102
                      A                      A                      A
 Frequencies --   1484.0400              1485.2132              1485.2147
 Red. masses --      1.0869                 1.0928                 1.0935
 Frc consts  --      1.4104                 1.4203                 1.4212
 IR Inten    --      0.1080                 0.0765                 0.7646

                    103                    104                    105
                      A                      A                      A
 Frequencies --   1488.9197              1488.9676              1492.7625
 Red. masses --      1.1024                 1.0963                 1.1012
 Frc consts  --      1.4399                 1.4320                 1.4458
 IR Inten    --     27.1409                 0.1566                45.9272

                    106                    107                    108
                      A                      A                      A
 Frequencies --   1492.8197              1497.8925              1506.2934
 Red. masses --      1.0854                 3.2199                 1.1146
 Frc consts  --      1.4251                 4.2566                 1.4900
 IR Inten    --      0.0001               848.8208                 0.0001

                    109                    110                    111
                      A                      A                      A
 Frequencies --   1506.4655              1511.6579              1528.2593
 Red. masses --      1.1034                 3.2964                10.6027
 Frc consts  --      1.4754                 4.4381                14.5901
 IR Inten    --     15.8847                 0.0008                50.8179

                    112                    113                    114
                      A                      A                      A
 Frequencies --   1577.3618              1579.7110              1603.9151
 Red. masses --      2.1035                 1.6599                 5.5246
 Frc consts  --      3.0836                 2.4405                 8.3737
 IR Inten    --      0.0034               131.4397                 0.0000

                    115                    116                    117
                      A                      A                      A
 Frequencies --   2986.3831              2986.3872              2989.9192
 Red. masses --      1.0703                 1.0703                 1.0663
 Frc consts  --      5.6239                 5.6240                 5.6164
 IR Inten    --      5.3008                34.0258                61.1365

                    118                    119                    120
                      A                      A                      A
 Frequencies --   2989.9545              2994.3694              2994.3909
 Red. masses --      1.0663                 1.0642                 1.0643
 Frc consts  --      5.6165                 5.6220                 5.6227
 IR Inten    --      0.0550                41.7696                 0.0579

                    121                    122                    123
                      A                      A                      A
 Frequencies --   2995.1850              2995.1870              3004.0448
 Red. masses --      1.0622                 1.0622                 1.0669
 Frc consts  --      5.6143                 5.6143                 5.6729
 IR Inten    --     15.5877                41.7524                 0.0226

                    124                    125                    126
                      A                      A                      A
 Frequencies --   3004.0711              3027.9203              3028.1492
 Red. masses --      1.0669                 1.0915                 1.0914
 Frc consts  --      5.6730                 5.8960                 5.8964
 IR Inten    --     25.8306               268.5865                 0.0077

                    127                    128                    129
                      A                      A                      A
 Frequencies --   3031.4387              3031.4665              3039.2175
 Red. masses --      1.0989                 1.0990                 1.1015
 Frc consts  --      5.9500                 5.9502                 5.9948
 IR Inten    --      0.4857               138.2086                 3.0790

                    130                    131                    132
                      A                      A                      A
 Frequencies --   3039.2248              3053.4796              3053.4971
 Red. masses --      1.1016                 1.0889                 1.0889
 Frc consts  --      5.9950                 5.9818                 5.9817
 IR Inten    --    168.9343                 9.1322                38.7623

                    133                    134                    135
                      A                      A                      A
 Frequencies --   3061.3701              3061.3999              3075.9055
 Red. masses --      1.0930                 1.0930                 1.0911
 Frc consts  --      6.0352                 6.0355                 6.0822
 IR Inten    --     62.9711                 0.5990                55.7893

                    136                    137                    138
                      A                      A                      A
 Frequencies --   3075.9365              3418.6685              3419.0948
 Red. masses --      1.0911                 1.0723                 1.0724
 Frc consts  --      6.0821                 7.3835                 7.3861
 IR Inten    --      0.5631                 0.0279                82.5812

 - Thermochemistry -
 -------------------
 Temperature   298.150 Kelvin.  Pressure   1.00000 Atm.
 Atom     1 has atomic number  6 and mass  12.00000

 Molecular mass:   458.02045 amu.
 Principal axes and moments of inertia in atomic units:
                           1         2         3
     Eigenvalues --  6366.13575********************
           X            0.87138   0.00191   0.49061
           Y           -0.39609  -0.58734   0.70579
           Z           -0.28951   0.80934   0.51104
 This molecule is an asymmetric top.
 Rotational symmetry number  1.
 Warning -- assumption of classical behavior for rotation
           may cause significant error
 Rotational temperatures (Kelvin)      0.01361     0.00415     0.00343
 Rotational constants (GHZ):           0.28349     0.08639     0.07151
 Zero-point vibrational energy    1043634.9 (Joules/Mol)
                                  249.43472 (Kcal/Mol)
 Warning -- explicit consideration of  38 degrees of freedom as
           vibrations may cause significant error
 Vibrational temperatures:     24.71    27.28    27.57    45.23    51.93
          (Kelvin)             87.40    90.25   149.77   162.76   199.24
                              206.45   212.76   268.38   285.53   288.53
                              311.44   327.41   331.34   370.89   426.56
                              437.79   471.24   476.65   526.86   536.61
                              586.10   614.45   620.61   636.65   650.34
                              652.78   681.16   696.04   749.76   790.51
                              800.17   853.33   854.38  1053.95  1062.42
                             1082.25  1089.58  1134.95  1136.39  1142.19
                             1143.74  1184.07  1211.78  1220.69  1231.42
                             1259.38  1292.56  1293.96  1295.35  1328.19
                             1338.56  1341.07  1415.86  1417.54  1485.39
                             1485.66  1497.66  1528.55  1532.40  1566.41
                             1567.27  1570.04  1573.40  1578.35  1583.81
                             1672.24  1679.86  1687.70  1722.96  1734.02
                             1743.71  1746.56  1825.60  1835.52  1844.26
                             1847.68  1849.24  1849.28  1882.41  1920.59
                             1921.90  1940.06  1952.00  1961.06  1961.35
                             1971.87  1971.88  1978.28  1978.83  1989.28
                             1989.36  2010.55  2015.38  2135.19  2135.20
                             2136.89  2136.89  2142.22  2142.29  2147.75
                             2147.83  2155.13  2167.22  2167.47  2174.94
                             2198.82  2269.47  2272.85  2307.68  4296.74
                             4296.75  4301.83  4301.88  4308.23  4308.26
                             4309.40  4309.41  4322.15  4322.19  4356.50
                             4356.83  4361.56  4361.60  4372.76  4372.77
                             4393.28  4393.30  4404.63  4404.67  4425.54
                             4425.59  4918.70  4919.31

 Zero-point correction=                           0.397500 (Hartree/Particle)
 Thermal correction to Energy=                    0.421021
 Thermal correction to Enthalpy=                  0.421965
 Thermal correction to Gibbs Free Energy=         0.339565
 Sum of electronic and zero-point Energies=          -6108.558921
 Sum of electronic and thermal Energies=             -6108.535400
 Sum of electronic and thermal Enthalpies=           -6108.534456
 Sum of electronic and thermal Free Energies=        -6108.616856

                     E (Thermal)             CV                S
                      KCal/Mol        Cal/Mol-Kelvin    Cal/Mol-Kelvin
 Total                  264.195             89.233            173.425
 Electronic               0.000              0.000              1.377
 Translational            0.889              2.981             44.254
 Rotational               0.889              2.981             36.460
 Vibrational            262.417             83.271             91.334
 Vibration     1          0.593              1.986              6.937
 Vibration     2          0.593              1.986              6.740
 Vibration     3          0.593              1.986              6.719
 Vibration     4          0.594              1.983              5.737
 Vibration     5          0.594              1.982              5.463
 Vibration     6          0.597              1.973              4.433
 Vibration     7          0.597              1.972              4.370
 Vibration     8          0.605              1.946              3.376
 Vibration     9          0.607              1.939              3.215
 Vibration    10          0.614              1.915              2.825
 Vibration    11          0.616              1.910              2.757
 Vibration    12          0.617              1.905              2.699
 Vibration    13          0.632              1.858              2.262
 Vibration    14          0.637              1.842              2.147
 Vibration    15          0.638              1.839              2.128
 Vibration    16          0.645              1.816              1.988
 Vibration    17          0.651              1.799              1.898
 Vibration    18          0.652              1.795              1.877
 Vibration    19          0.667              1.750              1.677
 Vibration    20          0.690              1.680              1.437
 Vibration    21          0.695              1.666              1.393
 Vibration    22          0.711              1.620              1.272
 Vibration    23          0.714              1.613              1.254
 Vibration    24          0.739              1.542              1.096
 Vibration    25          0.744              1.528              1.068
 Vibration    26          0.772              1.454              0.936
 Vibration    27          0.789              1.411              0.868
 Vibration    28          0.792              1.402              0.854
 Vibration    29          0.802              1.377              0.819
 Vibration    30          0.811              1.356              0.790
 Vibration    31          0.812              1.353              0.785
 Vibration    32          0.830              1.309              0.728
 Vibration    33          0.840              1.286              0.700
 Vibration    34          0.876              1.203              0.607
 Vibration    35          0.905              1.141              0.545
 Vibration    36          0.912              1.126              0.532
 Vibration    37          0.951              1.046              0.462
 Vibration    38          0.951              1.045              0.460

 Optimization completed.
    -- Stationary point found.
 Normal termination of Gaussian 16 at Mon Dec 18 06:20:30 2023.
