 Q-Chem 5.4, Q-Chem, Inc., Pleasanton, CA (2021)
 Q-Chem 5.4.0 for Intel X86 EM64T Linux

User input:
--------------------------------------------------------------
$molecule
-2 1
C                 -4.0732120000      3.5795140000      1.5405380000
C                 -4.5644640000      3.8061190000      0.2740470000
C                 -3.9640610000      3.1583250000     -0.8278580000
C                 -2.8806200000      2.3059540000     -0.6427420000
C                 -2.3514480000      2.0189640000      0.6518070000
C                 -2.9792930000      2.7105880000      1.7667610000
C                 -2.5195140000      2.5449990000      3.1444720000
C                 -1.4179130000      1.6588690000      3.2935900000
C                 -0.8043450000      0.9771390000      2.2422930000
C                 -1.2344850000      1.0926780000      0.8736080000
O                 -3.0680870000      3.1597150000      4.1351670000
O                 -0.6558480000      0.4156810000     -0.0456490000
H                 -4.5027530000      4.0521100000      2.4173510000
H                 -4.3511640000      3.3145890000     -1.8359870000
O                 -2.3216530000      1.7201860000     -1.7634550000
C                  0.3576470000      0.0543520000      2.5048440000
H                 -5.4074860000      4.4744220000      0.1096700000
H                 -1.0467970000      1.5201880000      4.3103390000
H                 -2.7418370000      2.1434750000     -2.5228100000
H                  0.6560080000      0.0892270000      3.5601580000
H                  1.2208260000      0.3171840000      1.8780680000
H                  0.1168380000     -0.9864060000      2.2426100000
$end
$rem
MAX_SCF_CYCLES=200
BASIS  =  6-311++G(d,p)
GUI  =  2
JOB_TYPE  =  SP
METHOD  =  B3LYP
SOLVENT_METHOD = PCM
$end
$pcm
theory = CPCM
$end
$solvent
dielectric 37.219
opticaldielectric 1.43
$end

--------------------------------------------------------------

             Standard Nuclear Orientation (Angstroms)
    I     Atom           X                Y                Z
 ----------------------------------------------------------------
    1      C      -4.0732120000     3.5795140000     1.5405380000
    2      C      -4.5644640000     3.8061190000     0.2740470000
    3      C      -3.9640610000     3.1583250000    -0.8278580000
    4      C      -2.8806200000     2.3059540000    -0.6427420000
    5      C      -2.3514480000     2.0189640000     0.6518070000
    6      C      -2.9792930000     2.7105880000     1.7667610000
    7      C      -2.5195140000     2.5449990000     3.1444720000
    8      C      -1.4179130000     1.6588690000     3.2935900000
    9      C      -0.8043450000     0.9771390000     2.2422930000
   10      C      -1.2344850000     1.0926780000     0.8736080000
   11      O      -3.0680870000     3.1597150000     4.1351670000
   12      O      -0.6558480000     0.4156810000    -0.0456490000
   13      H      -4.5027530000     4.0521100000     2.4173510000
   14      H      -4.3511640000     3.3145890000    -1.8359870000
   15      O      -2.3216530000     1.7201860000    -1.7634550000
   16      C       0.3576470000     0.0543520000     2.5048440000
   17      H      -5.4074860000     4.4744220000     0.1096700000
   18      H      -1.0467970000     1.5201880000     4.3103390000
   19      H      -2.7418370000     2.1434750000    -2.5228100000
   20      H       0.6560080000     0.0892270000     3.5601580000
   21      H       1.2208260000     0.3171840000     1.8780680000
   22      H       0.1168380000    -0.9864060000     2.2426100000
 ----------------------------------------------------------------

    9    -650.0841029294      7.06e-06  Convergence criterion met
 Total energy in the final basis set =     -650.0841029294

                    Orbital Energies (a.u.)
 --------------------------------------------------------------

 Alpha MOs
 -- Occupied --
-19.1313 -19.0158 -19.0126 -10.2131 -10.1695 -10.1666 -10.1478 -10.1434
-10.1425 -10.1371 -10.1368 -10.1358 -10.1235 -10.1159  -1.0406  -0.9353
 -0.9317  -0.8204  -0.7689  -0.7226  -0.7137  -0.6671  -0.6244  -0.5956
 -0.5636  -0.5383  -0.4898  -0.4754  -0.4453  -0.4346  -0.4177  -0.4028
 -0.3984  -0.3853  -0.3738  -0.3600  -0.3562  -0.3474  -0.3456  -0.3371
 -0.3152  -0.3116  -0.3111  -0.3005  -0.2244  -0.2115  -0.2061  -0.1974
 -0.1880  -0.1062

          Ground-State Mulliken Net Atomic Charges

     Atom                 Charge (a.u.)
  ----------------------------------------
      1 C                    -0.107142
      2 C                    -0.449745
      3 C                    -0.245531
      4 C                     0.027210
      5 C                    -0.186402
      6 C                     0.567144
      7 C                    -0.693400
      8 C                    -0.385521
      9 C                     0.582861
     10 C                    -0.325945
     11 O                    -0.735807
     12 O                    -0.699215
     13 H                     0.133129
     14 H                     0.154973
     15 O                    -0.278924
     16 C                    -0.362379
     17 H                     0.176999
     18 H                     0.103118
     19 H                     0.299352
     20 H                     0.141601
     21 H                     0.141154
     22 H                     0.142473
  ----------------------------------------
  Sum of atomic charges =    -2.000000

                    Cartesian Multipole Moments
 -----------------------------------------------------------------
    Charge (ESU x 10^10)
                -9.6064
    Dipole Moment (Debye)
         X      18.7479      Y     -17.6467      Z     -19.2076
       Tot      32.1220
    Quadrupole Moments (Debye-Ang)
        XX    -142.0577     XY      48.3329     YY    -141.0748
        XZ      58.8985     YZ     -59.7152     ZZ    -158.5651

 Total job time:  319.58s(wall), 213.10s(cpu)
        *  Thank you very much for using Q-Chem.  Have a nice day.  *
