 Q-Chem 5.4, Q-Chem, Inc., Pleasanton, CA (2021)
 Q-Chem 5.4.0 for Intel X86 EM64T Linux

User input:
--------------------------------------------------------------
$molecule
0 1
C                 -2.2584920000     -2.2169530000      5.0088080000
C                 -1.2824720000     -3.2329270000      4.5138500000
C                 -1.2504470000     -3.4481980000      3.1856690000
C                 -2.1163820000     -2.7482350000      2.1912630000
C                 -3.0577130000     -1.7655130000      2.6734900000
C                 -3.1386560000     -1.4848470000      4.0065260000
O                 -2.3895300000     -1.9395190000      6.1911290000
O                 -1.9961870000     -3.0368420000      1.0011370000
N                 -3.9450620000     -0.5757030000      4.5923210000
C                 -4.9253390000      0.2660050000      3.9105010000
C                 -6.2227860000     -0.5011670000      3.6127780000
C                 -5.1796560000      1.5162840000      4.7542810000
H                 -3.6779860000     -1.2775680000      1.9331240000
H                 -3.8754190000     -0.5366950000      5.6023990000
H                 -4.4754630000      0.5768220000      2.9607990000
H                 -6.9093160000      0.1214230000      3.0324380000
H                 -6.7212990000     -0.7855080000      4.5439610000
H                 -6.0234690000     -1.4102200000      3.0418530000
H                 -5.8954590000      2.1722170000      4.2543720000
H                 -4.2560590000      2.0763250000      4.9176490000
H                 -5.5995320000      1.2486770000      5.7297150000
C                 -0.3851010000     -3.9662480000      5.5202410000
C                 -1.2572970000     -4.7611530000      6.5232070000
C                  0.5483790000     -4.9627180000      4.8081680000
C                  0.4964430000     -2.9457350000      6.2818120000
H                 -0.5761300000     -4.1656670000      2.7359360000
H                 -1.9000490000     -4.1046930000      7.1080440000
H                 -0.6103210000     -5.3109040000      7.2131780000
H                 -1.8839300000     -5.4900040000      6.0006650000
H                  1.1717470000     -5.4636710000      5.5529200000
H                  1.2165990000     -4.4649290000      4.1000720000
H                 -0.0087770000     -5.7354200000      4.2713340000
H                 -0.1044660000     -2.2466330000      6.8617510000
H                  1.1217300000     -2.3772580000      5.5869760000
H                  1.1603750000     -3.4784550000      6.9690150000
$end
$rem
MAX_SCF_CYCLES=200
BASIS  =  6-311++G(d,p)
GUI  =  2
JOB_TYPE  =  SP
METHOD  =  B3LYP
SOLVENT_METHOD = PCM
$end
$pcm
theory = CPCM
$end
$solvent
dielectric 37.219
opticaldielectric 1.43
$end

--------------------------------------------------------------

             Standard Nuclear Orientation (Angstroms)
    I     Atom           X                Y                Z
 ----------------------------------------------------------------
    1      C      -2.2584920000    -2.2169530000     5.0088080000
    2      C      -1.2824720000    -3.2329270000     4.5138500000
    3      C      -1.2504470000    -3.4481980000     3.1856690000
    4      C      -2.1163820000    -2.7482350000     2.1912630000
    5      C      -3.0577130000    -1.7655130000     2.6734900000
    6      C      -3.1386560000    -1.4848470000     4.0065260000
    7      O      -2.3895300000    -1.9395190000     6.1911290000
    8      O      -1.9961870000    -3.0368420000     1.0011370000
    9      N      -3.9450620000    -0.5757030000     4.5923210000
   10      C      -4.9253390000     0.2660050000     3.9105010000
   11      C      -6.2227860000    -0.5011670000     3.6127780000
   12      C      -5.1796560000     1.5162840000     4.7542810000
   13      H      -3.6779860000    -1.2775680000     1.9331240000
   14      H      -3.8754190000    -0.5366950000     5.6023990000
   15      H      -4.4754630000     0.5768220000     2.9607990000
   16      H      -6.9093160000     0.1214230000     3.0324380000
   17      H      -6.7212990000    -0.7855080000     4.5439610000
   18      H      -6.0234690000    -1.4102200000     3.0418530000
   19      H      -5.8954590000     2.1722170000     4.2543720000
   20      H      -4.2560590000     2.0763250000     4.9176490000
   21      H      -5.5995320000     1.2486770000     5.7297150000
   22      C      -0.3851010000    -3.9662480000     5.5202410000
   23      C      -1.2572970000    -4.7611530000     6.5232070000
   24      C       0.5483790000    -4.9627180000     4.8081680000
   25      C       0.4964430000    -2.9457350000     6.2818120000
   26      H      -0.5761300000    -4.1656670000     2.7359360000
   27      H      -1.9000490000    -4.1046930000     7.1080440000
   28      H      -0.6103210000    -5.3109040000     7.2131780000
   29      H      -1.8839300000    -5.4900040000     6.0006650000
   30      H       1.1717470000    -5.4636710000     5.5529200000
   31      H       1.2165990000    -4.4649290000     4.1000720000
   32      H      -0.0087770000    -5.7354200000     4.2713340000
   33      H      -0.1044660000    -2.2466330000     6.8617510000
   34      H       1.1217300000    -2.3772580000     5.5869760000
   35      H       1.1603750000    -3.4784550000     6.9690150000
 ----------------------------------------------------------------

    9    -712.2379003980      4.53e-06  Convergence criterion met
 Total energy in the final basis set =     -712.2379003980

                    Orbital Energies (a.u.)
 --------------------------------------------------------------

 Alpha MOs
 -- Occupied --
-19.1447 -19.1145 -14.3502 -10.2919 -10.2638 -10.2460 -10.2198 -10.2094
-10.1993 -10.1978 -10.1709 -10.1634 -10.1609 -10.1569 -10.1559 -10.1559
 -1.0803  -1.0454  -0.9617  -0.8585  -0.8190  -0.7872  -0.7510  -0.6983
 -0.6935  -0.6861  -0.6832  -0.6432  -0.6087  -0.5994  -0.5472  -0.5325
 -0.5173  -0.4989  -0.4779  -0.4689  -0.4596  -0.4497  -0.4447  -0.4396
 -0.4339  -0.4239  -0.4120  -0.4101  -0.4049  -0.3914  -0.3861  -0.3815
 -0.3788  -0.3676  -0.3630  -0.3547  -0.3494  -0.3393  -0.3348  -0.3297
 -0.2908  -0.2853  -0.2672  -0.2297

          Ground-State Mulliken Net Atomic Charges

     Atom                 Charge (a.u.)
  ----------------------------------------
      1 C                    -1.448275
      2 C                     1.203062
      3 C                    -0.484258
      4 C                    -0.442667
      5 C                     0.996440
      6 C                    -0.286691
      7 O                    -0.232295
      8 O                    -0.384768
      9 N                    -0.015302
     10 C                    -0.040881
     11 C                    -0.499221
     12 C                    -0.567354
     13 H                     0.254019
     14 H                     0.374123
     15 H                     0.177089
     16 H                     0.159286
     17 H                     0.169138
     18 H                     0.153274
     19 H                     0.177851
     20 H                     0.163441
     21 H                     0.159082
     22 C                     0.569978
     23 C                    -0.697343
     24 C                    -0.496151
     25 C                    -0.708408
     26 H                     0.251083
     27 H                     0.181384
     28 H                     0.170429
     29 H                     0.153638
     30 H                     0.190164
     31 H                     0.147311
     32 H                     0.147799
     33 H                     0.179178
     34 H                     0.155109
     35 H                     0.170734
  ----------------------------------------
  Sum of atomic charges =     0.000000

                    Cartesian Multipole Moments
 -----------------------------------------------------------------
    Charge (ESU x 10^10)
                -0.0000
    Dipole Moment (Debye)
         X      -2.0471      Y       2.5829      Z       4.2102
       Tot       5.3468
    Quadrupole Moments (Debye-Ang)
        XX     -76.6887     XY     -13.5870     YY     -99.8203
        XZ     -15.1148     YZ      -5.1046     ZZ     -86.5597

 Total job time:  60.70s(wall), 435.05s(cpu)
        *  Thank you very much for using Q-Chem.  Have a nice day.  *
