 Gaussian 16, Revision A.03,
 Gaussian 16:  ES64L-G16RevA.03 25-Dec-2016

 --------------------------------------
 #P UB3LYP/6-311++G(d,p) nosym opt freq
 --------------------------------------

 -------
 Reduced
 -------
 Symbolic Z-matrix:
 Charge = -2 Multiplicity = 1

 SCF Done:  E(UB3LYP) =  -1314.99963639     A.U. after   46 cycles
 SCF Done:  E(UB3LYP) =  -1315.02420548     A.U. after   24 cycles
 SCF Done:  E(UB3LYP) =  -1315.02877945     A.U. after   23 cycles
 SCF Done:  E(UB3LYP) =  -1315.02887996     A.U. after   23 cycles
 SCF Done:  E(UB3LYP) =  -1315.02945616     A.U. after   20 cycles
 SCF Done:  E(UB3LYP) =  -1315.02947494     A.U. after   18 cycles
 SCF Done:  E(UB3LYP) =  -1315.02962856     A.U. after   23 cycles
 SCF Done:  E(UB3LYP) =  -1315.02963509     A.U. after   16 cycles
 SCF Done:  E(UB3LYP) =  -1315.02963971     A.U. after   19 cycles
 SCF Done:  E(UB3LYP) =  -1315.02964081     A.U. after   18 cycles
 Optimization completed.
    -- Stationary point found.
 Normal termination of Gaussian 16 at Tue Dec 26 22:25:06 2023.

 ----------------------------------------------------------------------
 #P Geom=AllCheck Guess=TCheck SCRF=Check GenChk UB3LYP/6-311++G(d,p) F
 req
 ----------------------------------------------------------------------

 Structure from the checkpoint file:  "268-an.chk"
 -------
 Reduced
 -------
 Charge = -2 Multiplicity = 1

                          Input orientation:
 ---------------------------------------------------------------------
 Center     Atomic      Atomic             Coordinates (Angstroms)
 Number     Number       Type             X           Y           Z
 ---------------------------------------------------------------------
      1          6           0        1.493144    3.454943   -0.275141
      2          6           0        0.774739    3.184970   -1.427507
      3          6           0        0.122154    1.938406   -1.563931
      4          6           0        1.590956    2.518756    0.775765
      5          6           0        0.936320    1.252391    0.637181
      6          6           0        0.209475    1.002443   -0.549224
      7          6           0        2.372924    2.877265    1.969857
      8          6           0        2.378413    1.845444    2.957220
      9          6           0        1.738434    0.577076    2.814227
     10          6           0        0.994593    0.210404    1.677103
     11          8           0        2.983827    3.995095    2.051386
     12          8           0        0.390756   -0.916178    1.521566
     13         16           0        3.292316    2.133360    4.445059
     14          8           0        2.915526    3.385371    5.139263
     15          8           0        3.282651    0.893796    5.267723
     16          6           0        5.026937    2.335327    3.944297
     17          6           0        5.481440    3.553022    3.421225
     18          6           0        5.897706    1.249570    4.079609
     19          6           0        6.817545    3.668887    3.040916
     20          6           0        7.699282    2.593393    3.180844
     21          6           0        7.231341    1.380488    3.700244
     22          1           0        2.008235    4.399948   -0.135152
     23          1           0        0.712082    3.926091   -2.222089
     24          1           0       -0.446303    1.717420   -2.466021
     25          1           0       -0.275679    0.033743   -0.618183
     26          1           0        1.806359   -0.131825    3.630046
     27          1           0        4.768753    4.355003    3.284245
     28          1           0        5.512925    0.323250    4.488884
     29          1           0        7.172213    4.608282    2.625690
     30          1           0        8.738794    2.694881    2.881069
     31          1           0        7.907783    0.537231    3.810719
 ---------------------------------------------------------------------

 SCF Done:  E(UB3LYP) =  -1315.02964081     A.U. after    2 cycles

 Alpha  occ. eigenvalues --  -88.80179 -18.86671 -18.86572 -18.80510 -18.77764
 Alpha  occ. eigenvalues --   -9.99075  -9.98937  -9.98850  -9.98631  -9.98275
 Alpha  occ. eigenvalues --   -9.97281  -9.96943  -9.94851  -9.94712  -9.94426
 Alpha  occ. eigenvalues --   -9.93827  -9.93430  -9.93353  -9.92759  -9.92499
 Alpha  occ. eigenvalues --   -9.89501  -7.86490  -5.82796  -5.82697  -5.82544
 Alpha  occ. eigenvalues --   -0.85471  -0.74916  -0.72669  -0.69441  -0.66480
 Alpha  occ. eigenvalues --   -0.61621  -0.56783  -0.55591  -0.55338  -0.51202
 Alpha  occ. eigenvalues --   -0.50738  -0.45487  -0.42181  -0.41436  -0.39836
 Alpha  occ. eigenvalues --   -0.37168  -0.35539  -0.32886  -0.31195  -0.27984
 Alpha  occ. eigenvalues --   -0.26664  -0.26037  -0.25353  -0.24527  -0.23351
 Alpha  occ. eigenvalues --   -0.22507  -0.21577  -0.20687  -0.18956  -0.18733
 Alpha  occ. eigenvalues --   -0.17850  -0.17585  -0.16551  -0.15409  -0.15275
 Alpha  occ. eigenvalues --   -0.13698  -0.12763  -0.11017  -0.10810  -0.09322
 Alpha  occ. eigenvalues --   -0.08869  -0.08649  -0.07611  -0.06958  -0.06189
 Alpha  occ. eigenvalues --   -0.05655  -0.04890  -0.01594  -0.00452   0.00049
 Alpha  occ. eigenvalues --    0.01993   0.04371   0.10967
 Alpha virt. eigenvalues --    0.13511   0.15360   0.15534   0.16569   0.17086
 Alpha virt. eigenvalues --    0.17354   0.17910   0.20005   0.20069   0.20305
 Alpha virt. eigenvalues --    0.21013   0.21436   0.21616   0.22461   0.23327

  Beta  occ. eigenvalues --  -88.80179 -18.86671 -18.86572 -18.80510 -18.77764
  Beta  occ. eigenvalues --   -9.99075  -9.98937  -9.98850  -9.98631  -9.98275
  Beta  occ. eigenvalues --   -9.97281  -9.96943  -9.94851  -9.94712  -9.94426
  Beta  occ. eigenvalues --   -9.93827  -9.93430  -9.93353  -9.92759  -9.92499
  Beta  occ. eigenvalues --   -9.89501  -7.86490  -5.82796  -5.82697  -5.82544
  Beta  occ. eigenvalues --   -0.85471  -0.74916  -0.72669  -0.69441  -0.66480
  Beta  occ. eigenvalues --   -0.61621  -0.56783  -0.55591  -0.55338  -0.51202
  Beta  occ. eigenvalues --   -0.50738  -0.45487  -0.42181  -0.41436  -0.39836
  Beta  occ. eigenvalues --   -0.37168  -0.35539  -0.32886  -0.31195  -0.27984
  Beta  occ. eigenvalues --   -0.26664  -0.26037  -0.25353  -0.24527  -0.23351
  Beta  occ. eigenvalues --   -0.22507  -0.21577  -0.20687  -0.18956  -0.18733
  Beta  occ. eigenvalues --   -0.17850  -0.17585  -0.16551  -0.15409  -0.15275
  Beta  occ. eigenvalues --   -0.13698  -0.12763  -0.11017  -0.10810  -0.09322
  Beta  occ. eigenvalues --   -0.08869  -0.08649  -0.07611  -0.06958  -0.06189
  Beta  occ. eigenvalues --   -0.05655  -0.04890  -0.01594  -0.00452   0.00049
  Beta  occ. eigenvalues --    0.01993   0.04371   0.10967
  Beta virt. eigenvalues --    0.13511   0.15360   0.15534   0.16569   0.17086
  Beta virt. eigenvalues --    0.17354   0.17910   0.20005   0.20069   0.20305
  Beta virt. eigenvalues --    0.21013   0.21436   0.21616   0.22461   0.23327

 Mulliken charges and spin densities:
               1          2
     1  C    0.211062   0.000000
     2  C   -0.390547  -0.000000
     3  C   -0.298301  -0.000000
     4  C    0.418902  -0.000000
     5  C    0.503432   0.000000
     6  C   -0.043883  -0.000000
     7  C   -0.702961   0.000000
     8  C    0.164260  -0.000000
     9  C   -0.113036  -0.000000
    10  C   -0.920071   0.000000
    11  O   -0.400057  -0.000000
    12  O   -0.539481  -0.000000
    13  S    0.060399   0.000000
    14  O   -0.164461   0.000000
    15  O   -0.243087  -0.000000
    16  C    0.216739  -0.000000
    17  C   -0.210041  -0.000000
    18  C    0.123486   0.000000
    19  C   -0.421150  -0.000000
    20  C   -0.283677   0.000000
    21  C   -0.477091   0.000000
    22  H    0.129360   0.000000
    23  H    0.083400   0.000000
    24  H    0.086838   0.000000
    25  H    0.130765  -0.000000
    26  H    0.206466  -0.000000
    27  H    0.300676   0.000000
    28  H    0.223063   0.000000
    29  H    0.133846  -0.000000
    30  H    0.096632   0.000000
    31  H    0.118515   0.000000
 Sum of Mulliken charges =  -2.00000  -0.00000

 Dipole moment (field-independent basis, Debye):
    X=            -20.6308    Y=            -15.9922    Z=            -23.8728  Tot=             35.3736
 Quadrupole moment (field-independent basis, Debye-Ang):
   XX=           -219.2772   YY=           -205.3643   ZZ=           -246.7964
   XY=            -54.0498   XZ=            -74.4489   YZ=            -46.7527

  Exact polarizability: 415.981  47.421 250.702 137.627 -20.053 319.560
 Approx polarizability: 655.383  87.236 474.616 203.099 -52.859 521.950

                      1                      2                      3
                      A                      A                      A
 Frequencies --     26.9964                35.8444                61.4809
 Red. masses --      5.4297                 7.4246                 4.8899
 Frc consts  --      0.0023                 0.0056                 0.0109
 IR Inten    --      1.6882                 2.1221                 1.4471

                      4                      5                      6
                      A                      A                      A
 Frequencies --     94.4281               137.4931               147.5073
 Red. masses --      5.5002                 4.9683                 8.3674
 Frc consts  --      0.0289                 0.0553                 0.1073
 IR Inten    --      2.0367                 0.4575                 0.7851

                      7                      8                      9
                      A                      A                      A
 Frequencies --    160.0414               176.8848               197.5850
 Red. masses --      8.4239                 6.4592                 5.7946
 Frc consts  --      0.1271                 0.1191                 0.1333
 IR Inten    --      5.8810                 0.6958                 0.7264

                     10                     11                     12
                      A                      A                      A
 Frequencies --    228.1808               265.9601               276.5052
 Red. masses --      6.4152                 9.0742                 7.2073
 Frc consts  --      0.1968                 0.3782                 0.3247
 IR Inten    --      1.4766                 0.5457                 5.0923

                     13                     14                     15
                      A                      A                      A
 Frequencies --    285.2548               298.1282               358.5125
 Red. masses --      9.1431                 8.6446                10.5149
 Frc consts  --      0.4383                 0.4527                 0.7963
 IR Inten    --      1.2630                 1.8500                 2.7488

                     16                     17                     18
                      A                      A                      A
 Frequencies --    373.8813               411.8371               418.8117
 Red. masses --      8.9232                 8.6161                 2.9730
 Frc consts  --      0.7349                 0.8610                 0.3072
 IR Inten    --      3.0894                 1.1437                 0.1652

                     19                     20                     21
                      A                      A                      A
 Frequencies --    434.7682               443.8611               470.1827
 Red. masses --      3.3422                 5.2203                 9.3893
 Frc consts  --      0.3722                 0.6060                 1.2230
 IR Inten    --      4.4276                11.5373                29.4727

                     22                     23                     24
                      A                      A                      A
 Frequencies --    475.7288               493.2688               539.4993
 Red. masses --      5.7418                 6.3489                 8.5844
 Frc consts  --      0.7656                 0.9102                 1.4721
 IR Inten    --      6.8775                 4.4660                48.9719

                     25                     26                     27
                      A                      A                      A
 Frequencies --    566.0846               610.8067               627.6142
 Red. masses --      9.0590                 7.7620                 6.0587
 Frc consts  --      1.7104                 1.7062                 1.4061
 IR Inten    --     26.2146                40.6200                 0.4505

                     28                     29                     30
                      A                      A                      A
 Frequencies --    631.2749               668.2389               681.5311
 Red. masses --      3.0023                 5.8408                 2.2451
 Frc consts  --      0.7049                 1.5367                 0.6144
 IR Inten    --      9.1130                 4.7108                 9.8667

                     31                     32                     33
                      A                      A                      A
 Frequencies --    685.5587               701.6166               719.8695
 Red. masses --      2.0617                 6.4341                 6.2227
 Frc consts  --      0.5709                 1.8661                 1.8999
 IR Inten    --     53.4714                14.5015                23.8547

                     34                     35                     36
                      A                      A                      A
 Frequencies --    735.6102               752.2826               775.7284
 Red. masses --      2.0684                 1.6463                 3.4294
 Frc consts  --      0.6594                 0.5489                 1.2159
 IR Inten    --      5.0446                58.4989                 0.2259

                     37                     38                     39
                      A                      A                      A
 Frequencies --    817.6408               821.9006               824.8013
 Red. masses --      2.2134                 1.8546                 1.9648
 Frc consts  --      0.8718                 0.7381                 0.7875
 IR Inten    --     48.9506                22.2086                32.3672

                     40                     41                     42
                      A                      A                      A
 Frequencies --    834.6560               836.6170               878.7989
 Red. masses --      1.6448                 4.8073                 1.4051
 Frc consts  --      0.6751                 1.9825                 0.6393
 IR Inten    --      1.7658                 6.7165                 3.4076

                     43                     44                     45
                      A                      A                      A
 Frequencies --    950.4404               959.2446               963.9878
 Red. masses --      1.2915                 1.2216                 1.3360
 Frc consts  --      0.6874                 0.6623                 0.7315
 IR Inten    --      3.1443                 0.0432                 1.1965

                     46                     47                     48
                      A                      A                      A
 Frequencies --    964.1558              1004.5111              1021.3478
 Red. masses --      1.3418                 5.9425                 2.9273
 Frc consts  --      0.7349                 3.5329                 1.7991
 IR Inten    --      3.3111               150.7397                76.1113

                     49                     50                     51
                      A                      A                      A
 Frequencies --   1027.9838              1040.8476              1073.9009
 Red. masses --      5.2780                 2.6598                 2.9572
 Frc consts  --      3.2862                 1.6977                 2.0094
 IR Inten    --    201.0556                60.3198               129.8849

                     52                     53                     54
                      A                      A                      A
 Frequencies --   1082.8452              1087.8976              1090.1829
 Red. masses --      3.2912                 1.6645                 2.5835
 Frc consts  --      2.2737                 1.1606                 1.8091
 IR Inten    --    223.5061                13.3530                45.3342

                     55                     56                     57
                      A                      A                      A
 Frequencies --   1130.0538              1148.1077              1164.5332
 Red. masses --      1.5214                 1.7625                 1.1091
 Frc consts  --      1.1447                 1.3688                 0.8862
 IR Inten    --      7.6741                 4.9868                 3.6453

                     58                     59                     60
                      A                      A                      A
 Frequencies --   1185.5973              1190.8267              1203.8619
 Red. masses --      1.4755                 4.1591                 2.2538
 Frc consts  --      1.2220                 3.4749                 1.9245
 IR Inten    --     50.6539               107.8320                47.3289

                     61                     62                     63
                      A                      A                      A
 Frequencies --   1233.2882              1268.0915              1325.1468
 Red. masses --      2.2941                 2.1603                 2.0407
 Frc consts  --      2.0559                 2.0467                 2.1113
 IR Inten    --     89.4789                16.0534                11.2749

                     64                     65                     66
                      A                      A                      A
 Frequencies --   1337.1158              1345.4016              1357.7974
 Red. masses --      6.0991                 2.5488                 5.5931
 Frc consts  --      6.4247                 2.7182                 6.0753
 IR Inten    --     44.0381                 1.8507                54.9891

                     67                     68                     69
                      A                      A                      A
 Frequencies --   1382.0055              1427.8044              1458.0593
 Red. masses --      5.0937                 2.9679                 3.0064
 Frc consts  --      5.7319                 3.5648                 3.7657
 IR Inten    --    255.7515               383.4666                14.0606

                     70                     71                     72
                      A                      A                      A
 Frequencies --   1460.4122              1494.9686              1501.5019
 Red. masses --      2.1947                 1.9835                 5.1245
 Frc consts  --      2.7579                 2.6118                 6.8069
 IR Inten    --      8.2629                18.0076                91.6796

                     73                     74                     75
                      A                      A                      A
 Frequencies --   1516.0421              1583.0817              1588.7713
 Red. masses --      4.6249                 6.0347                 5.4067
 Frc consts  --      6.2629                 8.9107                 8.0409
 IR Inten    --    404.4484               486.0892               150.4860

                     76                     77                     78
                      A                      A                      A
 Frequencies --   1603.9775              1610.5946              3094.5931
 Red. masses --      5.7098                 6.0419                 1.0831
 Frc consts  --      8.6550                 9.2342                 6.1110
 IR Inten    --     28.2593                28.6530                36.3078

                     79                     80                     81
                      A                      A                      A
 Frequencies --   3119.0433              3121.4450              3136.9905
 Red. masses --      1.0910                 1.0831                 1.0890
 Frc consts  --      6.2535                 6.2175                 6.3139
 IR Inten    --    133.2360                 3.5511                57.6633

                     82                     83                     84
                      A                      A                      A
 Frequencies --   3152.6582              3160.7875              3164.2439
 Red. masses --      1.0952                 1.0903                 1.0912
 Frc consts  --      6.4134                 6.4181                 6.4371
 IR Inten    --     89.8896                27.2742                48.7235

                     85                     86                     87
                      A                      A                      A
 Frequencies --   3186.1811              3190.7090              3211.6311
 Red. masses --      1.0872                 1.0915                 1.0924
 Frc consts  --      6.5026                 6.5471                 6.6388
 IR Inten    --     19.4908                 8.0970                 3.4598

 - Thermochemistry -
 -------------------
 Temperature   298.150 Kelvin.  Pressure   1.00000 Atm.
 Atom     1 has atomic number  6 and mass  12.00000

 Molecular mass:   298.02998 amu.
 Principal axes and moments of inertia in atomic units:
                           1         2         3
     Eigenvalues --  3505.873619231.59218**********
           X            0.77197   0.40033  -0.49376
           Y            0.12160   0.66941   0.73287
           Z            0.62392  -0.62579   0.46809
 This molecule is an asymmetric top.
 Rotational symmetry number  1.
 Warning -- assumption of classical behavior for rotation
           may cause significant error
 Rotational temperatures (Kelvin)      0.02471     0.00938     0.00825
 Rotational constants (GHZ):           0.51478     0.19550     0.17187
 Zero-point vibrational energy     570056.1 (Joules/Mol)
                                  136.24668 (Kcal/Mol)
 Warning -- explicit consideration of  26 degrees of freedom as
           vibrations may cause significant error
 Vibrational temperatures:     38.84    51.57    88.46   135.86   197.82
          (Kelvin)            212.23   230.26   254.50   284.28   328.30
                              382.66   397.83   410.42   428.94   515.82
                              537.93   592.54   602.58   625.53   638.62
                              676.49   684.47   709.70   776.22   814.47
                              878.81   903.00   908.26   961.45   980.57
                              986.37  1009.47  1035.73  1058.38  1082.37
                             1116.10  1176.40  1182.53  1186.71  1200.88
                             1203.71  1264.40  1367.47  1380.14  1386.96
                             1387.21  1445.27  1469.49  1479.04  1497.55
                             1545.10  1557.97  1565.24  1568.53  1625.90
                             1651.87  1675.50  1705.81  1713.33  1732.09
                             1774.43  1824.50  1906.59  1923.81  1935.73
                             1953.57  1988.40  2054.29  2097.82  2101.21
                             2150.93  2160.33  2181.25  2277.70  2285.89
                             2307.77  2317.29  4452.43  4487.61  4491.06
                             4513.43  4535.97  4547.67  4552.64  4584.20
                             4590.72  4620.82

 Zero-point correction=                           0.217123 (Hartree/Particle)
 Thermal correction to Energy=                    0.233937
 Thermal correction to Enthalpy=                  0.234881
 Thermal correction to Gibbs Free Energy=         0.171973
 Sum of electronic and zero-point Energies=          -1314.812518
 Sum of electronic and thermal Energies=             -1314.795704
 Sum of electronic and thermal Enthalpies=           -1314.794759
 Sum of electronic and thermal Free Energies=        -1314.857668

                     E (Thermal)             CV                S
                      KCal/Mol        Cal/Mol-Kelvin    Cal/Mol-Kelvin
 Total                  146.798             67.037            132.402
 Electronic               0.000              0.000              0.000
 Translational            0.889              2.981             42.973
 Rotational               0.889              2.981             34.185
 Vibrational            145.020             61.075             55.244
 Vibration     1          0.593              1.984              6.039
 Vibration     2          0.594              1.982              5.476
 Vibration     3          0.597              1.973              4.409
 Vibration     4          0.603              1.953              3.566
 Vibration     5          0.614              1.916              2.838
 Vibration     6          0.617              1.905              2.704
 Vibration     7          0.622              1.891              2.549
 Vibration     8          0.628              1.871              2.361
 Vibration     9          0.637              1.843              2.155
 Vibration    10          0.651              1.798              1.893
 Vibration    11          0.672              1.736              1.622
 Vibration    12          0.678              1.717              1.555
 Vibration    13          0.683              1.701              1.502
 Vibration    14          0.691              1.677              1.427
 Vibration    15          0.733              1.558              1.129
 Vibration    16          0.745              1.526              1.064
 Vibration    17          0.776              1.445              0.920
 Vibration    18          0.782              1.429              0.896
 Vibration    19          0.795              1.394              0.843
 Vibration    20          0.803              1.374              0.815
 Vibration    21          0.827              1.316              0.737
 Vibration    22          0.832              1.304              0.722
 Vibration    23          0.849              1.265              0.675
 Vibration    24          0.895              1.163              0.566
 Vibration    25          0.922              1.105              0.512
 Vibration    26          0.970              1.009              0.431

 Optimization completed.
    -- Stationary point found.
 Normal termination of Gaussian 16 at Wed Dec 27 00:53:37 2023.
