 Q-Chem 5.4, Q-Chem, Inc., Pleasanton, CA (2021)
 Q-Chem 5.4.0 for Intel X86 EM64T Linux

User input:
--------------------------------------------------------------
$molecule
-2 1
O                 -2.1875350000     -2.0968160000      0.2074190000
C                 -1.6755620000     -0.8374440000      0.1000150000
C                 -2.4994020000      0.2712910000      0.0326640000
C                 -1.9537740000      1.5804290000     -0.0793720000
C                 -0.5857440000      1.7775510000     -0.1237860000
O                 -0.0522020000      3.0283940000     -0.2310890000
C                  0.3013150000      0.6489120000     -0.0562030000
C                  1.7337230000      0.8628440000     -0.1031810000
O                  2.2228270000      2.0956410000     -0.2080370000
C                  2.5284030000     -0.2867190000     -0.0320360000
C                  1.9849660000     -1.5904170000      0.0795050000
C                  0.6084480000     -1.8365900000      0.1277660000
O                  0.0767580000     -3.0519500000      0.2322550000
C                 -0.2486360000     -0.6705560000      0.0567400000
H                 -1.3161370000     -2.6979760000      0.2347800000
H                 -3.5765850000      0.1236840000      0.0669960000
H                 -2.6078400000      2.4480040000     -0.1318720000
H                  0.9874620000      2.8351790000     -0.2384170000
H                  3.6091320000     -0.1517300000     -0.0654340000
H                  2.6503830000     -2.4517290000      0.1312870000
$end
$rem
MAX_SCF_CYCLES=200
BASIS  =  6-311++G(d,p)
GUI  =  2
JOB_TYPE  =  SP
METHOD  =  B3LYP
SOLVENT_METHOD = COSMO
$end
$solvent
dielectric 37.219
opticaldielectric 1.43
$end

--------------------------------------------------------------

             Standard Nuclear Orientation (Angstroms)
    I     Atom           X                Y                Z
 ----------------------------------------------------------------
    1      O       2.7846949522     1.2279623514     0.0000242820
    2      C       1.4210497084     1.2398557063    -0.0000354844
    3      C       0.7114501049     2.4268730629    -0.0000668047
    4      C      -0.7112600837     2.4268461897    -0.0000282387
    5      C      -1.4207787528     1.2398672435     0.0000528100
    6      O      -2.7848394501     1.2285701952     0.0000847196
    7      C      -0.7170898468    -0.0131646981     0.0000274082
    8      C      -1.4669673259    -1.2531043247     0.0000090901
    9      O      -2.7971879946    -1.2303246771    -0.0000731812
   10      C      -0.7083171419    -2.4289116656    -0.0000011950
   11      C       0.7085080531    -2.4288141652    -0.0000086236
   12      C       1.4667204911    -1.2528694501     0.0000039682
   13      O       2.7971986393    -1.2296308274     0.0000266553
   14      C       0.7168550688    -0.0131215677    -0.0000339734
   15      H       3.0058471635     0.1923136979     0.0001253073
   16      H       1.2630735976     3.3644237283    -0.0000743422
   17      H      -1.2628873711     3.3643707483    -0.0000530842
   18      H      -3.0063307331     0.1945351015     0.0000129990
   19      H      -1.2496161393    -3.3745902696    -0.0000361401
   20      H       1.2499626574    -3.3744073292     0.0000117153
 ----------------------------------------------------------------

   10    -685.7821501396      6.31e-06  Convergence criterion met
 Total energy in the final basis set =     -685.7821501396
    6    -686.0598391513      1.90e-06  Convergence criterion met
 Total energy in the final basis set =     -686.0598391513

                    Orbital Energies (a.u.)
 --------------------------------------------------------------

 Alpha MOs
 -- Occupied --
-19.0989 -19.0987 -19.0511 -19.0509 -10.2033 -10.2033 -10.1902 -10.1901
-10.1542 -10.1538 -10.1455 -10.1451 -10.1348 -10.1344  -1.0169  -1.0153
 -0.9517  -0.9495  -0.8255  -0.7751  -0.7149  -0.7090  -0.6578  -0.6072
 -0.5844  -0.5521  -0.4917  -0.4837  -0.4789  -0.4676  -0.4436  -0.4062
 -0.4049  -0.3966  -0.3829  -0.3812  -0.3708  -0.3604  -0.3544  -0.3509
 -0.3345  -0.3256  -0.3218  -0.2811  -0.2450  -0.2332  -0.2262  -0.2229
 -0.1918  -0.1333

          Ground-State Mulliken Net Atomic Charges

     Atom                 Charge (a.u.)
  ----------------------------------------
      1 O                    -0.536305
      2 C                    -0.248760
      3 C                    -0.151554
      4 C                    -0.150812
      5 C                    -0.248488
      6 O                    -0.535199
      7 C                     0.430955
      8 C                    -0.260899
      9 O                    -0.733674
     10 C                    -0.247561
     11 C                    -0.246573
     12 C                    -0.260636
     13 O                    -0.733305
     14 C                     0.431357
     15 H                     0.395986
     16 H                     0.185093
     17 H                     0.185189
     18 H                     0.395475
     19 H                     0.164805
     20 H                     0.164908
  ----------------------------------------
  Sum of atomic charges =    -2.000000

                    Cartesian Multipole Moments
 -----------------------------------------------------------------
    Charge (ESU x 10^10)
                -9.6064
    Dipole Moment (Debye)
         X       0.0004      Y       3.1786      Z      -0.0008
       Tot       3.1786
    Quadrupole Moments (Debye-Ang)
        XX    -156.3932     XY      -0.0317     YY    -107.8263
        XZ       0.0001     YZ      -0.0004     ZZ     -90.8864

 Total job time:  34.91s(wall), 249.62s(cpu)
        *  Thank you very much for using Q-Chem.  Have a nice day.  *
