 Gaussian 16, Revision A.03,
 Gaussian 16:  ES64L-G16RevA.03 25-Dec-2016

 ----------------------------------------------------------------------
 #P UB3LYP/6-311++G(d,p) nosym opt freq SCRF=(PCM,Solvent=n,n-DiMethylF
 ormamide)
 ----------------------------------------------------------------------

 -------
 Reduced
 -------
 Symbolic Z-matrix:
 Charge = -2 Multiplicity = 1

 SCF Done:  E(UB3LYP) =  -679.097414546     A.U. after   15 cycles
 SCF Done:  E(UB3LYP) =  -679.097544773     A.U. after   12 cycles
 SCF Done:  E(UB3LYP) =  -679.097413074     A.U. after   13 cycles
 SCF Done:  E(UB3LYP) =  -679.097580227     A.U. after   12 cycles
 SCF Done:  E(UB3LYP) =  -679.097580199     A.U. after   10 cycles
 SCF Done:  E(UB3LYP) =  -679.097584430     A.U. after   10 cycles
 SCF Done:  E(UB3LYP) =  -679.097584650     A.U. after    9 cycles
 SCF Done:  E(UB3LYP) =  -679.097584708     A.U. after    8 cycles
 Optimization completed.
    -- Stationary point found.
 Normal termination of Gaussian 16 at Sun Feb 11 16:13:43 2024.

 ----------------------------------------------------------------------
 #P Geom=AllCheck Guess=TCheck SCRF=Check GenChk UB3LYP/6-311++G(d,p) F
 req
 ----------------------------------------------------------------------

 Structure from the checkpoint file:  "347-an.chk"
 -------
 Reduced
 -------
 Charge = -2 Multiplicity = 1

                          Input orientation:
 ---------------------------------------------------------------------
 Center     Atomic      Atomic             Coordinates (Angstroms)
 Number     Number       Type             X           Y           Z
 ---------------------------------------------------------------------
      1          7           0       -4.743817    0.378286    0.358361
      2          6           0       -3.766436   -0.183161    0.673222
      3          6           0       -2.587694   -0.838080    1.037745
      4          6           0       -2.703865   -1.909870    1.926042
      5          7           0       -2.782308   -2.810111    2.669725
      6          6           0       -1.279291   -0.414163    0.513055
      7          6           0       -1.152055    0.661673   -0.387201
      8          6           0        0.084524    1.062020   -0.882823
      9          6           0        1.279290    0.414181   -0.512982
     10          6           0        1.152055   -0.661656    0.387274
     11          6           0       -0.084527   -1.062016    0.882879
     12          6           0        2.587688    0.838105   -1.037681
     13          6           0        3.766420    0.183086   -0.673287
     14          7           0        4.743943   -0.378314   -0.358771
     15          6           0        2.703824    1.909859   -1.926027
     16          7           0        2.782252    2.810139   -2.669663
     17          1           0       -2.039245    1.198079   -0.708159
     18          1           0        0.121629    1.897679   -1.574291
     19          1           0        2.039246   -1.198053    0.708240
     20          1           0       -0.121634   -1.897682    1.574340
 ---------------------------------------------------------------------

 SCF Done:  E(UB3LYP) =  -679.097584708     A.U. after    1 cycles

 Alpha  occ. eigenvalues --  -14.28451 -14.28450 -14.28448 -14.28448 -10.19620
 Alpha  occ. eigenvalues --  -10.19620 -10.19617 -10.19617 -10.17845 -10.17844
 Alpha  occ. eigenvalues --  -10.17585 -10.17585 -10.16030 -10.16027 -10.15973
 Alpha  occ. eigenvalues --  -10.15973  -0.89432  -0.89332  -0.88198  -0.88197
 Alpha  occ. eigenvalues --   -0.85084  -0.79699  -0.75629  -0.73557  -0.69700
 Alpha  occ. eigenvalues --   -0.61110  -0.59272  -0.55768  -0.53041  -0.51990
 Alpha  occ. eigenvalues --   -0.47613  -0.43179  -0.42939  -0.40811  -0.39396
 Alpha  occ. eigenvalues --   -0.38246  -0.37195  -0.36234  -0.36001  -0.35783
 Alpha  occ. eigenvalues --   -0.35573  -0.34752  -0.33310  -0.32681  -0.32669
 Alpha  occ. eigenvalues --   -0.32292  -0.32228  -0.31522  -0.31361  -0.27432
 Alpha  occ. eigenvalues --   -0.24729  -0.20022  -0.15403
 Alpha virt. eigenvalues --   -0.00775   0.00088   0.00320   0.01020   0.01361
 Alpha virt. eigenvalues --    0.01509   0.01667   0.03281   0.03594   0.04755
 Alpha virt. eigenvalues --    0.05050   0.05110   0.05236   0.05614   0.05641

  Beta  occ. eigenvalues --  -14.28451 -14.28450 -14.28448 -14.28448 -10.19620
  Beta  occ. eigenvalues --  -10.19620 -10.19617 -10.19617 -10.17845 -10.17844
  Beta  occ. eigenvalues --  -10.17585 -10.17585 -10.16030 -10.16027 -10.15973
  Beta  occ. eigenvalues --  -10.15973  -0.89432  -0.89332  -0.88198  -0.88197
  Beta  occ. eigenvalues --   -0.85084  -0.79699  -0.75629  -0.73557  -0.69700
  Beta  occ. eigenvalues --   -0.61110  -0.59272  -0.55768  -0.53041  -0.51990
  Beta  occ. eigenvalues --   -0.47613  -0.43179  -0.42939  -0.40811  -0.39396
  Beta  occ. eigenvalues --   -0.38246  -0.37195  -0.36234  -0.36001  -0.35783
  Beta  occ. eigenvalues --   -0.35573  -0.34752  -0.33310  -0.32681  -0.32669
  Beta  occ. eigenvalues --   -0.32292  -0.32228  -0.31522  -0.31361  -0.27432
  Beta  occ. eigenvalues --   -0.24729  -0.20022  -0.15403
  Beta virt. eigenvalues --   -0.00775   0.00088   0.00320   0.01020   0.01361
  Beta virt. eigenvalues --    0.01509   0.01667   0.03281   0.03594   0.04755
  Beta virt. eigenvalues --    0.05050   0.05110   0.05236   0.05614   0.05641

 Mulliken charges and spin densities:
               1          2
     1  N   -0.427075  -0.000000
     2  C   -1.352000   0.000000
     3  C    2.151146  -0.000000
     4  C   -1.351989   0.000000
     5  N   -0.426999   0.000000
     6  C    1.502627   0.000000
     7  C   -0.676732   0.000000
     8  C   -0.675852  -0.000000
     9  C    1.502279   0.000000
    10  C   -0.676666  -0.000000
    11  C   -0.675710  -0.000000
    12  C    2.151317   0.000000
    13  C   -1.351980  -0.000000
    14  N   -0.427090   0.000000
    15  C   -1.351824  -0.000000
    16  N   -0.426988   0.000000
    17  H    0.128479   0.000000
    18  H    0.128284  -0.000000
    19  H    0.128480  -0.000000
    20  H    0.128293  -0.000000
 Sum of Mulliken charges =  -2.00000   0.00000

 Dipole moment (field-independent basis, Debye):
    X=             -0.0002    Y=             -0.0001    Z=              0.0007  Tot=              0.0007
 Quadrupole moment (field-independent basis, Debye-Ang):
   XX=           -237.3898   YY=           -138.3533   ZZ=           -134.2031
   XY=            -26.3657   XZ=             40.5578   YZ=             33.9198

  Exact polarizability: 367.369   3.246 249.204 -35.994 -99.310 213.557
 Approx polarizability: 384.067 -16.944 290.446 -20.084-119.301 240.812

                      1                      2                      3
                      A                      A                      A
 Frequencies --     30.5192                55.0132                63.8520
 Red. masses --     13.5168                 9.4298                 4.1417
 Frc consts  --      0.0074                 0.0168                 0.0099
 IR Inten    --      0.1685                17.6398                 0.0000

                      4                      5                      6
                      A                      A                      A
 Frequencies --     79.6805               120.9824               130.7134
 Red. masses --     12.2463                13.7676                10.4731
 Frc consts  --      0.0458                 0.1187                 0.1054
 IR Inten    --      6.4398                 0.0000                 0.0000

                      7                      8                      9
                      A                      A                      A
 Frequencies --    136.2770               146.4768               217.7246
 Red. masses --     10.0848                12.2749                 9.8090
 Frc consts  --      0.1103                 0.1552                 0.2740
 IR Inten    --      0.0000                44.8821                 7.2566

                     10                     11                     12
                      A                      A                      A
 Frequencies --    286.7902               337.1788               362.4556
 Red. masses --      9.7431                12.1745                 8.0078
 Frc consts  --      0.4721                 0.8155                 0.6198
 IR Inten    --      2.7092                 0.0000                 0.0000

                     13                     14                     15
                      A                      A                      A
 Frequencies --    390.8675               418.0519               508.2664
 Red. masses --      5.5343                 3.0718                 2.7630
 Frc consts  --      0.4982                 0.3163                 0.4206
 IR Inten    --      0.0000                 0.0057                62.5693

                     16                     17                     18
                      A                      A                      A
 Frequencies --    517.5576               518.2524               536.4469
 Red. masses --     12.3149                11.9258                 8.1394
 Frc consts  --      1.9436                 1.8872                 1.3801
 IR Inten    --      0.0002                 0.3188                53.3684

                     19                     20                     21
                      A                      A                      A
 Frequencies --    544.7217               558.2389               593.8942
 Red. masses --     11.6218                 8.6483                11.4635
 Frc consts  --      2.0318                 1.5879                 2.3822
 IR Inten    --      1.0731                 0.0000                 0.0000

                     22                     23                     24
                      A                      A                      A
 Frequencies --    600.8445               647.6153               648.1073
 Red. masses --      6.3484                12.4375                12.3152
 Frc consts  --      1.3503                 3.0734                 3.0478
 IR Inten    --     10.0082                17.0191                 0.0082

                     25                     26                     27
                      A                      A                      A
 Frequencies --    652.5342               737.0650               742.8078
 Red. masses --      7.1922                 3.9701                 7.4614
 Frc consts  --      1.8043                 1.2708                 2.4256
 IR Inten    --      0.0000                 0.0000                 0.0000

                     28                     29                     30
                      A                      A                      A
 Frequencies --    826.6793               832.2200               945.7943
 Red. masses --      1.2624                 1.7572                 1.3270
 Frc consts  --      0.5083                 0.7170                 0.6994
 IR Inten    --      0.0000               122.1143                 0.0000

                     31                     32                     33
                      A                      A                      A
 Frequencies --    964.6354              1008.8134              1009.6754
 Red. masses --      1.3350                 8.8840                 5.2069
 Frc consts  --      0.7319                 5.3270                 3.1275
 IR Inten    --      0.0012                 0.0000                 1.7672

                     34                     35                     36
                      A                      A                      A
 Frequencies --   1051.7920              1133.6206              1210.9434
 Red. masses --      2.7626                 1.5579                 1.1341
 Frc consts  --      1.8007                 1.1796                 0.9798
 IR Inten    --     13.8091                 0.1256                 0.0000

                     37                     38                     39
                      A                      A                      A
 Frequencies --   1250.4163              1259.8968              1303.5915
 Red. masses --      4.4871                 5.0515                 4.0424
 Frc consts  --      4.1336                 4.7243                 4.0474
 IR Inten    --    151.2150                 0.0000               611.2170

                     40                     41                     42
                      A                      A                      A
 Frequencies --   1311.4546              1313.7649              1351.2769
 Red. masses --     11.6771                10.8808                 1.5441
 Frc consts  --     11.8329                11.0648                 1.6611
 IR Inten    --      2.3464                 0.0000                 0.0000

                     43                     44                     45
                      A                      A                      A
 Frequencies --   1449.3339              1524.6412              1568.4026
 Red. masses --      3.1770                 2.2554                 6.0664
 Frc consts  --      3.9319                 3.0890                 8.7921
 IR Inten    --     10.3005               731.6723                 0.0000

                     46                     47                     48
                      A                      A                      A
 Frequencies --   1640.5768              2164.1355              2164.2777
 Red. masses --      5.6253                12.6489                12.6491
 Frc consts  --      8.9205                34.9037                34.9088
 IR Inten    --      0.0000                 4.8204              2953.0565

                     49                     50                     51
                      A                      A                      A
 Frequencies --   2225.5803              2240.7533              3150.9165
 Red. masses --     12.6489                12.6446                 1.0861
 Frc consts  --     36.9139                37.4061                 6.3532
 IR Inten    --   1825.7781                 0.0003                49.8989

                     52                     53                     54
                      A                      A                      A
 Frequencies --   3152.0582              3166.6200              3169.2268
 Red. masses --      1.0862                 1.0929                 1.0934
 Frc consts  --      6.3583                 6.4567                 6.4705
 IR Inten    --      0.0000                55.9536                 0.0000

 - Thermochemistry -
 -------------------
 Temperature   298.150 Kelvin.  Pressure   1.00000 Atm.
 Atom     1 has atomic number  7 and mass  14.00307

 Molecular mass:   204.04360 amu.
 Principal axes and moments of inertia in atomic units:
                           1         2         3
     Eigenvalues --  1523.046986866.149548389.16915
           X            0.88875  -0.44567   0.10726
           Y            0.28731   0.72390   0.62723
           Z           -0.35719  -0.52663   0.77141
 This molecule is an asymmetric top.
 Rotational symmetry number  1.
 Warning -- assumption of classical behavior for rotation
           may cause significant error
 Rotational temperatures (Kelvin)      0.05687     0.01261     0.01032
 Rotational constants (GHZ):           1.18495     0.26285     0.21513
 Zero-point vibrational energy     328817.7 (Joules/Mol)
                                   78.58933 (Kcal/Mol)
 Warning -- explicit consideration of  22 degrees of freedom as
           vibrations may cause significant error
 Vibrational temperatures:     43.91    79.15    91.87   114.64   174.07
          (Kelvin)            188.07   196.07   210.75   313.26   412.63
                              485.13   521.49   562.37   601.48   731.28
                              744.65   745.65   771.83   783.73   803.18
                              854.48   864.48   931.77   932.48   938.85
                             1060.47  1068.73  1189.41  1197.38  1360.79
                             1387.90  1451.46  1452.70  1513.29  1631.03
                             1742.28  1799.07  1812.71  1875.58  1886.89
                             1890.21  1944.19  2085.27  2193.62  2256.58
                             2360.42  3113.71  3113.91  3202.11  3223.94
                             4533.47  4535.11  4556.06  4559.81

 Zero-point correction=                           0.125240 (Hartree/Particle)
 Thermal correction to Energy=                    0.138940
 Thermal correction to Enthalpy=                  0.139884
 Thermal correction to Gibbs Free Energy=         0.082934
 Sum of electronic and zero-point Energies=           -678.972345
 Sum of electronic and thermal Energies=              -678.958645
 Sum of electronic and thermal Enthalpies=            -678.957700
 Sum of electronic and thermal Free Energies=         -679.014650

                     E (Thermal)             CV                S
                      KCal/Mol        Cal/Mol-Kelvin    Cal/Mol-Kelvin
 Total                   87.186             49.340            119.861
 Electronic               0.000              0.000              0.000
 Translational            0.889              2.981             41.844
 Rotational               0.889              2.981             32.839
 Vibrational             85.409             43.378             45.178
 Vibration     1          0.594              1.984              5.795
 Vibration     2          0.596              1.976              4.629
 Vibration     3          0.597              1.972              4.334
 Vibration     4          0.600              1.963              3.899
 Vibration     5          0.609              1.932              3.085
 Vibration     6          0.612              1.923              2.936
 Vibration     7          0.614              1.917              2.855
 Vibration     8          0.617              1.906              2.717
 Vibration     9          0.646              1.814              1.978
 Vibration    10          0.684              1.698              1.493
 Vibration    11          0.718              1.601              1.225
 Vibration    12          0.736              1.550              1.112
 Vibration    13          0.759              1.490              0.997
 Vibration    14          0.781              1.431              0.899
 Vibration    15          0.863              1.232              0.638
 Vibration    16          0.873              1.211              0.616
 Vibration    17          0.873              1.210              0.614
 Vibration    18          0.891              1.169              0.573
 Vibration    19          0.900              1.151              0.555
 Vibration    20          0.914              1.122              0.527
 Vibration    21          0.952              1.045              0.460
 Vibration    22          0.959              1.030              0.448

 Optimization completed.
    -- Stationary point found.
 Normal termination of Gaussian 16 at Sun Feb 11 16:26:52 2024.
