 Gaussian 16, Revision A.03,
 Gaussian 16:  ES64L-G16RevA.03 25-Dec-2016

 ----------------------------------------------
 #P UB3LYP/6-311++G(d,p) nosym opt freq SCF=YQC
 ----------------------------------------------

 -------
 Reduced
 -------
 Symbolic Z-matrix:
 Charge = -2 Multiplicity = 1

 SCF Done:  E(UB3LYP) =  -590.545893326     a.u. after    9 cycles
 SCF Done:  E(UB3LYP) =  -590.554536207     A.U. after   33 cycles
 SCF Done:  E(UB3LYP) =  -590.554536207     a.u. after    1 cycles
 SCF Done:  E(UB3LYP) =  -590.582914385     a.u. after   34 cycles
 SCF Done:  E(UB3LYP) =  -590.583514146     A.U. after   33 cycles
 SCF Done:  E(UB3LYP) =  -590.583514146     a.u. after    1 cycles
 SCF Done:  E(UB3LYP) =  -590.593087232     a.u. after   37 cycles
 SCF Done:  E(UB3LYP) =  -590.593553673     A.U. after   33 cycles
 SCF Done:  E(UB3LYP) =  -590.593553673     a.u. after    1 cycles
 SCF Done:  E(UB3LYP) =  -590.602048192     a.u. after   35 cycles
 SCF Done:  E(UB3LYP) =  -590.610085535     a.u. after    1 cycles
 SCF Done:  E(UB3LYP) =  -590.610021505     a.u. after    7 cycles
 SCF Done:  E(UB3LYP) =  -590.610114235     A.U. after   29 cycles
 SCF Done:  E(UB3LYP) =  -590.610078211     a.u. after    3 cycles
 SCF Done:  E(UB3LYP) =  -590.610140174     A.U. after   33 cycles
 SCF Done:  E(UB3LYP) =  -590.610140174     a.u. after    1 cycles
 SCF Done:  E(UB3LYP) =  -590.610136163     a.u. after    1 cycles
 SCF Done:  E(UB3LYP) =  -590.610141623     A.U. after   25 cycles
 Optimization completed.
    -- Stationary point found.
 Normal termination of Gaussian 16 at Wed Dec 27 02:50:02 2023.

 ----------------------------------------------------------------------
 #P Geom=AllCheck Guess=TCheck SCRF=Check GenChk UB3LYP/6-311++G(d,p) F
 req
 ----------------------------------------------------------------------

 Structure from the checkpoint file:  "269-an.chk"
 -------
 Reduced
 -------
 Charge = -2 Multiplicity = 1

                          Input orientation:
 ---------------------------------------------------------------------
 Center     Atomic      Atomic             Coordinates (Angstroms)
 Number     Number       Type             X           Y           Z
 ---------------------------------------------------------------------
      1          7           0       -3.365744   -0.878775    0.074318
      2          6           0       -2.065163   -0.286254    0.091359
      3          6           0       -1.895647    1.072647    0.395770
      4          6           0       -0.633446    1.727493    0.423119
      5          8           0       -0.482292    2.976312    0.696143
      6          6           0        0.499248    0.854880    0.093402
      7          6           0        1.807096    1.379957    0.074283
      8          6           0        2.917302    0.599040   -0.210149
      9          6           0        2.741368   -0.781754   -0.484787
     10          6           0        1.471721   -1.328196   -0.481399
     11          6           0        0.314307   -0.549178   -0.216869
     12          6           0       -0.989567   -1.167650   -0.219186
     13          8           0       -1.200267   -2.433566   -0.451369
     14          1           0       -3.882363   -0.669511    0.927465
     15          1           0       -3.201685   -1.886390    0.004855
     16          1           0       -2.775106    1.685590    0.595100
     17          1           0        1.905263    2.438686    0.297606
     18          1           0        3.915291    1.035177   -0.217728
     19          1           0        3.607468   -1.406130   -0.704019
     20          1           0        1.312218   -2.382379   -0.687914
 ---------------------------------------------------------------------

 SCF Done:  E(UB3LYP) =  -590.610141623     a.u. after    1 cycles
 SCF Done:  E(UB3LYP) =  -590.610141623     A.U. after    4 cycles

 Alpha  occ. eigenvalues --  -18.77011 -18.76811 -14.04898  -9.92895  -9.91912
 Alpha  occ. eigenvalues --   -9.91527  -9.91524  -9.91186  -9.90640  -9.90568
 Alpha  occ. eigenvalues --   -9.89370  -9.89167  -9.87412  -0.68610  -0.68041
 Alpha  occ. eigenvalues --   -0.62741  -0.58200  -0.51144  -0.48047  -0.45202
 Alpha  occ. eigenvalues --   -0.39246  -0.34471  -0.33329  -0.28460  -0.25715
 Alpha  occ. eigenvalues --   -0.23618  -0.21168  -0.18987  -0.16782  -0.16033
 Alpha  occ. eigenvalues --   -0.15136  -0.13424  -0.12451  -0.10682  -0.10089
 Alpha  occ. eigenvalues --   -0.08809  -0.07721  -0.06641  -0.05796  -0.03273
 Alpha  occ. eigenvalues --    0.01460   0.02686   0.04901   0.05357   0.05744
 Alpha  occ. eigenvalues --    0.14264
 Alpha virt. eigenvalues --    0.15915   0.17704   0.17874   0.20651   0.20999
 Alpha virt. eigenvalues --    0.22258   0.23137   0.23575   0.25280   0.26574
 Alpha virt. eigenvalues --    0.27489   0.27592   0.28883   0.28945   0.29581

  Beta  occ. eigenvalues --  -18.77011 -18.76811 -14.04898  -9.92895  -9.91912
  Beta  occ. eigenvalues --   -9.91527  -9.91524  -9.91186  -9.90640  -9.90568
  Beta  occ. eigenvalues --   -9.89370  -9.89167  -9.87412  -0.68610  -0.68041
  Beta  occ. eigenvalues --   -0.62741  -0.58200  -0.51144  -0.48047  -0.45202
  Beta  occ. eigenvalues --   -0.39246  -0.34471  -0.33329  -0.28460  -0.25715
  Beta  occ. eigenvalues --   -0.23618  -0.21168  -0.18987  -0.16782  -0.16033
  Beta  occ. eigenvalues --   -0.15136  -0.13424  -0.12451  -0.10682  -0.10089
  Beta  occ. eigenvalues --   -0.08809  -0.07721  -0.06641  -0.05796  -0.03273
  Beta  occ. eigenvalues --    0.01460   0.02686   0.04901   0.05357   0.05744
  Beta  occ. eigenvalues --    0.14264
  Beta virt. eigenvalues --    0.15915   0.17704   0.17874   0.20651   0.20999
  Beta virt. eigenvalues --    0.22258   0.23137   0.23575   0.25280   0.26574
  Beta virt. eigenvalues --    0.27489   0.27592   0.28883   0.28945   0.29581

 Mulliken charges and spin densities:
               1          2
     1  N   -0.402365   0.000000
     2  C    0.246720   0.000000
     3  C    0.112694  -0.000000
     4  C   -0.594626   0.000000
     5  O   -0.537927  -0.000000
     6  C    0.244117   0.000000
     7  C   -0.228059   0.000000
     8  C    0.551550  -0.000000
     9  C    0.346704  -0.000000
    10  C   -0.078707   0.000000
    11  C   -0.038396  -0.000000
    12  C   -0.842926   0.000000
    13  O   -0.566894  -0.000000
    14  H    0.046098  -0.000000
    15  H    0.245595   0.000000
    16  H    0.065696  -0.000000
    17  H    0.150842  -0.000000
    18  H   -0.394365   0.000000
    19  H   -0.501234   0.000000
    20  H    0.175483  -0.000000
 Sum of Mulliken charges =  -2.00000  -0.00000

 Dipole moment (field-independent basis, Debye):
    X=              0.4699    Y=             -1.6336    Z=              0.6028  Tot=              1.8036
 Quadrupole moment (field-independent basis, Debye-Ang):
   XX=           -141.8081   YY=           -137.9475   ZZ=            -93.8131
   XY=             -1.8532   XZ=              2.2638   YZ=             -9.5883

  Exact polarizability:3247.393  20.503 872.993-689.160  23.455 302.558
 Approx polarizability:3343.129-135.576 554.395-489.819  49.033 270.736

                      1                      2                      3
                      A                      A                      A
 Frequencies --     93.7485               140.9001               177.3168
 Red. masses --      5.9700                 4.2850                 7.3509
 Frc consts  --      0.0309                 0.0501                 0.1362
 IR Inten    --      4.2093                 1.6686                 4.8803

                      4                      5                      6
                      A                      A                      A
 Frequencies --    248.3146               256.7395               306.4040
 Red. masses --      4.5052                 4.8317                 2.1485
 Frc consts  --      0.1637                 0.1876                 0.1188
 IR Inten    --      7.6251                 6.6157                 5.5944

                      7                      8                      9
                      A                      A                      A
 Frequencies --    347.6354               356.0019               376.6476
 Red. masses --      2.3205                 3.1682                 6.5961
 Frc consts  --      0.1652                 0.2366                 0.5513
 IR Inten    --    145.8639                29.2956                18.4666

                     10                     11                     12
                      A                      A                      A
 Frequencies --    411.4196               445.6027               459.8907
 Red. masses --      8.1461                 3.3744                 8.1281
 Frc consts  --      0.8124                 0.3948                 1.0129
 IR Inten    --    452.7214                28.7400               398.0711

                     13                     14                     15
                      A                      A                      A
 Frequencies --    502.6240               528.3408               637.9380
 Red. masses --      3.4994                 7.7252                 3.8409
 Frc consts  --      0.5209                 1.2705                 0.9209
 IR Inten    --     12.4366               130.8547                25.8390

                     16                     17                     18
                      A                      A                      A
 Frequencies --    644.5584               663.6603               693.4816
 Red. masses --      3.8463                 5.3406                 3.2215
 Frc consts  --      0.9415                 1.3859                 0.9128
 IR Inten    --     70.5903                16.4429               264.7105

                     19                     20                     21
                      A                      A                      A
 Frequencies --    720.3868               755.8971               777.7215
 Red. masses --      6.3033                 3.0790                 1.3525
 Frc consts  --      1.9273                 1.0366                 0.4820
 IR Inten    --     37.7885               104.1723               310.9041

                     22                     23                     24
                      A                      A                      A
 Frequencies --    809.3731               821.8707               825.8299
 Red. masses --      2.3667                 1.5918                 4.2472
 Frc consts  --      0.9135                 0.6335                 1.7066
 IR Inten    --    191.6195                 3.7977               107.3445

                     25                     26                     27
                      A                      A                      A
 Frequencies --    905.0558               947.3068               966.9826
 Red. masses --      1.6764                 1.2136                 1.3218
 Frc consts  --      0.8090                 0.6417                 0.7282
 IR Inten    --    276.5865                30.5722               171.9491

                     28                     29                     30
                      A                      A                      A
 Frequencies --    982.7158              1013.8470              1078.3091
 Red. masses --      4.1697                 2.0563                 2.9383
 Frc consts  --      2.3725                 1.2453                 2.0129
 IR Inten    --    549.2570               339.7717               137.5967

                     31                     32                     33
                      A                      A                      A
 Frequencies --   1113.3584              1138.8543              1147.2098
 Red. masses --      1.6252                 1.4941                 1.4673
 Frc consts  --      1.1869                 1.1418                 1.1378
 IR Inten    --    158.8549                10.8367                34.8298

                     34                     35                     36
                      A                      A                      A
 Frequencies --   1180.6048              1221.4458              1230.5400
 Red. masses --      2.3207                 2.0078                 2.9138
 Frc consts  --      1.9058                 1.7649                 2.5996
 IR Inten    --    103.1627               179.6677               174.5759

                     37                     38                     39
                      A                      A                      A
 Frequencies --   1297.7597              1320.1460              1385.2878
 Red. masses --      1.9286                 6.7642                 8.2457
 Frc consts  --      1.9137                 6.9456                 9.3230
 IR Inten    --     34.0737               982.4312              1871.0432

                     40                     41                     42
                      A                      A                      A
 Frequencies --   1410.6698              1430.3776              1450.7079
 Red. masses --      7.7718                 2.2946                 2.9224
 Frc consts  --      9.1122                 2.7661                 3.6236
 IR Inten    --    973.6019               424.4988                15.4565

                     43                     44                     45
                      A                      A                      A
 Frequencies --   1505.6847              1522.6798              1561.0729
 Red. masses --      4.1434                 4.9435                 5.4969
 Frc consts  --      5.5344                 6.7531                 7.8925
 IR Inten    --   1518.3858               184.9605              2634.3533

                     46                     47                     48
                      A                      A                      A
 Frequencies --   1581.8954              1586.3365              3082.5237
 Red. masses --      1.6646                 2.2589                 1.0835
 Frc consts  --      2.4543                 3.3491                 6.0659
 IR Inten    --    470.9930              1664.8018               521.8513

                     49                     50                     51
                      A                      A                      A
 Frequencies --   3091.9922              3108.4729              3148.2140
 Red. masses --      1.0868                 1.0906                 1.0904
 Frc consts  --      6.1218                 6.2086                 6.3674
 IR Inten    --     74.1198                96.2267                42.9684

                     52                     53                     54
                      A                      A                      A
 Frequencies --   3153.1375              3366.7386              3464.0730
 Red. masses --      1.0907                 1.0457                 1.0945
 Frc consts  --      6.3889                 6.9833                 7.7382
 IR Inten    --     80.5001              9710.5476              5674.8111

 - Thermochemistry -
 -------------------
 Temperature   298.150 Kelvin.  Pressure   1.00000 Atm.
 Atom     1 has atomic number  7 and mass  14.00307

 Molecular mass:   173.04768 amu.
 Principal axes and moments of inertia in atomic units:
                           1         2         3
     Eigenvalues --  1468.387262282.984253747.45472
           X            0.97237  -0.21005   0.10183
           Y            0.22786   0.94883  -0.21862
           Z           -0.05070   0.23578   0.97048
 This molecule is an asymmetric top.
 Rotational symmetry number  1.
 Warning -- assumption of classical behavior for rotation
           may cause significant error
 Rotational temperatures (Kelvin)      0.05899     0.03794     0.02311
 Rotational constants (GHZ):           1.22906     0.79052     0.48159
 Zero-point vibrational energy     379194.1 (Joules/Mol)
                                   90.62957 (Kcal/Mol)
 Warning -- explicit consideration of  14 degrees of freedom as
           vibrations may cause significant error
 Vibrational temperatures:    134.88   202.72   255.12   357.27   369.39
          (Kelvin)            440.85   500.17   512.21   541.91   591.94
                              641.12   661.68   723.16   760.16   917.85
                              927.38   954.86   997.77  1036.48  1087.57
                             1118.97  1164.51  1182.49  1188.19  1302.17
                             1362.96  1391.27  1413.91  1458.70  1551.45
                             1601.87  1638.56  1650.58  1698.63  1757.39
                             1770.47  1867.19  1899.40  1993.12  2029.64
                             2057.99  2087.25  2166.34  2190.80  2246.04
                             2275.99  2282.38  4435.06  4448.69  4472.40
                             4529.58  4536.66  4843.99  4984.03

 Zero-point correction=                           0.144427 (Hartree/Particle)
 Thermal correction to Energy=                    0.154387
 Thermal correction to Enthalpy=                  0.155331
 Thermal correction to Gibbs Free Energy=         0.109367
 Sum of electronic and zero-point Energies=           -590.465714
 Sum of electronic and thermal Energies=              -590.455755
 Sum of electronic and thermal Enthalpies=            -590.454811
 Sum of electronic and thermal Free Energies=         -590.500774

                     E (Thermal)             CV                S
                      KCal/Mol        Cal/Mol-Kelvin    Cal/Mol-Kelvin
 Total                   96.879             40.583             96.738
 Electronic               0.000              0.000              0.000
 Translational            0.889              2.981             41.353
 Rotational               0.889              2.981             30.908
 Vibrational             95.102             34.621             24.478
 Vibration     1          0.603              1.954              3.580
 Vibration     2          0.615              1.912              2.792
 Vibration     3          0.628              1.870              2.356
 Vibration     4          0.662              1.766              1.743
 Vibration     5          0.666              1.751              1.684
 Vibration     6          0.697              1.662              1.382
 Vibration     7          0.725              1.580              1.177
 Vibration     8          0.732              1.563              1.140
 Vibration     9          0.747              1.520              1.053
 Vibration    10          0.775              1.445              0.922
 Vibration    11          0.805              1.371              0.809
 Vibration    12          0.818              1.339              0.766
 Vibration    13          0.858              1.244              0.652
 Vibration    14          0.883              1.187              0.591

 Optimization completed.
    -- Stationary point found.
 Normal termination of Gaussian 16 at Wed Dec 27 03:08:27 2023.
