 Gaussian 16, Revision A.03,
 Gaussian 16:  ES64L-G16RevA.03 25-Dec-2016

 ----------------------------------------------------------------
 #P UB3LYP/6-311++G(d,p) SCRF=(PCM,Solvent=n,n-DiMethylFormamide)
 ----------------------------------------------------------------

 ------------------
 Quinone PCM in DMF
 ------------------
 Symbolic Z-matrix:
 Charge =  0 Multiplicity = 1

                         Standard orientation:
 ---------------------------------------------------------------------
 Center     Atomic      Atomic             Coordinates (Angstroms)
 Number     Number       Type             X           Y           Z
 ---------------------------------------------------------------------
      1          6           0        3.690578   -0.244624    0.162107
      2          6           0        4.249470   -1.514869    0.105329
      3          6           0        3.429752   -2.633432   -0.072104
      4          6           0        2.305855   -0.083911    0.040099
      5          6           0        1.481859   -1.205301   -0.137772
      6          6           0        2.053784   -2.480060   -0.191364
      7          6           0        1.722766    1.274514    0.098305
      8          6           0       -0.000942   -1.075147   -0.258328
      9          6           0        0.270545    1.430126   -0.048336
     10          6           0       -0.583176    0.300532   -0.219697
     11          6           0       -0.275106    2.736278   -0.028951
     12          6           0       -1.659097    2.912121   -0.190881
     13          6           0       -2.477198    1.817674   -0.357661
     14          6           0       -1.953546    0.519404   -0.368320
     15          8           0        2.461202    2.258398    0.260147
     16          8           0       -0.688887   -2.075664   -0.386310
     17          1           0        4.305147    0.635839    0.300151
     18          1           0        5.322236   -1.638156    0.199694
     19          1           0        3.867812   -3.624096   -0.115125
     20          1           0        1.401389   -3.333616   -0.324606
     21          1           0       -3.546417    1.937734   -0.483420
     22          8           0        0.469483    3.833873    0.132753
     23          8           0       -2.855300   -0.500770   -0.612136
     24          6           0       -3.217276   -1.329390    0.433742
     25          6           0       -4.012276   -2.490048   -0.084286
     26          8           0       -2.922924   -1.103703    1.572460
     27          1           0       -2.055586    3.919677   -0.176857
     28          1           0        1.408870    3.535767    0.229956
     29          1           0       -3.322741   -3.170037   -0.590668
     30          1           0       -4.754398   -2.159341   -0.812463
     31          1           0       -4.490866   -3.004050    0.746725
 ---------------------------------------------------------------------

 SCF Done:  E(UB3LYP) =  -992.163140007     A.U. after   15 cycles

 The electronic state is 1-A.
 Alpha  occ. eigenvalues --  -19.18922 -19.16787 -19.14493 -19.13535 -19.13520
 Alpha  occ. eigenvalues --  -10.32612 -10.29462 -10.29142 -10.27442 -10.26757
 Alpha  occ. eigenvalues --  -10.22511 -10.21884 -10.21347 -10.21273 -10.21055
 Alpha  occ. eigenvalues --  -10.20514 -10.20215 -10.20192 -10.20130 -10.20066
 Alpha  occ. eigenvalues --  -10.18450  -1.13339  -1.09896  -1.07147  -1.06694
 Alpha  occ. eigenvalues --   -1.05312  -0.90107  -0.88684  -0.82360  -0.79551
 Alpha  occ. eigenvalues --   -0.78287  -0.78080  -0.75379  -0.70546  -0.67900
 Alpha  occ. eigenvalues --   -0.66459  -0.65220  -0.60949  -0.59357  -0.57500
 Alpha  occ. eigenvalues --   -0.56347  -0.54494  -0.51505  -0.51041  -0.50688
 Alpha  occ. eigenvalues --   -0.49938  -0.49320  -0.48182  -0.46928  -0.46647
 Alpha  occ. eigenvalues --   -0.46036  -0.45647  -0.45042  -0.44903  -0.43572
 Alpha  occ. eigenvalues --   -0.42892  -0.42410  -0.41808  -0.40682  -0.39424
 Alpha  occ. eigenvalues --   -0.39319  -0.38687  -0.38322  -0.37319  -0.35955
 Alpha  occ. eigenvalues --   -0.34180  -0.30638  -0.29950  -0.29894  -0.28390
 Alpha  occ. eigenvalues --   -0.28257  -0.27993  -0.25361
 Alpha virt. eigenvalues --   -0.12696  -0.07683  -0.04500  -0.02715  -0.01433
 Alpha virt. eigenvalues --   -0.00686   0.00049   0.00439   0.01442   0.01895
 Alpha virt. eigenvalues --    0.02689   0.02748   0.03180   0.03413   0.03689

  Beta  occ. eigenvalues --  -19.18922 -19.16787 -19.14493 -19.13535 -19.13520
  Beta  occ. eigenvalues --  -10.32612 -10.29462 -10.29142 -10.27442 -10.26757
  Beta  occ. eigenvalues --  -10.22511 -10.21884 -10.21347 -10.21273 -10.21055
  Beta  occ. eigenvalues --  -10.20514 -10.20215 -10.20192 -10.20130 -10.20066
  Beta  occ. eigenvalues --  -10.18450  -1.13339  -1.09896  -1.07147  -1.06694
  Beta  occ. eigenvalues --   -1.05312  -0.90107  -0.88684  -0.82360  -0.79551
  Beta  occ. eigenvalues --   -0.78287  -0.78080  -0.75379  -0.70546  -0.67900
  Beta  occ. eigenvalues --   -0.66459  -0.65220  -0.60949  -0.59357  -0.57500
  Beta  occ. eigenvalues --   -0.56347  -0.54494  -0.51505  -0.51041  -0.50688
  Beta  occ. eigenvalues --   -0.49938  -0.49320  -0.48182  -0.46928  -0.46647
  Beta  occ. eigenvalues --   -0.46036  -0.45647  -0.45042  -0.44903  -0.43572
  Beta  occ. eigenvalues --   -0.42892  -0.42410  -0.41808  -0.40682  -0.39424
  Beta  occ. eigenvalues --   -0.39319  -0.38687  -0.38322  -0.37319  -0.35955
  Beta  occ. eigenvalues --   -0.34180  -0.30638  -0.29950  -0.29894  -0.28390
  Beta  occ. eigenvalues --   -0.28257  -0.27993  -0.25361
  Beta virt. eigenvalues --   -0.12696  -0.07683  -0.04500  -0.02715  -0.01433
  Beta virt. eigenvalues --   -0.00686   0.00049   0.00439   0.01442   0.01895
  Beta virt. eigenvalues --    0.02689   0.02748   0.03180   0.03413   0.03689

 Mulliken charges and spin densities:
               1          2
     1  C    0.012486   0.000000
     2  C   -0.487935  -0.000000
     3  C   -0.390901   0.000000
     4  C    0.107031  -0.000000
     5  C   -0.148180   0.000000
     6  C    0.112812   0.000000
     7  C   -0.369964  -0.000000
     8  C   -0.272710  -0.000000
     9  C    0.765563   0.000000
    10  C    0.635413   0.000000
    11  C   -0.329369  -0.000000
    12  C   -0.135097  -0.000000
    13  C    0.144713  -0.000000
    14  C   -0.229841  -0.000000
    15  O   -0.310373  -0.000000
    16  O   -0.250467   0.000000
    17  H    0.191205   0.000000
    18  H    0.208074   0.000000
    19  H    0.213112   0.000000
    20  H    0.182755   0.000000
    21  H    0.235206   0.000000
    22  O   -0.314944   0.000000
    23  O   -0.000991   0.000000
    24  C    0.031482  -0.000000
    25  C   -0.481262   0.000000
    26  O   -0.261865   0.000000
    27  H    0.234596  -0.000000
    28  H    0.350511   0.000000
    29  H    0.199345  -0.000000
    30  H    0.185344  -0.000000
    31  H    0.174250  -0.000000
 Sum of Mulliken charges =  -0.00000   0.00000

 Dipole moment (field-independent basis, Debye):
    X=              0.8679    Y=             -1.8694    Z=             -2.2635  Tot=              3.0613
 Quadrupole moment (field-independent basis, Debye-Ang):
   XX=            -94.0793   YY=           -117.4062   ZZ=           -127.8761
   XY=            -13.8473   XZ=              6.5283   YZ=              0.6011

 Normal termination of Gaussian 16 at Sun Jan 14 01:09:31 2024.
