 Gaussian 16, Revision A.03,
 Gaussian 16:  ES64L-G16RevA.03 25-Dec-2016

 --------------------------------------
 #P UB3LYP/6-311++G(d,p) nosym opt freq
 --------------------------------------

 --------
 Oxidized
 --------
 Symbolic Z-matrix:
 Charge =  0 Multiplicity = 1

 SCF Done:  E(UB3LYP) =  -2015.33224815     A.U. after   16 cycles
 SCF Done:  E(UB3LYP) =  -2015.34289844     A.U. after   14 cycles
 SCF Done:  E(UB3LYP) =  -2015.34464711     A.U. after   16 cycles
 SCF Done:  E(UB3LYP) =  -2015.34563719     A.U. after   16 cycles
 SCF Done:  E(UB3LYP) =  -2015.34669201     A.U. after   17 cycles
 SCF Done:  E(UB3LYP) =  -2015.34752725     A.U. after   16 cycles
 SCF Done:  E(UB3LYP) =  -2015.34782942     A.U. after   16 cycles
 SCF Done:  E(UB3LYP) =  -2015.34813061     A.U. after   17 cycles
 SCF Done:  E(UB3LYP) =  -2015.34825479     A.U. after   13 cycles
 SCF Done:  E(UB3LYP) =  -2015.34828024     A.U. after   14 cycles
 SCF Done:  E(UB3LYP) =  -2015.34828582     A.U. after   11 cycles
 SCF Done:  E(UB3LYP) =  -2015.34829026     A.U. after   11 cycles
 SCF Done:  E(UB3LYP) =  -2015.34830209     A.U. after   13 cycles
 SCF Done:  E(UB3LYP) =  -2015.34830482     A.U. after   12 cycles
 SCF Done:  E(UB3LYP) =  -2015.34830668     A.U. after   12 cycles
 SCF Done:  E(UB3LYP) =  -2015.34830764     A.U. after   11 cycles
 SCF Done:  E(UB3LYP) =  -2015.34830797     A.U. after   11 cycles
 SCF Done:  E(UB3LYP) =  -2015.34830818     A.U. after   11 cycles
 SCF Done:  E(UB3LYP) =  -2015.34830820     A.U. after   10 cycles
 Optimization completed.
    -- Stationary point found.
 Normal termination of Gaussian 16 at Thu Dec 21 21:25:51 2023.

 ----------------------------------------------------------------------
 #P Geom=AllCheck Guess=TCheck SCRF=Check GenChk UB3LYP/6-311++G(d,p) F
 req
 ----------------------------------------------------------------------

 Structure from the checkpoint file:  "216.chk"
 --------
 Oxidized
 --------
 Charge =  0 Multiplicity = 1

                          Input orientation:
 ---------------------------------------------------------------------
 Center     Atomic      Atomic             Coordinates (Angstroms)
 Number     Number       Type             X           Y           Z
 ---------------------------------------------------------------------
      1          6           0        5.109505   -2.844528    0.126616
      2          6           0        5.921570   -2.204665   -0.800111
      3          6           0        5.343980   -1.293338   -1.685580
      4          6           0        3.738405   -2.574045    0.166990
      5          6           0        3.173985   -1.656041   -0.735418
      6          6           0        3.986448   -1.011849   -1.672376
      7          6           0        2.895089   -3.280338    1.180431
      8          6           0        1.434433   -2.972086    1.193818
      9          6           0        0.870007   -2.054104    0.291384
     10          6           0        1.713321   -1.347836   -0.722075
     11          6           0        0.621979   -3.616233    2.130811
     12          6           0       -0.501085   -1.783608    0.331773
     13          6           0       -1.313140   -2.423423    1.258548
     14          8           0        3.382174   -4.076180    1.961635
     15          8           0        1.226224   -0.552066   -1.503347
     16          1           0        5.519410   -3.559638    0.828569
     17          1           0        6.983473   -2.409256   -0.851998
     18         16           0        6.393178   -0.466239   -2.884631
     19          1           0       -2.375032   -2.218773    1.310443
     20          1           0        3.545931   -0.314726   -2.373822
     21          1           0        1.062476   -4.313343    2.832282
     22          1           0       -0.911006   -1.068518   -0.370191
     23          6           0       -0.735550   -3.334709    2.144051
     24         16           0       -1.784720   -4.161722    3.343192
     25          8           0       -0.998225   -4.547383    4.505347
     26          8           0       -3.015923   -3.402386    3.510129
     27          8           0       -2.098507   -5.497638    2.447169
     28          6           0       -2.909119   -6.517066    3.087997
     29          1           0       -2.408092   -6.890497    3.982251
     30          1           0       -2.996282   -7.307449    2.346271
     31          1           0       -3.894934   -6.118079    3.332253
     32          8           0        5.606844   -0.081195   -4.047106
     33          8           0        7.624625   -1.225292   -3.051025
     34          8           0        6.706204    0.870013   -1.988856
     35          6           0        7.515565    1.890141   -2.630140
     36          1           0        7.013893    2.262841   -3.524335
     37          1           0        8.501728    1.492128   -2.874589
     38          1           0        7.602121    2.680775   -1.888611
 ---------------------------------------------------------------------

 SCF Done:  E(UB3LYP) =  -2015.34830820     A.U. after    2 cycles

 Alpha  occ. eigenvalues --  -89.10098 -89.10098 -19.19295 -19.19294 -19.15344
 Alpha  occ. eigenvalues --  -19.15343 -19.14673 -19.14672 -19.14659 -19.14659
 Alpha  occ. eigenvalues --  -10.30588 -10.30587 -10.25597 -10.25596 -10.25051
 Alpha  occ. eigenvalues --  -10.25050 -10.24062 -10.24061 -10.23926 -10.23926
 Alpha  occ. eigenvalues --  -10.23564 -10.23563 -10.23471 -10.23471 -10.22770
 Alpha  occ. eigenvalues --  -10.22769  -8.16197  -8.16197  -6.12567  -6.12567
 Alpha  occ. eigenvalues --   -6.12370  -6.12370  -6.12284  -6.12284  -1.17054
 Alpha  occ. eigenvalues --   -1.17054  -1.08938  -1.08746  -1.06359  -1.06357
 Alpha  occ. eigenvalues --   -1.04107  -1.04106  -0.92937  -0.92067  -0.85520
 Alpha  occ. eigenvalues --   -0.82453  -0.81424  -0.81073  -0.76755  -0.76065
 Alpha  occ. eigenvalues --   -0.72116  -0.71076  -0.68682  -0.66803  -0.64471
 Alpha  occ. eigenvalues --   -0.63189  -0.61586  -0.59338  -0.59027  -0.56970
 Alpha  occ. eigenvalues --   -0.54307  -0.53754  -0.53403  -0.53284  -0.52139
 Alpha  occ. eigenvalues --   -0.50848  -0.50272  -0.49618  -0.48561  -0.48239
 Alpha  occ. eigenvalues --   -0.48238  -0.48082  -0.47716  -0.47335  -0.47264
 Alpha  occ. eigenvalues --   -0.46774  -0.46599  -0.44882  -0.44138  -0.43201
 Alpha  occ. eigenvalues --   -0.42452  -0.42186  -0.41966  -0.41491  -0.40156
 Alpha  occ. eigenvalues --   -0.40058  -0.37010  -0.37004  -0.36401  -0.36383
 Alpha  occ. eigenvalues --   -0.35049  -0.35038  -0.34875  -0.34849  -0.31889
 Alpha  occ. eigenvalues --   -0.31577  -0.31568  -0.31143  -0.31109  -0.30881
 Alpha  occ. eigenvalues --   -0.30656  -0.29725
 Alpha virt. eigenvalues --   -0.14487  -0.10797  -0.07789  -0.06308  -0.02084
 Alpha virt. eigenvalues --   -0.01660  -0.01303  -0.00321  -0.00248   0.00679
 Alpha virt. eigenvalues --    0.00695   0.01089   0.01460   0.02044   0.02208

  Beta  occ. eigenvalues --  -89.10098 -89.10098 -19.19295 -19.19294 -19.15344
  Beta  occ. eigenvalues --  -19.15343 -19.14673 -19.14672 -19.14659 -19.14659
  Beta  occ. eigenvalues --  -10.30588 -10.30587 -10.25597 -10.25596 -10.25051
  Beta  occ. eigenvalues --  -10.25050 -10.24062 -10.24061 -10.23926 -10.23926
  Beta  occ. eigenvalues --  -10.23564 -10.23563 -10.23471 -10.23471 -10.22770
  Beta  occ. eigenvalues --  -10.22769  -8.16197  -8.16197  -6.12567  -6.12567
  Beta  occ. eigenvalues --   -6.12370  -6.12370  -6.12284  -6.12284  -1.17054
  Beta  occ. eigenvalues --   -1.17054  -1.08938  -1.08746  -1.06359  -1.06357
  Beta  occ. eigenvalues --   -1.04107  -1.04106  -0.92937  -0.92067  -0.85520
  Beta  occ. eigenvalues --   -0.82453  -0.81424  -0.81073  -0.76755  -0.76065
  Beta  occ. eigenvalues --   -0.72116  -0.71076  -0.68682  -0.66803  -0.64471
  Beta  occ. eigenvalues --   -0.63189  -0.61586  -0.59338  -0.59027  -0.56970
  Beta  occ. eigenvalues --   -0.54307  -0.53754  -0.53403  -0.53284  -0.52139
  Beta  occ. eigenvalues --   -0.50848  -0.50272  -0.49618  -0.48561  -0.48239
  Beta  occ. eigenvalues --   -0.48238  -0.48082  -0.47716  -0.47335  -0.47264
  Beta  occ. eigenvalues --   -0.46774  -0.46599  -0.44882  -0.44138  -0.43201
  Beta  occ. eigenvalues --   -0.42452  -0.42186  -0.41966  -0.41491  -0.40156
  Beta  occ. eigenvalues --   -0.40058  -0.37010  -0.37004  -0.36401  -0.36383
  Beta  occ. eigenvalues --   -0.35049  -0.35038  -0.34875  -0.34849  -0.31889
  Beta  occ. eigenvalues --   -0.31577  -0.31568  -0.31143  -0.31109  -0.30881
  Beta  occ. eigenvalues --   -0.30656  -0.29725
  Beta virt. eigenvalues --   -0.14487  -0.10797  -0.07789  -0.06308  -0.02084
  Beta virt. eigenvalues --   -0.01660  -0.01303  -0.00321  -0.00248   0.00679
  Beta virt. eigenvalues --    0.00695   0.01089   0.01460   0.02044   0.02208

 Mulliken charges and spin densities:
               1          2
     1  C    0.064492   0.000000
     2  C   -0.227495   0.000000
     3  C   -0.903819   0.000000
     4  C    0.599797  -0.000000
     5  C    0.246163  -0.000000
     6  C    0.118035  -0.000000
     7  C   -0.730956  -0.000000
     8  C    0.246164  -0.000000
     9  C    0.600025  -0.000000
    10  C   -0.730954  -0.000000
    11  C    0.118476   0.000000
    12  C    0.064332   0.000000
    13  C   -0.227851   0.000000
    14  O   -0.175656   0.000000
    15  O   -0.175663  -0.000000
    16  H    0.194294  -0.000000
    17  H    0.247778   0.000000
    18  S    0.212504  -0.000000
    19  H    0.247757  -0.000000
    20  H    0.248721   0.000000
    21  H    0.248760  -0.000000
    22  H    0.194283  -0.000000
    23  C   -0.903971   0.000000
    24  S    0.212328   0.000000
    25  O   -0.139784   0.000000
    26  O   -0.118563  -0.000000
    27  O   -0.025502  -0.000000
    28  C   -0.137100  -0.000000
    29  H    0.175988  -0.000000
    30  H    0.177713  -0.000000
    31  H    0.173558   0.000000
    32  O   -0.140006   0.000000
    33  O   -0.118342   0.000000
    34  O   -0.025580   0.000000
    35  C   -0.137202   0.000000
    36  H    0.175993   0.000000
    37  H    0.173565  -0.000000
    38  H    0.177717  -0.000000
 Sum of Mulliken charges =  -0.00000   0.00000

 Dipole moment (field-independent basis, Debye):
    X=             -0.0021    Y=              0.0019    Z=             -0.0011  Tot=              0.0030
 Quadrupole moment (field-independent basis, Debye-Ang):
   XX=           -155.6878   YY=           -143.0763   ZZ=           -199.4619
   XY=             24.3980   XZ=             12.8702   YZ=              0.0006

  Exact polarizability: 334.968  36.015 223.627 -68.766 -76.552 238.032
 Approx polarizability: 478.067 -30.745 352.341 -23.936-120.220 382.863

                      1                      2                      3
                      A                      A                      A
 Frequencies --     14.6048                17.6525                18.8652
 Red. masses --      5.1734                 7.9898                 5.6167
 Frc consts  --      0.0007                 0.0015                 0.0012
 IR Inten    --      4.4194                 0.6984                 0.0000

                      4                      5                      6
                      A                      A                      A
 Frequencies --     39.9794                42.2447                55.2754
 Red. masses --      3.2839                 3.2855                 5.9161
 Frc consts  --      0.0031                 0.0035                 0.0107
 IR Inten    --      3.1046                 0.0001                 0.0000

                      7                      8                      9
                      A                      A                      A
 Frequencies --     64.7785                81.1753               112.9065
 Red. masses --      6.7472                10.9049                 4.4762
 Frc consts  --      0.0167                 0.0423                 0.0336
 IR Inten    --      3.8275                 5.5252                 2.6926

                     10                     11                     12
                      A                      A                      A
 Frequencies --    113.3367               127.2344               141.8510
 Red. masses --      7.9228                 6.6798                 1.1638
 Frc consts  --      0.0600                 0.0637                 0.0138
 IR Inten    --      0.0001                 0.0000                 1.2469

                     13                     14                     15
                      A                      A                      A
 Frequencies --    142.4442               150.0376               174.2391
 Red. masses --      1.1214                 5.5786                 7.6488
 Frc consts  --      0.0134                 0.0740                 0.1368
 IR Inten    --      0.0000                 7.1599                 0.0000

                     16                     17                     18
                      A                      A                      A
 Frequencies --    193.9960               214.1483               237.9083
 Red. masses --      7.6600                10.4458                 5.0904
 Frc consts  --      0.1699                 0.2822                 0.1698
 IR Inten    --      0.0000                 0.9324                28.4718

                     19                     20                     21
                      A                      A                      A
 Frequencies --    260.2166               262.7987               264.8410
 Red. masses --      6.4713                10.2671                 8.2462
 Frc consts  --      0.2582                 0.4178                 0.3408
 IR Inten    --      0.0000                 2.2817                 0.0000

                     22                     23                     24
                      A                      A                      A
 Frequencies --    326.5053               338.3027               363.5037
 Red. masses --      5.6762                 5.5951                 6.9853
 Frc consts  --      0.3565                 0.3773                 0.5438
 IR Inten    --      9.7162                 0.0000                 9.2874

                     25                     26                     27
                      A                      A                      A
 Frequencies --    369.8345               400.4074               413.5599
 Red. masses --      7.2630                 7.6423                10.6830
 Frc consts  --      0.5853                 0.7219                 1.0765
 IR Inten    --      0.0000                 0.0000                65.6652

                     28                     29                     30
                      A                      A                      A
 Frequencies --    423.1101               447.0653               456.7422
 Red. masses --      3.3953                 3.5016                11.2641
 Frc consts  --      0.3581                 0.4123                 1.3845
 IR Inten    --      0.4032                 0.0000                 0.0000

                     31                     32                     33
                      A                      A                      A
 Frequencies --    465.9041               474.9706               479.1874
 Red. masses --      9.2526                10.8831                11.0155
 Frc consts  --      1.1833                 1.4466                 1.4903
 IR Inten    --      0.0001                14.2489                 0.0026

                     34                     35                     36
                      A                      A                      A
 Frequencies --    480.5908               510.1939               521.0972
 Red. masses --     10.8252                 8.1678                 8.2149
 Frc consts  --      1.4731                 1.2526                 1.3143
 IR Inten    --     19.0212                 0.0000                 0.0000

                     37                     38                     39
                      A                      A                      A
 Frequencies --    570.3546               608.3305               629.7582
 Red. masses --      5.2998                 9.6168                 9.4436
 Frc consts  --      1.0158                 2.0968                 2.2067
 IR Inten    --     11.8693               221.6137                 0.0000

                     40                     41                     42
                      A                      A                      A
 Frequencies --    655.7929               670.9919               680.7282
 Red. masses --      7.4760                 5.1564                 7.8452
 Frc consts  --      1.8943                 1.3678                 2.1419
 IR Inten    --     18.5157                 0.0000               115.8237

                     43                     44                     45
                      A                      A                      A
 Frequencies --    698.7875               703.2618               709.7113
 Red. masses --      6.9992                 6.9569                 9.3139
 Frc consts  --      2.0137                 2.0272                 2.7640
 IR Inten    --      0.0000                 0.0000               459.2949

                     46                     47                     48
                      A                      A                      A
 Frequencies --    728.4270               751.2886               761.8907
 Red. masses --      3.8448                 9.0081                 5.6756
 Frc consts  --      1.2020                 2.9957                 1.9411
 IR Inten    --     73.1837                 0.0000                 6.3338

                     49                     50                     51
                      A                      A                      A
 Frequencies --    810.3986               852.3093               876.2326
 Red. masses --      4.4917                 7.5164                 1.4712
 Frc consts  --      1.7380                 3.2170                 0.6655
 IR Inten    --      0.0000                22.0751                 0.0000

                     52                     53                     54
                      A                      A                      A
 Frequencies --    881.9114               957.8216               960.0446
 Red. masses --      1.4593                 1.5227                 1.4786
 Frc consts  --      0.6687                 0.8231                 0.8030
 IR Inten    --     15.0602                 0.0001                 4.2950

                     55                     56                     57
                      A                      A                      A
 Frequencies --    968.0063               971.5848               987.7124
 Red. masses --      5.6543                 6.1203                 9.9996
 Frc consts  --      3.1217                 3.4040                 5.7477
 IR Inten    --      0.0000               450.7747                16.0732

                     58                     59                     60
                      A                      A                      A
 Frequencies --    987.7657              1015.8488              1017.9740
 Red. masses --      8.1983                 1.3523                 1.3702
 Frc consts  --      4.7128                 0.8222                 0.8366
 IR Inten    --    460.3449                 0.0000                 0.9219

                     61                     62                     63
                      A                      A                      A
 Frequencies --   1085.6030              1087.2016              1113.8701
 Red. masses --      2.1654                 2.5753                 6.5290
 Frc consts  --      1.5036                 1.7935                 4.7727
 IR Inten    --     26.7807                 0.0000               269.7215

                     64                     65                     66
                      A                      A                      A
 Frequencies --   1128.5200              1141.5926              1143.8022
 Red. masses --      2.8046                 2.5313                 2.8680
 Frc consts  --      2.1044                 1.9437                 2.2107
 IR Inten    --      0.0000                 0.0000               301.5084

                     67                     68                     69
                      A                      A                      A
 Frequencies --   1166.2010              1166.2093              1183.6802
 Red. masses --      1.2587                 1.2587                 1.5716
 Frc consts  --      1.0086                 1.0086                 1.2973
 IR Inten    --      2.3421                 0.8525                23.0402

                     70                     71                     72
                      A                      A                      A
 Frequencies --   1185.1864              1187.4694              1188.0994
 Red. masses --      1.7219                 1.5606                 2.5749
 Frc consts  --      1.4251                 1.2965                 2.1415
 IR Inten    --      0.0002                86.9306                 0.0008

                     73                     74                     75
                      A                      A                      A
 Frequencies --   1229.3227              1273.7165              1291.5558
 Red. masses --      1.7961                 1.4481                 1.9081
 Frc consts  --      1.5993                 1.3841                 1.8753
 IR Inten    --      0.0000                56.7344                 0.0000

                     76                     77                     78
                      A                      A                      A
 Frequencies --   1301.6491              1310.7095              1311.3357
 Red. masses --      5.6024                14.9710                13.0189
 Frc consts  --      5.5926                15.1536                13.1903
 IR Inten    --    590.3746               360.4666                 0.0000

                     79                     80                     81
                      A                      A                      A
 Frequencies --   1349.0260              1361.9455              1424.1721
 Red. masses --      9.7666                 8.3259                 3.8486
 Frc consts  --     10.4721                 9.0991                 4.5991
 IR Inten    --     32.7551                 0.0000                 8.8780

                     82                     83                     84
                      A                      A                      A
 Frequencies --   1441.1313              1461.8605              1461.9098
 Red. masses --      4.8454                 1.1345                 1.1344
 Frc consts  --      5.9291                 1.4285                 1.4285
 IR Inten    --      0.0000                 2.6428                 0.0099

                     85                     86                     87
                      A                      A                      A
 Frequencies --   1485.6059              1485.6095              1494.9775
 Red. masses --      1.0457                 1.0459                 2.5894
 Frc consts  --      1.3598                 1.3600                 3.4098
 IR Inten    --     14.3072                 0.8212                11.4348

                     88                     89                     90
                      A                      A                      A
 Frequencies --   1502.3787              1502.4038              1502.8551
 Red. masses --      1.0797                 1.0489                 2.3927
 Frc consts  --      1.4359                 1.3949                 3.1840
 IR Inten    --      0.0002                27.2950                 0.0000

                     91                     92                     93
                      A                      A                      A
 Frequencies --   1599.5669              1613.6255              1622.9207
 Red. masses --      7.7408                 8.4700                 6.3930
 Frc consts  --     11.6691                12.9940                 9.9209
 IR Inten    --      3.3699                 0.0000                98.9327

                     94                     95                     96
                      A                      A                      A
 Frequencies --   1629.0010              1731.1516              1740.3503
 Red. masses --      6.2492                12.8413                12.3972
 Frc consts  --      9.7705                22.6740                22.1231
 IR Inten    --      0.0000                 0.0000               311.9586

                     97                     98                     99
                      A                      A                      A
 Frequencies --   3046.7705              3046.8241              3128.0284
 Red. masses --      1.0292                 1.0292                 1.1090
 Frc consts  --      5.6291                 5.6293                 6.3934
 IR Inten    --     82.5848                 0.0072                 3.6877

                    100                    101                    102
                      A                      A                      A
 Frequencies --   3128.0325              3159.0900              3159.0916
 Red. masses --      1.1090                 1.1054                 1.1054
 Frc consts  --      6.3934                 6.4998                 6.4998
 IR Inten    --     14.2003                 0.3912                 8.9961

                    103                    104                    105
                      A                      A                      A
 Frequencies --   3199.2797              3199.3025              3209.9645
 Red. masses --      1.0889                 1.0889                 1.0921
 Frc consts  --      6.5665                 6.5667                 6.6300
 IR Inten    --      8.6139                 0.0009                 0.0054

                    106                    107                    108
                      A                      A                      A
 Frequencies --   3210.1509              3211.0423              3211.2748
 Red. masses --      1.0919                 1.0950                 1.0947
 Frc consts  --      6.6297                 6.6521                 6.6515
 IR Inten    --     15.9471                 0.9281                 0.0001

 - Thermochemistry -
 -------------------
 Temperature   298.150 Kelvin.  Pressure   1.00000 Atm.
 Atom     1 has atomic number  6 and mass  12.00000

 Molecular mass:   395.99736 amu.
 Principal axes and moments of inertia in atomic units:
                           1         2         3
     Eigenvalues --  2955.23105********************
           X            0.76211  -0.62678   0.16226
           Y            0.38667   0.64164   0.66242
           Z           -0.51930  -0.44209   0.73135
 This molecule is an asymmetric top.
 Rotational symmetry number  1.
 Warning -- assumption of classical behavior for rotation
           may cause significant error
 Rotational temperatures (Kelvin)      0.02931     0.00305     0.00290
 Rotational constants (GHZ):           0.61069     0.06364     0.06039
 Zero-point vibrational energy     690685.0 (Joules/Mol)
                                  165.07767 (Kcal/Mol)
 Warning -- explicit consideration of  38 degrees of freedom as
           vibrations may cause significant error
 Vibrational temperatures:     21.01    25.40    27.14    57.52    60.78
          (Kelvin)             79.53    93.20   116.79   162.45   163.07
                              183.06   204.09   204.95   215.87   250.69
                              279.12   308.11   342.30   374.39   378.11
                              381.05   469.77   486.74   523.00   532.11
                              576.10   595.02   608.76   643.23   657.15
                              670.33   683.38   689.44   691.46   734.06
                              749.74   820.61   875.25   906.08   943.54
                              965.41   979.42  1005.40  1011.84  1021.12
                             1048.04  1080.94  1096.19  1165.98  1226.28
                             1260.70  1268.87  1378.09  1381.29  1392.75
                             1397.89  1421.10  1421.17  1461.58  1464.64
                             1561.94  1564.24  1602.61  1623.69  1642.50
                             1645.68  1677.90  1677.92  1703.05  1705.22
                             1708.50  1709.41  1768.72  1832.59  1858.26
                             1872.78  1885.82  1886.72  1940.95  1959.54
                             2049.07  2073.47  2103.29  2103.36  2137.46
                             2137.46  2150.94  2161.59  2161.62  2162.27
                             2301.42  2321.65  2335.02  2343.77  2490.74
                             2503.98  4383.62  4383.70  4500.54  4500.54
                             4545.23  4545.23  4603.05  4603.08  4618.42
                             4618.69  4619.97  4620.31

 Zero-point correction=                           0.263068 (Hartree/Particle)
 Thermal correction to Energy=                    0.287127
 Thermal correction to Enthalpy=                  0.288071
 Thermal correction to Gibbs Free Energy=         0.205047
 Sum of electronic and zero-point Energies=          -2015.085240
 Sum of electronic and thermal Energies=             -2015.061181
 Sum of electronic and thermal Enthalpies=           -2015.060237
 Sum of electronic and thermal Free Energies=        -2015.143261

                     E (Thermal)             CV                S
                      KCal/Mol        Cal/Mol-Kelvin    Cal/Mol-Kelvin
 Total                  180.175             87.906            174.739
 Electronic               0.000              0.000              0.000
 Translational            0.889              2.981             43.820
 Rotational               0.889              2.981             36.169
 Vibrational            178.398             81.944             94.749
 Vibration     1          0.593              1.986              7.259
 Vibration     2          0.593              1.986              6.882
 Vibration     3          0.593              1.986              6.750
 Vibration     4          0.594              1.981              5.260
 Vibration     5          0.595              1.980              5.151
 Vibration     6          0.596              1.975              4.619
 Vibration     7          0.597              1.971              4.306
 Vibration     8          0.600              1.962              3.862
 Vibration     9          0.607              1.939              3.218
 Vibration    10          0.607              1.938              3.211
 Vibration    11          0.611              1.926              2.987
 Vibration    12          0.615              1.911              2.779
 Vibration    13          0.616              1.911              2.771
 Vibration    14          0.618              1.903              2.672
 Vibration    15          0.627              1.874              2.389
 Vibration    16          0.635              1.848              2.189
 Vibration    17          0.644              1.819              2.008
 Vibration    18          0.656              1.783              1.818
 Vibration    19          0.668              1.745              1.660
 Vibration    20          0.670              1.741              1.643
 Vibration    21          0.671              1.737              1.630
 Vibration    22          0.710              1.623              1.277
 Vibration    23          0.719              1.599              1.220
 Vibration    24          0.737              1.547              1.107
 Vibration    25          0.742              1.534              1.080
 Vibration    26          0.766              1.469              0.961
 Vibration    27          0.777              1.441              0.914
 Vibration    28          0.785              1.420              0.881
 Vibration    29          0.806              1.367              0.805
 Vibration    30          0.815              1.346              0.776
 Vibration    31          0.823              1.326              0.749
 Vibration    32          0.832              1.306              0.724
 Vibration    33          0.836              1.296              0.712
 Vibration    34          0.837              1.293              0.708
 Vibration    35          0.865              1.227              0.633
 Vibration    36          0.876              1.203              0.607
 Vibration    37          0.926              1.095              0.504
 Vibration    38          0.967              1.014              0.436

                           ! Non-Optimized Parameters !
 Normal termination of Gaussian 16 at Thu Dec 21 23:34:47 2023.
