 Gaussian 16, Revision A.03,
 Gaussian 16:  ES64L-G16RevA.03 25-Dec-2016

 ----------------------------------------------------------------
 #P UB3LYP/6-311++G(d,p) SCRF=(PCM,Solvent=n,n-DiMethylFormamide)
 ----------------------------------------------------------------

 -------
 Reduced
 -------
 Symbolic Z-matrix:
 Charge = -2 Multiplicity = 1

                         Standard orientation:
 ---------------------------------------------------------------------
 Center     Atomic      Atomic             Coordinates (Angstroms)
 Number     Number       Type             X           Y           Z
 ---------------------------------------------------------------------
      1          6           0        0.815269    1.275398   -0.004845
      2          6           0       -0.625251    1.237321   -0.005992
      3          6           0       -1.438801    0.098348   -0.006191
      4          6           0       -0.847094   -1.224732   -0.005661
      5          6           0        0.579996   -1.222902    0.002147
      6          6           0        1.332239   -0.051610   -0.000887
      7         35           0        3.305061   -0.247717    0.001994
      8          6           0       -2.977377    0.214363    0.003783
      9          6           0       -3.485188    1.669196    0.010342
     10          6           0       -3.537987   -0.491158    1.263279
     11          6           0       -3.551778   -0.478477   -1.257811
     12          8           0        1.493415    2.370136   -0.003396
     13          8           0       -1.533833   -2.334962   -0.009592
     14          1           0       -1.071835    2.227469   -0.006822
     15          1           0        1.072221   -2.189480    0.002910
     16          1           0       -3.140254    2.214748    0.894277
     17          1           0       -4.584078    1.675166    0.014100
     18          1           0       -3.146869    2.219386   -0.873815
     19          1           0       -3.200436    0.029838    2.167337
     20          1           0       -3.166494   -1.518877    1.284298
     21          1           0       -4.639038   -0.493842    1.258417
     22          1           0       -3.214217    0.044975   -2.159815
     23          1           0       -4.654464   -0.465699   -1.246798
     24          1           0       -3.192489   -1.509443   -1.288971
 ---------------------------------------------------------------------

 SCF Done:  E(UB3LYP) =  -3112.66981079     A.U. after   18 cycles

 The electronic state is 1-A.
 Alpha  occ. eigenvalues -- -482.79844 -62.45126 -56.27113 -56.26803 -56.26787
 Alpha  occ. eigenvalues --  -19.01743 -19.00865 -10.17626 -10.17411 -10.16889
 Alpha  occ. eigenvalues --  -10.16269 -10.14040 -10.13211 -10.13196 -10.13168
 Alpha  occ. eigenvalues --  -10.12570 -10.12324  -8.66075  -6.49052  -6.48021
 Alpha  occ. eigenvalues --   -6.47976  -2.60172  -2.59884  -2.59851  -2.59032
 Alpha  occ. eigenvalues --   -2.59032  -0.93367  -0.92072  -0.80419  -0.78794
 Alpha  occ. eigenvalues --   -0.74462  -0.68184  -0.66593  -0.66007  -0.64496
 Alpha  occ. eigenvalues --   -0.56555  -0.53919  -0.49339  -0.44367  -0.43964
 Alpha  occ. eigenvalues --   -0.41635  -0.40732  -0.40216  -0.39501  -0.37913
 Alpha  occ. eigenvalues --   -0.36250  -0.35515  -0.35491  -0.34563  -0.33459
 Alpha  occ. eigenvalues --   -0.32232  -0.31216  -0.30451  -0.30189  -0.29816
 Alpha  occ. eigenvalues --   -0.28490  -0.26630  -0.22167  -0.20628  -0.19846
 Alpha  occ. eigenvalues --   -0.18668  -0.11877
 Alpha virt. eigenvalues --    0.00033   0.00277   0.01533   0.01807   0.01882
 Alpha virt. eigenvalues --    0.02401   0.03229   0.03825   0.04419   0.04694
 Alpha virt. eigenvalues --    0.05415   0.05812   0.06128   0.06579   0.06916

  Beta  occ. eigenvalues -- -482.79844 -62.45126 -56.27113 -56.26803 -56.26787
  Beta  occ. eigenvalues --  -19.01743 -19.00865 -10.17626 -10.17411 -10.16889
  Beta  occ. eigenvalues --  -10.16269 -10.14040 -10.13211 -10.13196 -10.13168
  Beta  occ. eigenvalues --  -10.12570 -10.12324  -8.66075  -6.49052  -6.48021
  Beta  occ. eigenvalues --   -6.47976  -2.60172  -2.59884  -2.59851  -2.59032
  Beta  occ. eigenvalues --   -2.59032  -0.93367  -0.92072  -0.80419  -0.78794
  Beta  occ. eigenvalues --   -0.74462  -0.68184  -0.66593  -0.66007  -0.64496
  Beta  occ. eigenvalues --   -0.56555  -0.53919  -0.49339  -0.44367  -0.43964
  Beta  occ. eigenvalues --   -0.41635  -0.40732  -0.40216  -0.39501  -0.37913
  Beta  occ. eigenvalues --   -0.36250  -0.35515  -0.35491  -0.34563  -0.33459
  Beta  occ. eigenvalues --   -0.32232  -0.31216  -0.30451  -0.30189  -0.29816
  Beta  occ. eigenvalues --   -0.28490  -0.26630  -0.22167  -0.20628  -0.19846
  Beta  occ. eigenvalues --   -0.18668  -0.11877
  Beta virt. eigenvalues --    0.00033   0.00277   0.01533   0.01807   0.01882
  Beta virt. eigenvalues --    0.02401   0.03229   0.03825   0.04419   0.04694
  Beta virt. eigenvalues --    0.05415   0.05812   0.06128   0.06579   0.06916

 Mulliken charges and spin densities:
               1          2
     1  C   -0.694173   0.000000
     2  C   -0.432764  -0.000000
     3  C    0.854620  -0.000000
     4  C   -0.712719   0.000000
     5  C   -0.425710  -0.000000
     6  C    0.644049   0.000000
     7  Br  -0.286687   0.000000
     8  C    0.693484   0.000000
     9  C   -0.516633  -0.000000
    10  C   -0.679770  -0.000000
    11  C   -0.680398  -0.000000
    12  O   -0.684587   0.000000
    13  O   -0.663915  -0.000000
    14  H    0.156744   0.000000
    15  H    0.173421  -0.000000
    16  H    0.124042   0.000000
    17  H    0.158435  -0.000000
    18  H    0.123352   0.000000
    19  H    0.115980  -0.000000
    20  H    0.179275   0.000000
    21  H    0.128769   0.000000
    22  H    0.116781  -0.000000
    23  H    0.129330   0.000000
    24  H    0.179076   0.000000
 Sum of Mulliken charges =  -2.00000  -0.00000

 Dipole moment (field-independent basis, Debye):
    X=             -3.6434    Y=             -0.0714    Z=              0.0425  Tot=              3.6444
 Quadrupole moment (field-independent basis, Debye-Ang):
   XX=           -137.2568   YY=           -143.6524   ZZ=           -102.8546
   XY=            -25.0027   XZ=             -0.0474   YZ=             -0.0500

 Normal termination of Gaussian 16 at Sun Jan 21 07:28:03 2024.
