 Q-Chem 5.4, Q-Chem, Inc., Pleasanton, CA (2021)
 Q-Chem 5.4.0 for Intel X86 EM64T Linux

User input:
--------------------------------------------------------------
$molecule
0 1
C                  0.9245440000      2.1600700000     -1.4316230000
C                  1.0715310000      3.2156450000     -0.5369840000
C                  1.8783500000      3.0658780000      0.5924250000
C                  1.5871640000      0.9535540000     -1.1937170000
C                  2.3995710000      0.7998030000     -0.0582220000
C                  2.5400020000      1.8628590000      0.8320930000
C                  1.4416800000     -0.1740500000     -2.1319370000
C                  2.1753370000     -1.4382350000     -1.8343260000
C                  2.9566380000     -1.6132190000     -0.7402550000
C                  3.1173590000     -0.4928600000      0.2098080000
O                  0.7534800000     -0.1396800000     -3.1457110000
O                  3.8203180000     -0.6095210000      1.2042830000
O                  1.9890270000     -2.4042370000     -2.7479430000
H                  0.3040240000      2.2522460000     -2.3145880000
H                  0.5595420000      4.1535930000     -0.7180540000
H                  1.9917180000      3.8895840000      1.2880900000
H                  3.1694050000      1.7299580000      1.7032240000
H                  1.3832190000     -2.0311550000     -3.4164380000
C                  3.6932860000     -2.8953570000     -0.4704040000
C                  5.1331150000     -2.8673300000     -1.0295910000
C                  5.8993270000     -4.1990920000     -0.8540070000
C                  7.2162210000     -4.1624190000     -1.6159140000
C                  8.2559140000     -3.2991670000     -1.2438800000
C                  7.4225340000     -4.9852510000     -2.7267740000
C                  9.4544230000     -3.2562920000     -1.9493860000
C                  9.6352520000     -4.0974060000     -3.0471310000
C                  8.6202540000     -4.9620110000     -3.4401010000
H                  3.1452920000     -3.7254350000     -0.9241770000
H                  3.7205480000     -3.0506740000      0.6093790000
H                  5.6885850000     -2.0585060000     -0.5439350000
H                  5.0925840000     -2.6286500000     -2.0968620000
H                  5.2897920000     -4.9866650000     -1.3139610000
C                  6.1065520000     -4.5753500000      0.6248910000
H                  8.1317410000     -2.6379510000     -0.3930710000
H                  6.6350380000     -5.6624510000     -3.0420200000
H                  8.7750480000     -5.6019770000     -4.3005170000
O                 10.7729570000     -4.0416200000     -3.8351020000
C                 12.0281210000     -4.0914350000     -3.2637850000
C                 12.3023690000     -4.7891420000     -2.0868130000
C                 13.0536960000     -3.4597000000     -3.9677260000
C                 14.3584330000     -3.5237660000     -3.4876410000
C                 13.6131560000     -4.8397440000     -1.6146140000
C                 14.6454780000     -4.2103410000     -2.3076390000
H                 10.2434940000     -2.5751390000     -1.6539700000
H                  5.1530490000     -4.7211310000      1.1379790000
H                  6.6548370000     -3.7956350000      1.1614940000
H                  6.6758010000     -5.5044340000      0.7094940000
H                 11.5044210000     -5.2868300000     -1.5505090000
H                 12.8123540000     -2.9308110000     -4.8818190000
H                 15.1527650000     -3.0311230000     -4.0371980000
H                 13.8253160000     -5.3832610000     -0.7005570000
H                 15.6616570000     -4.2555870000     -1.9341550000
$end

$rem
BASIS  =  6-311++G(d,p)
GUI  =  2
JOB_TYPE  =  SP
METHOD  =  B3LYP
SCF_CONVERGENCE  = 8
SOLVENT_METHOD = sm12
$end

$smx
solvent dimethylformamide
charges CM5
$end

--------------------------------------------------------------

             Standard Nuclear Orientation (Angstroms)
    I     Atom           X                Y                Z
 ----------------------------------------------------------------
    1      C       0.9245440000     2.1600700000    -1.4316230000
    2      C       1.0715310000     3.2156450000    -0.5369840000
    3      C       1.8783500000     3.0658780000     0.5924250000
    4      C       1.5871640000     0.9535540000    -1.1937170000
    5      C       2.3995710000     0.7998030000    -0.0582220000
    6      C       2.5400020000     1.8628590000     0.8320930000
    7      C       1.4416800000    -0.1740500000    -2.1319370000
    8      C       2.1753370000    -1.4382350000    -1.8343260000
    9      C       2.9566380000    -1.6132190000    -0.7402550000
   10      C       3.1173590000    -0.4928600000     0.2098080000
   11      O       0.7534800000    -0.1396800000    -3.1457110000
   12      O       3.8203180000    -0.6095210000     1.2042830000
   13      O       1.9890270000    -2.4042370000    -2.7479430000
   14      H       0.3040240000     2.2522460000    -2.3145880000
   15      H       0.5595420000     4.1535930000    -0.7180540000
   16      H       1.9917180000     3.8895840000     1.2880900000
   17      H       3.1694050000     1.7299580000     1.7032240000
   18      H       1.3832190000    -2.0311550000    -3.4164380000
   19      C       3.6932860000    -2.8953570000    -0.4704040000
   20      C       5.1331150000    -2.8673300000    -1.0295910000
   21      C       5.8993270000    -4.1990920000    -0.8540070000
   22      C       7.2162210000    -4.1624190000    -1.6159140000
   23      C       8.2559140000    -3.2991670000    -1.2438800000
   24      C       7.4225340000    -4.9852510000    -2.7267740000
   25      C       9.4544230000    -3.2562920000    -1.9493860000
   26      C       9.6352520000    -4.0974060000    -3.0471310000
   27      C       8.6202540000    -4.9620110000    -3.4401010000
   28      H       3.1452920000    -3.7254350000    -0.9241770000
   29      H       3.7205480000    -3.0506740000     0.6093790000
   30      H       5.6885850000    -2.0585060000    -0.5439350000
   31      H       5.0925840000    -2.6286500000    -2.0968620000
   32      H       5.2897920000    -4.9866650000    -1.3139610000
   33      C       6.1065520000    -4.5753500000     0.6248910000
   34      H       8.1317410000    -2.6379510000    -0.3930710000
   35      H       6.6350380000    -5.6624510000    -3.0420200000
   36      H       8.7750480000    -5.6019770000    -4.3005170000
   37      O      10.7729570000    -4.0416200000    -3.8351020000
   38      C      12.0281210000    -4.0914350000    -3.2637850000
   39      C      12.3023690000    -4.7891420000    -2.0868130000
   40      C      13.0536960000    -3.4597000000    -3.9677260000
   41      C      14.3584330000    -3.5237660000    -3.4876410000
   42      C      13.6131560000    -4.8397440000    -1.6146140000
   43      C      14.6454780000    -4.2103410000    -2.3076390000
   44      H      10.2434940000    -2.5751390000    -1.6539700000
   45      H       5.1530490000    -4.7211310000     1.1379790000
   46      H       6.6548370000    -3.7956350000     1.1614940000
   47      H       6.6758010000    -5.5044340000     0.7094940000
   48      H      11.5044210000    -5.2868300000    -1.5505090000
   49      H      12.8123540000    -2.9308110000    -4.8818190000
   50      H      15.1527650000    -3.0311230000    -4.0371980000
   51      H      13.8253160000    -5.3832610000    -0.7005570000
   52      H      15.6616570000    -4.2555870000    -1.9341550000
 ----------------------------------------------------------------

   15   -1305.2669625633      7.62e-09  Convergence criterion met
 Total energy in the final basis set =    -1305.2978917108

                    Orbital Energies (a.u.)
 --------------------------------------------------------------

 Alpha MOs
 -- Occupied --
-19.1791 -19.1701 -19.1486 -19.1263 -10.2925 -10.2785 -10.2676 -10.2473
-10.2417 -10.2110 -10.2096 -10.2047 -10.2009 -10.1991 -10.1973 -10.1972
-10.1863 -10.1857 -10.1845 -10.1837 -10.1833 -10.1830 -10.1821 -10.1818
-10.1814 -10.1808 -10.1789 -10.1783 -10.1723 -10.1584  -1.1092  -1.0889
 -1.0670  -1.0595  -0.8923  -0.8751  -0.8623  -0.8453  -0.8151  -0.7883
 -0.7796  -0.7670  -0.7615  -0.7577  -0.7413  -0.7193  -0.6943  -0.6661
 -0.6545  -0.6440  -0.6306  -0.6226  -0.6154  -0.6051  -0.5921  -0.5740
 -0.5691  -0.5571  -0.5423  -0.5203  -0.5129  -0.4985  -0.4954  -0.4854
 -0.4828  -0.4747  -0.4715  -0.4642  -0.4591  -0.4551  -0.4522  -0.4513
 -0.4402  -0.4364  -0.4336  -0.4317  -0.4267  -0.4208  -0.4134  -0.4102
 -0.4076  -0.4029  -0.3994  -0.3878  -0.3806  -0.3760  -0.3759  -0.3728
 -0.3694  -0.3646  -0.3619  -0.3503  -0.3426  -0.3351  -0.3317  -0.3271
 -0.3024  -0.2894  -0.2795  -0.2770  -0.2706  -0.2646  -0.2610  -0.2545
 -0.2300

          Ground-State Mulliken Net Atomic Charges

     Atom                 Charge (a.u.)
  ----------------------------------------
      1 C                     0.416715
      2 C                     0.397793
      3 C                     0.386087
      4 C                     0.269373
      5 C                    -0.503124
      6 C                     0.060016
      7 C                    -1.037974
      8 C                    -0.614351
      9 C                     1.436393
     10 C                    -1.709351
     11 O                    -0.292429
     12 O                    -0.257703
     13 O                    -0.191147
     14 H                     0.218932
     15 H                     0.325251
     16 H                     0.315876
     17 H                     0.183712
     18 H                     0.291149
     19 C                     0.086484
     20 C                    -0.960723
     21 C                     0.709813
     22 C                     0.837375
     23 C                    -0.224845
     24 C                    -0.102382
     25 C                    -0.175942
     26 C                    -1.145584
     27 C                    -0.299051
     28 H                     0.224741
     29 H                     0.198399
     30 H                     0.089015
     31 H                     0.156308
     32 H                     0.211189
     33 C                    -0.520323
     34 H                     0.223047
     35 H                     0.236262
     36 H                     0.237580
     37 O                    -0.021803
     38 C                    -0.864499
     39 C                     0.150544
     40 C                    -0.212024
     41 C                    -0.148713
     42 C                    -0.035476
     43 C                    -0.225491
     44 H                     0.218717
     45 H                     0.162861
     46 H                     0.141233
     47 H                     0.141660
     48 H                     0.212982
     49 H                     0.215766
     50 H                     0.271373
     51 H                     0.277230
     52 H                     0.239055
  ----------------------------------------
  Sum of atomic charges =     0.000000

                    Cartesian Multipole Moments
 -----------------------------------------------------------------
    Charge (ESU x 10^10)
                 0.0000
    Dipole Moment (Debye)
         X      -1.8858      Y       2.7780      Z       1.2954
       Tot       3.5988
    Quadrupole Moments (Debye-Ang)
        XX    -186.0137     XY       8.4863     YY    -161.8419
        XZ      11.2968     YZ      -3.7615     ZZ    -185.5373

 Total job time:  3061.36s(wall), 20691.35s(cpu)
        *  Thank you very much for using Q-Chem.  Have a nice day.  *
