 Gaussian 16, Revision A.03,
 Gaussian 16:  ES64L-G16RevA.03 25-Dec-2016

 ----------------------------------------------------------------
 #P UB3LYP/6-311++G(d,p) SCRF=(PCM,Solvent=n,n-DiMethylFormamide)
 ----------------------------------------------------------------

 -------
 Reduced
 -------
 Symbolic Z-matrix:
 Charge = -2 Multiplicity = 1

                         Standard orientation:
 ---------------------------------------------------------------------
 Center     Atomic      Atomic             Coordinates (Angstroms)
 Number     Number       Type             X           Y           Z
 ---------------------------------------------------------------------
      1          6           0        1.365981   -0.502880    0.000208
      2          6           0        2.315296    0.587669   -0.000053
      3          6           0        1.831263    1.948967   -0.000234
      4          6           0        0.477384    2.167909    0.000128
      5          6           0       -0.502323    1.147452    0.000493
      6          6           0       -0.069976   -0.246398    0.000592
      7          6           0       -1.039853   -1.309091    0.000951
      8          6           0       -2.442748   -0.885915    0.000457
      9          6           0       -2.851775    0.488214    0.000313
     10          6           0       -1.879898    1.572889    0.000652
     11          6           0       -3.451291   -1.879727    0.000035
     12          6           0       -4.796505   -1.561426   -0.000535
     13          6           0       -5.197212   -0.201723   -0.000715
     14          6           0       -4.233865    0.789301   -0.000256
     15          8           0       -0.769221   -2.566801    0.000198
     16          8           0       -2.249893    2.799988    0.000512
     17          1           0        0.087610    3.182758    0.000070
     18          1           0       -3.110057   -2.909774    0.000201
     19          1           0       -4.498984    1.842003   -0.000383
     20          6           0        2.795709    3.107002   -0.000674
     21          1           0       -6.254573    0.057741   -0.001234
     22          6           0        3.699005    0.306867   -0.000767
     23          6           0        1.912322   -1.813398   -0.000463
     24          6           0        3.287740   -2.046199   -0.001013
     25          6           0        4.208819   -0.996199   -0.001004
     26          6           0        5.698578   -1.246578    0.001329
     27          1           0       -5.546025   -2.351242   -0.000919
     28          1           0        3.459790    3.105035    0.879157
     29          1           0        2.246061    4.053058   -0.000302
     30          1           0        3.458719    3.105156   -0.881358
     31          1           0        4.399727    1.137559   -0.001010
     32          1           0        1.203228   -2.630223   -0.000588
     33          1           0        3.648586   -3.074661   -0.001531
     34          1           0        6.188551   -0.827643    0.893058
     35          1           0        6.195653   -0.795299   -0.870241
     36          1           0        5.914717   -2.320363   -0.017253
 ---------------------------------------------------------------------

 SCF Done:  E(UB3LYP) =  -921.522256092     A.U. after   16 cycles

 The electronic state is 1-A.
 Alpha  occ. eigenvalues --  -19.02144 -19.01927 -10.17594 -10.17586 -10.16119
 Alpha  occ. eigenvalues --  -10.15986 -10.15912 -10.15723 -10.15243 -10.15213
 Alpha  occ. eigenvalues --  -10.15164 -10.14997 -10.14867 -10.14810 -10.14745
 Alpha  occ. eigenvalues --  -10.14617 -10.13949 -10.13938 -10.13863 -10.13706
 Alpha  occ. eigenvalues --  -10.13516 -10.12907  -0.94252  -0.93891  -0.84655
 Alpha  occ. eigenvalues --   -0.82727  -0.80299  -0.76560  -0.74821  -0.72357
 Alpha  occ. eigenvalues --   -0.72249  -0.70811  -0.68183  -0.66062  -0.62973
 Alpha  occ. eigenvalues --   -0.60021  -0.59018  -0.57305  -0.55793  -0.52687
 Alpha  occ. eigenvalues --   -0.50933  -0.48430  -0.47237  -0.45973  -0.44123
 Alpha  occ. eigenvalues --   -0.43203  -0.41678  -0.41278  -0.41069  -0.40683
 Alpha  occ. eigenvalues --   -0.40252  -0.40038  -0.38675  -0.37939  -0.37729
 Alpha  occ. eigenvalues --   -0.36873  -0.36529  -0.35986  -0.35923  -0.34886
 Alpha  occ. eigenvalues --   -0.34368  -0.32779  -0.32678  -0.31703  -0.31210
 Alpha  occ. eigenvalues --   -0.30884  -0.29756  -0.28151  -0.24661  -0.23108
 Alpha  occ. eigenvalues --   -0.22491  -0.22017  -0.20124  -0.19051  -0.18887
 Alpha  occ. eigenvalues --   -0.10856
 Alpha virt. eigenvalues --   -0.02668  -0.01643  -0.00272   0.00394   0.01026
 Alpha virt. eigenvalues --    0.01141   0.01786   0.02081   0.02336   0.03283
 Alpha virt. eigenvalues --    0.03405   0.03596   0.04282   0.05143   0.05248

  Beta  occ. eigenvalues --  -19.02144 -19.01927 -10.17594 -10.17586 -10.16119
  Beta  occ. eigenvalues --  -10.15986 -10.15912 -10.15723 -10.15243 -10.15213
  Beta  occ. eigenvalues --  -10.15164 -10.14997 -10.14867 -10.14810 -10.14745
  Beta  occ. eigenvalues --  -10.14617 -10.13949 -10.13938 -10.13863 -10.13706
  Beta  occ. eigenvalues --  -10.13516 -10.12907  -0.94252  -0.93891  -0.84655
  Beta  occ. eigenvalues --   -0.82727  -0.80299  -0.76560  -0.74821  -0.72357
  Beta  occ. eigenvalues --   -0.72249  -0.70811  -0.68183  -0.66062  -0.62973
  Beta  occ. eigenvalues --   -0.60021  -0.59018  -0.57305  -0.55793  -0.52687
  Beta  occ. eigenvalues --   -0.50933  -0.48430  -0.47237  -0.45973  -0.44123
  Beta  occ. eigenvalues --   -0.43203  -0.41678  -0.41278  -0.41069  -0.40683
  Beta  occ. eigenvalues --   -0.40252  -0.40038  -0.38675  -0.37939  -0.37729
  Beta  occ. eigenvalues --   -0.36873  -0.36529  -0.35986  -0.35923  -0.34886
  Beta  occ. eigenvalues --   -0.34368  -0.32779  -0.32678  -0.31703  -0.31210
  Beta  occ. eigenvalues --   -0.30884  -0.29756  -0.28151  -0.24661  -0.23108
  Beta  occ. eigenvalues --   -0.22491  -0.22017  -0.20124  -0.19051  -0.18887
  Beta  occ. eigenvalues --   -0.10856
  Beta virt. eigenvalues --   -0.02668  -0.01643  -0.00272   0.00394   0.01026
  Beta virt. eigenvalues --    0.01141   0.01786   0.02081   0.02336   0.03283
  Beta virt. eigenvalues --    0.03405   0.03596   0.04282   0.05143   0.05248

 Mulliken charges and spin densities:
               1          2
     1  C    0.660936  -0.000000
     2  C    0.547472  -0.000000
     3  C    0.520453  -0.000000
     4  C   -0.263288  -0.000000
     5  C    0.290080   0.000000
     6  C    0.431834  -0.000000
     7  C   -0.762379   0.000000
     8  C    0.183977   0.000000
     9  C    0.296956  -0.000000
    10  C   -0.538760   0.000000
    11  C    0.013966  -0.000000
    12  C   -0.523576   0.000000
    13  C   -0.400452  -0.000000
    14  C   -0.077505   0.000000
    15  O   -0.594184  -0.000000
    16  O   -0.630296  -0.000000
    17  H    0.095176  -0.000000
    18  H    0.144254  -0.000000
    19  H    0.142314   0.000000
    20  C   -0.397452  -0.000000
    21  H    0.161639   0.000000
    22  C   -0.377889  -0.000000
    23  C   -0.890278   0.000000
    24  C   -1.055595   0.000000
    25  C   -0.074314   0.000000
    26  C   -0.396007   0.000000
    27  H    0.160792   0.000000
    28  H    0.146623  -0.000000
    29  H    0.162738   0.000000
    30  H    0.146720  -0.000000
    31  H    0.092329   0.000000
    32  H    0.151461   0.000000
    33  H    0.146745  -0.000000
    34  H    0.165251  -0.000000
    35  H    0.163425  -0.000000
    36  H    0.156833   0.000000
 Sum of Mulliken charges =  -2.00000   0.00000

 Dipole moment (field-independent basis, Debye):
    X=             10.9506    Y=             -0.5392    Z=             -0.0004  Tot=             10.9639
 Quadrupole moment (field-independent basis, Debye-Ang):
   XX=           -178.6827   YY=           -185.3964   ZZ=           -143.3328
   XY=             13.9151   XZ=              0.0199   YZ=             -0.0062

 Normal termination of Gaussian 16 at Sun Jan 14 01:30:01 2024.
