 Q-Chem 5.4, Q-Chem, Inc., Pleasanton, CA (2021)
 Q-Chem 5.4.0 for Intel X86 EM64T Linux

User input:
--------------------------------------------------------------
$molecule
-1 2
C                 -1.8809450000      4.5421360000      5.2842050000
C                 -3.1511370000      4.0084250000      5.3966950000
C                 -3.6182170000      3.0943610000      4.4318820000
C                 -1.0397510000      4.1783480000      4.2111850000
C                 -1.5064710000      3.2560200000      3.2365890000
C                 -2.8042570000      2.7318200000      3.3708400000
C                  0.2857490000      4.7396700000      4.0805150000
C                  1.0737960000      4.2840120000      2.9597420000
C                  0.6763800000      3.3512300000      2.0126340000
C                 -0.6750120000      2.8338340000      2.0820310000
O                  0.8030450000      5.5964460000      4.8673550000
O                 -1.1774890000      2.0655970000      1.2172300000
O                  2.2992900000      4.8691110000      2.8947820000
H                 -1.4980810000      5.2503580000      6.0101890000
H                 -3.7898670000      4.2940330000      6.2273330000
H                 -4.6161510000      2.6755350000      4.5197130000
H                 -3.1407890000      2.0342680000      2.6128670000
H                  2.2884780000      5.4607890000      3.6804890000
C                  2.9674430000      2.3759320000      1.3596460000
C                  3.0281550000      1.5833290000      2.5066030000
C                  4.1300530000      2.5279000000      0.5959610000
C                  5.3192000000      1.9029190000      0.9629840000
C                  5.3670300000      1.1094780000      2.1101970000
C                  4.2159900000      0.9542500000      2.8801550000
H                  2.1393160000      1.4693590000      3.1163950000
H                  4.0922000000      3.1412120000     -0.2985720000
H                  6.2106440000      2.0387890000      0.3583090000
H                  4.2414990000      0.3453770000      3.7783590000
H                  6.2928200000      0.6248220000      2.4033710000
C                  1.6777610000      3.0510600000      0.8831920000
H                  1.9937360000      4.0372950000      0.5201510000
N                  1.1667880000      2.3448740000     -0.3180950000
C                  1.1065680000      0.8793470000     -0.2453940000
C                  0.3829210000      0.3288080000     -1.4739930000
C                  0.3239160000     -1.2021230000     -1.4992350000
C                 -0.4100500000     -1.7676340000     -2.7205820000
C                 -0.4732580000     -3.2990790000     -2.7484740000
C                 -1.2081320000     -3.8655050000     -3.9688290000
C                 -1.2715030000     -5.3969660000     -3.9956730000
C                 -2.0059850000     -5.9632950000     -5.2162690000
C                 -2.0688440000     -7.4947860000     -5.2425690000
C                 -2.8023820000     -8.0613090000     -6.4633630000
C                 -2.8657780000     -9.5927260000     -6.4901360000
C                 -3.6002520000    -10.1490110000     -7.7137470000
H                  0.2079970000      2.6576450000     -0.4413710000
H                  0.5841390000      0.5289760000      0.6551090000
H                  2.1280130000      0.4865390000     -0.2198100000
H                  0.8827730000      0.6986420000     -2.3782310000
H                 -0.6379530000      0.7299920000     -1.4868840000
H                 -0.1689840000     -1.5587310000     -0.5861090000
H                  1.3446640000     -1.6070950000     -1.4735900000
H                  0.0803720000     -1.4097020000     -3.6357980000
H                 -1.4303830000     -1.3634790000     -2.7455680000
H                 -0.9640190000     -3.6560480000     -1.8336160000
H                  0.5473060000     -3.7036880000     -2.7217390000
H                 -0.7177060000     -3.5082840000     -4.8840960000
H                 -2.2285680000     -3.4613040000     -3.9951600000
H                 -1.7625220000     -5.7539290000     -3.0809250000
H                 -0.2510430000     -5.8013680000     -3.9685090000
H                 -1.5151460000     -5.6061760000     -6.1311930000
H                 -3.0264740000     -5.5593420000     -5.2432040000
H                 -2.5603640000     -7.8517820000     -4.3280890000
H                 -1.0483150000     -7.8988200000     -5.2148600000
H                 -2.3112300000     -7.7051890000     -7.3786420000
H                 -3.8232930000     -7.6580870000     -6.4917730000
H                 -3.3574110000     -9.9489510000     -5.5765440000
H                 -1.8460480000     -9.9961370000     -6.4622440000
H                 -4.6342310000     -9.7910710000     -7.7504770000
H                 -3.6278580000    -11.2425860000     -7.7025840000
H                 -3.1115670000     -9.8385570000     -8.6429790000
$end
$rem
MAX_SCF_CYCLES=200
BASIS  =  6-311++G(d,p)
GUI  =  2
JOB_TYPE  =  SP
METHOD  =  B3LYP
SCF_CONVERGENCE = 8
SCF_ALGORITHM = RCA_DIIS
scf_guess = GWH
THRESH = 14
SOLVENT_METHOD = PCM
$end
$pcm
theory = CPCM
$end
$solvent
dielectric 37.219
opticaldielectric 1.43
$end

--------------------------------------------------------------

             Standard Nuclear Orientation (Angstroms)
    I     Atom           X                Y                Z
 ----------------------------------------------------------------
    1      C      -1.8809450000     4.5421360000     5.2842050000
    2      C      -3.1511370000     4.0084250000     5.3966950000
    3      C      -3.6182170000     3.0943610000     4.4318820000
    4      C      -1.0397510000     4.1783480000     4.2111850000
    5      C      -1.5064710000     3.2560200000     3.2365890000
    6      C      -2.8042570000     2.7318200000     3.3708400000
    7      C       0.2857490000     4.7396700000     4.0805150000
    8      C       1.0737960000     4.2840120000     2.9597420000
    9      C       0.6763800000     3.3512300000     2.0126340000
   10      C      -0.6750120000     2.8338340000     2.0820310000
   11      O       0.8030450000     5.5964460000     4.8673550000
   12      O      -1.1774890000     2.0655970000     1.2172300000
   13      O       2.2992900000     4.8691110000     2.8947820000
   14      H      -1.4980810000     5.2503580000     6.0101890000
   15      H      -3.7898670000     4.2940330000     6.2273330000
   16      H      -4.6161510000     2.6755350000     4.5197130000
   17      H      -3.1407890000     2.0342680000     2.6128670000
   18      H       2.2884780000     5.4607890000     3.6804890000
   19      C       2.9674430000     2.3759320000     1.3596460000
   20      C       3.0281550000     1.5833290000     2.5066030000
   21      C       4.1300530000     2.5279000000     0.5959610000
   22      C       5.3192000000     1.9029190000     0.9629840000
   23      C       5.3670300000     1.1094780000     2.1101970000
   24      C       4.2159900000     0.9542500000     2.8801550000
   25      H       2.1393160000     1.4693590000     3.1163950000
   26      H       4.0922000000     3.1412120000    -0.2985720000
   27      H       6.2106440000     2.0387890000     0.3583090000
   28      H       4.2414990000     0.3453770000     3.7783590000
   29      H       6.2928200000     0.6248220000     2.4033710000
   30      C       1.6777610000     3.0510600000     0.8831920000
   31      H       1.9937360000     4.0372950000     0.5201510000
   32      N       1.1667880000     2.3448740000    -0.3180950000
   33      C       1.1065680000     0.8793470000    -0.2453940000
   34      C       0.3829210000     0.3288080000    -1.4739930000
   35      C       0.3239160000    -1.2021230000    -1.4992350000
   36      C      -0.4100500000    -1.7676340000    -2.7205820000
   37      C      -0.4732580000    -3.2990790000    -2.7484740000
   38      C      -1.2081320000    -3.8655050000    -3.9688290000
   39      C      -1.2715030000    -5.3969660000    -3.9956730000
   40      C      -2.0059850000    -5.9632950000    -5.2162690000
   41      C      -2.0688440000    -7.4947860000    -5.2425690000
   42      C      -2.8023820000    -8.0613090000    -6.4633630000
   43      C      -2.8657780000    -9.5927260000    -6.4901360000
   44      C      -3.6002520000   -10.1490110000    -7.7137470000
   45      H       0.2079970000     2.6576450000    -0.4413710000
   46      H       0.5841390000     0.5289760000     0.6551090000
   47      H       2.1280130000     0.4865390000    -0.2198100000
   48      H       0.8827730000     0.6986420000    -2.3782310000
   49      H      -0.6379530000     0.7299920000    -1.4868840000
   50      H      -0.1689840000    -1.5587310000    -0.5861090000
   51      H       1.3446640000    -1.6070950000    -1.4735900000
   52      H       0.0803720000    -1.4097020000    -3.6357980000
   53      H      -1.4303830000    -1.3634790000    -2.7455680000
   54      H      -0.9640190000    -3.6560480000    -1.8336160000
   55      H       0.5473060000    -3.7036880000    -2.7217390000
   56      H      -0.7177060000    -3.5082840000    -4.8840960000
   57      H      -2.2285680000    -3.4613040000    -3.9951600000
   58      H      -1.7625220000    -5.7539290000    -3.0809250000
   59      H      -0.2510430000    -5.8013680000    -3.9685090000
   60      H      -1.5151460000    -5.6061760000    -6.1311930000
   61      H      -3.0264740000    -5.5593420000    -5.2432040000
   62      H      -2.5603640000    -7.8517820000    -4.3280890000
   63      H      -1.0483150000    -7.8988200000    -5.2148600000
   64      H      -2.3112300000    -7.7051890000    -7.3786420000
   65      H      -3.8232930000    -7.6580870000    -6.4917730000
   66      H      -3.3574110000    -9.9489510000    -5.5765440000
   67      H      -1.8460480000    -9.9961370000    -6.4622440000
   68      H      -4.6342310000    -9.7910710000    -7.7504770000
   69      H      -3.6278580000   -11.2425860000    -7.7025840000
   70      H      -3.1115670000    -9.8385570000    -8.6429790000
 ----------------------------------------------------------------

   99   -1408.3480316518      7.94E-09 Convergence criterion met
 Total energy in the final basis set = -1408.34803165

                    Orbital Energies (a.u.)
 --------------------------------------------------------------

 Alpha MOs
 -- Occupied --
-19.1454 -19.0885 -19.0737 -14.2868 -10.2288 -10.2246 -10.2226 -10.2040
-10.1787 -10.1751 -10.1734 -10.1726 -10.1723 -10.1722 -10.1715 -10.1713
-10.1712 -10.1710 -10.1693 -10.1690 -10.1683 -10.1678 -10.1574 -10.1549
-10.1547 -10.1545 -10.1544 -10.1543 -10.1542 -10.1541 -10.1539 -10.1524
-10.1512  -1.0678  -1.0016  -0.9993  -0.8991  -0.8594  -0.8535  -0.8092
 -0.8063  -0.7956  -0.7781  -0.7651  -0.7511  -0.7464  -0.7450  -0.7383
 -0.7162  -0.6888  -0.6740  -0.6564  -0.6341  -0.6176  -0.6094  -0.6042
 -0.5988  -0.5787  -0.5731  -0.5729  -0.5681  -0.5658  -0.5630  -0.5386
 -0.5138  -0.5056  -0.4863  -0.4817  -0.4749  -0.4664  -0.4662  -0.4595
 -0.4548  -0.4488  -0.4431  -0.4380  -0.4361  -0.4301  -0.4278  -0.4259
 -0.4185  -0.4175  -0.4159  -0.4118  -0.4051  -0.3979  -0.3970  -0.3916
 -0.3903  -0.3870  -0.3791  -0.3760  -0.3719  -0.3674  -0.3618  -0.3573
 -0.3556  -0.3497  -0.3444  -0.3426  -0.3393  -0.3391  -0.3341  -0.3324
 -0.3286  -0.3227  -0.3207  -0.3201  -0.3169  -0.3163  -0.3145  -0.3140
 -0.2903  -0.2684  -0.2636  -0.2582  -0.2558  -0.2501  -0.2458  -0.2320
 -0.2158  -0.1535

 Beta MOs
 -- Occupied --
-19.1447 -19.0822 -19.0684 -14.2868 -10.2275 -10.2233 -10.2197 -10.2040
-10.1786 -10.1750 -10.1726 -10.1724 -10.1723 -10.1722 -10.1715 -10.1713
-10.1704 -10.1703 -10.1693 -10.1692 -10.1683 -10.1671 -10.1574 -10.1549
-10.1547 -10.1545 -10.1544 -10.1543 -10.1542 -10.1541 -10.1539 -10.1524
-10.1512  -1.0652  -0.9925  -0.9887  -0.8989  -0.8572  -0.8535  -0.8086
 -0.8039  -0.7951  -0.7776  -0.7643  -0.7490  -0.7463  -0.7450  -0.7371
 -0.7161  -0.6868  -0.6687  -0.6536  -0.6337  -0.6165  -0.6076  -0.6040
 -0.5979  -0.5785  -0.5731  -0.5717  -0.5678  -0.5657  -0.5620  -0.5368
 -0.5128  -0.5043  -0.4840  -0.4811  -0.4744  -0.4660  -0.4654  -0.4582
 -0.4545  -0.4485  -0.4425  -0.4362  -0.4330  -0.4284  -0.4253  -0.4234
 -0.4169  -0.4153  -0.4137  -0.4098  -0.4041  -0.3970  -0.3954  -0.3905
 -0.3865  -0.3808  -0.3775  -0.3750  -0.3689  -0.3621  -0.3597  -0.3552
 -0.3506  -0.3486  -0.3426  -0.3386  -0.3384  -0.3338  -0.3323  -0.3292
 -0.3278  -0.3225  -0.3207  -0.3201  -0.3169  -0.3163  -0.3145  -0.3140
 -0.2903  -0.2584  -0.2555  -0.2522  -0.2499  -0.2488  -0.2413  -0.2240
 -0.2130

          Ground-State Mulliken Net Atomic Charges

     Atom                 Charge (a.u.)    Spin (a.u.)
  --------------------------------------------------------
      1 C                    -0.047224       0.077232
      2 C                    -0.466576      -0.005341
      3 C                    -0.566519       0.071566
      4 C                     0.086185      -0.006905
      5 C                     0.447885       0.059751
      6 C                    -0.042210      -0.003719
      7 C                    -0.711511       0.182891
      8 C                    -0.470196       0.053638
      9 C                     0.999957       0.068274
     10 C                    -0.532742       0.068173
     11 O                    -0.537199       0.228704
     12 O                    -0.441338       0.198460
     13 O                    -0.255404       0.021177
     14 H                     0.190603      -0.004115
     15 H                     0.194911      -0.000114
     16 H                     0.198474      -0.005270
     17 H                     0.188910       0.000299
     18 H                     0.314479      -0.003778
     19 C                     0.057569      -0.017564
     20 C                    -0.284212      -0.016977
     21 C                     0.180962       0.008848
     22 C                    -0.323115      -0.002094
     23 C                    -0.462336      -0.002022
     24 C                    -0.232183       0.005086
     25 H                     0.176545      -0.000035
     26 H                     0.192746       0.000583
     27 H                     0.219373      -0.000018
     28 H                     0.222022       0.000253
     29 H                     0.187337      -0.000032
     30 C                     0.240549       0.019267
     31 H                     0.237006       0.001193
     32 N                     0.019754      -0.006598
     33 C                    -0.718404       0.002988
     34 C                    -0.244445       0.005116
     35 C                    -0.046530      -0.001128
     36 C                    -0.238353      -0.000507
     37 C                    -0.431280      -0.000028
     38 C                    -0.358162       0.000028
     39 C                    -0.218273      -0.000014
     40 C                    -0.066632      -0.000006
     41 C                    -0.124447       0.000000
     42 C                    -0.292403       0.000000
     43 C                    -0.239588       0.000000
     44 C                    -0.704669      -0.000000
     45 H                     0.277964       0.001528
     46 H                     0.204800       0.000981
     47 H                     0.110254       0.000711
     48 H                     0.155037      -0.000083
     49 H                     0.145347      -0.000657
     50 H                     0.119831       0.000328
     51 H                     0.134883      -0.000085
     52 H                     0.122061       0.000032
     53 H                     0.131627       0.000013
     54 H                     0.136424      -0.000031
     55 H                     0.136199       0.000001
     56 H                     0.136040      -0.000002
     57 H                     0.136150      -0.000000
     58 H                     0.132915       0.000001
     59 H                     0.133006       0.000000
     60 H                     0.132392       0.000000
     61 H                     0.132317      -0.000000
     62 H                     0.130175      -0.000000
     63 H                     0.130244      -0.000000
     64 H                     0.126865       0.000000
     65 H                     0.127579       0.000000
     66 H                     0.135248      -0.000000
     67 H                     0.135220      -0.000000
     68 H                     0.144567       0.000000
     69 H                     0.149110      -0.000000
     70 H                     0.144431      -0.000000
  --------------------------------------------------------
  Sum of atomic charges =    -1.000000

                    Cartesian Multipole Moments
 -----------------------------------------------------------------
    Charge (ESU x 10^10)
                -4.8032
    Dipole Moment (Debye)
         X      -1.5063      Y     -18.0051      Z     -12.1061
       Tot      21.7488
    Quadrupole Moments (Debye-Ang)
        XX    -211.3930     XY     -12.3780     YY    -289.7659
        XZ      -9.4502     YZ     -63.1571     ZZ    -259.8557

 Total job time:  8879.06s(wall), 56429.80s(cpu)
        *  Thank you very much for using Q-Chem.  Have a nice day.  *
