 Gaussian 16, Revision A.03,
 Gaussian 16:  ES64L-G16RevA.03 25-Dec-2016

 ----------------------------------------------------------------
 #P UB3LYP/6-311++G(d,p) SCRF=(PCM,Solvent=n,n-DiMethylFormamide)
 ----------------------------------------------------------------

 ------------------
 Quinone PCM in DMF
 ------------------
 Symbolic Z-matrix:
 Charge =  0 Multiplicity = 1

                         Standard orientation:
 ---------------------------------------------------------------------
 Center     Atomic      Atomic             Coordinates (Angstroms)
 Number     Number       Type             X           Y           Z
 ---------------------------------------------------------------------
      1          8           0       -2.746882   -1.298623   -0.000131
      2          6           0       -1.412099   -1.228294   -0.000029
      3          6           0       -0.686427   -2.444483    0.000074
      4          6           0        0.685477   -2.444717    0.000115
      5          6           0        1.411598   -1.228800    0.000042
      6          8           0        2.746318   -1.299529    0.000008
      7          6           0        0.712955   -0.011965    0.000001
      8          6           0        1.449727    1.249063   -0.000009
      9          8           0        2.691203    1.289228   -0.000195
     10          6           0        0.671794    2.501926    0.000121
     11          6           0       -0.670762    2.502210    0.000096
     12          6           0       -1.449203    1.249637   -0.000033
     13          8           0       -2.690664    1.290223    0.000040
     14          6           0       -0.712963   -0.011703   -0.000047
     15          1           0       -3.088681   -0.370272   -0.000303
     16          1           0       -1.247100   -3.371433    0.000125
     17          1           0        1.245795   -3.371883    0.000187
     18          1           0        3.088205   -0.371192   -0.000103
     19          1           0        1.251458    3.418313    0.000171
     20          1           0       -1.250054    3.418822    0.000160
 ---------------------------------------------------------------------

 SCF Done:  E(UB3LYP) =  -685.784914270     A.U. after   15 cycles

 The electronic state is 1-A.
 Alpha  occ. eigenvalues --  -19.17212 -19.17211 -19.14547 -19.14546 -10.29191
 Alpha  occ. eigenvalues --  -10.29190 -10.27425 -10.27424 -10.21792 -10.21712
 Alpha  occ. eigenvalues --  -10.21355 -10.21312 -10.20998 -10.20933  -1.09998
 Alpha  occ. eigenvalues --   -1.09841  -1.06709  -1.06576  -0.89462  -0.84836
 Alpha  occ. eigenvalues --   -0.79152  -0.77414  -0.71489  -0.67392  -0.66110
 Alpha  occ. eigenvalues --   -0.62952  -0.56317  -0.55286  -0.55186  -0.54217
 Alpha  occ. eigenvalues --   -0.51003  -0.48069  -0.47451  -0.47348  -0.44678
 Alpha  occ. eigenvalues --   -0.44544  -0.44499  -0.44088  -0.42745  -0.42054
 Alpha  occ. eigenvalues --   -0.40929  -0.39448  -0.39105  -0.34042  -0.31526
 Alpha  occ. eigenvalues --   -0.30279  -0.29325  -0.28840  -0.24047
 Alpha virt. eigenvalues --   -0.13705  -0.05047  -0.04463  -0.00386   0.00676
 Alpha virt. eigenvalues --    0.00869   0.01844   0.02529   0.03038   0.04210
 Alpha virt. eigenvalues --    0.04652   0.05016   0.05084   0.06107   0.06767

  Beta  occ. eigenvalues --  -19.17212 -19.17211 -19.14547 -19.14546 -10.29191
  Beta  occ. eigenvalues --  -10.29190 -10.27425 -10.27424 -10.21792 -10.21712
  Beta  occ. eigenvalues --  -10.21355 -10.21312 -10.20998 -10.20933  -1.09998
  Beta  occ. eigenvalues --   -1.09841  -1.06709  -1.06576  -0.89462  -0.84836
  Beta  occ. eigenvalues --   -0.79152  -0.77414  -0.71489  -0.67392  -0.66110
  Beta  occ. eigenvalues --   -0.62952  -0.56317  -0.55286  -0.55186  -0.54217
  Beta  occ. eigenvalues --   -0.51003  -0.48069  -0.47451  -0.47348  -0.44678
  Beta  occ. eigenvalues --   -0.44544  -0.44499  -0.44088  -0.42745  -0.42054
  Beta  occ. eigenvalues --   -0.40929  -0.39448  -0.39105  -0.34042  -0.31526
  Beta  occ. eigenvalues --   -0.30279  -0.29325  -0.28840  -0.24047
  Beta virt. eigenvalues --   -0.13705  -0.05047  -0.04463  -0.00386   0.00676
  Beta virt. eigenvalues --    0.00869   0.01844   0.02529   0.03038   0.04210
  Beta virt. eigenvalues --    0.04652   0.05016   0.05084   0.06107   0.06767

 Mulliken charges and spin densities:
               1          2
     1  O   -0.312127   0.000000
     2  C   -0.221440  -0.000000
     3  C    0.051344  -0.000000
     4  C    0.051377   0.000000
     5  C   -0.221300  -0.000000
     6  O   -0.312156  -0.000000
     7  C    0.483809  -0.000000
     8  C   -0.343979  -0.000000
     9  O   -0.356306   0.000000
    10  C   -0.123447   0.000000
    11  C   -0.123262   0.000000
    12  C   -0.343784   0.000000
    13  O   -0.356324  -0.000000
    14  C    0.483783   0.000000
    15  H    0.348746  -0.000000
    16  H    0.234040  -0.000000
    17  H    0.234038   0.000000
    18  H    0.348774  -0.000000
    19  H    0.239107   0.000000
    20  H    0.239106  -0.000000
 Sum of Mulliken charges =  -0.00000  -0.00000

 Dipole moment (field-independent basis, Debye):
    X=             -0.0006    Y=              0.2287    Z=              0.0001  Tot=              0.2287
 Quadrupole moment (field-independent basis, Debye-Ang):
   XX=            -99.7629   YY=            -67.0053   ZZ=            -80.5912
   XY=              0.0071   XZ=              0.0021   YZ=              0.0002

 Normal termination of Gaussian 16 at Thu Jan 25 05:44:35 2024.
