 Gaussian 16, Revision A.03,
 Gaussian 16:  ES64L-G16RevA.03 25-Dec-2016

 ----------------------------------------------------------------
 #P UB3LYP/6-311++G(d,p) SCRF=(PCM,Solvent=n,n-DiMethylFormamide)
 ----------------------------------------------------------------

 ------------------
 Radical PCM in DMF
 ------------------
 Symbolic Z-matrix:
 Charge = -1 Multiplicity = 2

                         Standard orientation:
 ---------------------------------------------------------------------
 Center     Atomic      Atomic             Coordinates (Angstroms)
 Number     Number       Type             X           Y           Z
 ---------------------------------------------------------------------
      1          6           0       -4.453802    0.404743    0.420922
      2          6           0       -5.161039   -0.763307    0.631700
      3          6           0       -4.571586   -2.015760    0.357088
      4          6           0       -3.128885    0.351145   -0.073595
      5          6           0       -2.526206   -0.903633   -0.352672
      6          6           0       -3.278057   -2.070271   -0.125176
      7          6           0       -2.388495    1.573647   -0.293437
      8          6           0       -1.041578    1.436104   -0.797418
      9          6           0       -0.428572    0.235658   -1.086095
     10          6           0       -1.145434   -1.003950   -0.867314
     11          8           0       -2.834980    2.749702   -0.075530
     12          8           0       -0.622278   -2.123345   -1.104946
     13          8           0       -0.404334    2.630337   -0.975590
     14          8           0       -6.456334   -0.815310    1.110634
     15          6           0       -7.094910    0.412034    1.404898
     16          6           0        0.984247    0.173524   -1.605992
     17          6           0        2.032209   -0.019078   -0.491679
     18          6           0        3.463900   -0.117095   -1.032978
     19          6           0        4.548104   -0.410614    0.018658
     20          6           0        4.716981    0.729867    1.039976
     21          6           0        5.902565   -0.723791   -0.644915
     22          6           0        7.009063   -1.021702    0.377244
     23          6           0        7.159488    0.118580    1.393841
     24          6           0        5.818945    0.438305    2.069348
     25          1           0       -4.866221    1.385174    0.617658
     26          1           0       -5.151870   -2.914762    0.532702
     27          1           0       -2.804233   -3.020875   -0.342264
     28          1           0       -1.094690    3.271757   -0.696874
     29          1           0       -8.092449    0.155888    1.764704
     30          1           0       -7.181306    1.046802    0.514795
     31          1           0       -6.559929    0.970131    2.182716
     32          1           0        1.212825    1.091288   -2.157724
     33          1           0        1.057400   -0.671103   -2.298660
     34          1           0        1.786010   -0.934093    0.058136
     35          1           0        1.946427    0.813304    0.214227
     36          1           0        3.721740    0.812989   -1.560118
     37          1           0        3.493854   -0.912145   -1.789769
     38          1           0        4.237165   -1.309257    0.573376
     39          1           0        3.770849    0.917765    1.554258
     40          1           0        4.963019    1.653846    0.497046
     41          1           0        6.201975    0.136128   -1.261178
     42          1           0        5.787804   -1.570188   -1.331604
     43          1           0        7.961321   -1.201465   -0.135521
     44          1           0        6.764257   -1.949089    0.912238
     45          1           0        7.524704    1.015999    0.876073
     46          1           0        7.915529   -0.137381    2.145353
     47          1           0        5.931774    1.288736    2.751429
     48          1           0        5.515817   -0.416963    2.688032
 ---------------------------------------------------------------------

 SCF Done:  E(UB3LYP) =  -1077.94109929     A.U. after   20 cycles

 The electronic state is 2-A.
 Alpha  occ. eigenvalues --  -19.15599 -19.14202 -19.08444 -19.07242 -10.23462
 Alpha  occ. eigenvalues --  -10.22202 -10.21962 -10.21842 -10.21839 -10.17645
 Alpha  occ. eigenvalues --  -10.17268 -10.17070 -10.16858 -10.16744 -10.16254
 Alpha  occ. eigenvalues --  -10.15979 -10.15767 -10.15746 -10.15726 -10.15675
 Alpha  occ. eigenvalues --  -10.15572 -10.15506 -10.15485 -10.15484  -1.06743
 Alpha  occ. eigenvalues --   -1.06166  -0.99806  -0.99376  -0.85891  -0.83065
 Alpha  occ. eigenvalues --   -0.81062  -0.78292  -0.75825  -0.75295  -0.73476
 Alpha  occ. eigenvalues --   -0.72950  -0.69834  -0.68102  -0.65275  -0.61811
 Alpha  occ. eigenvalues --   -0.61166  -0.60181  -0.57972  -0.57369  -0.56501
 Alpha  occ. eigenvalues --   -0.54624  -0.54376  -0.51510  -0.48742  -0.48177
 Alpha  occ. eigenvalues --   -0.47915  -0.47018  -0.46873  -0.45718  -0.43805
 Alpha  occ. eigenvalues --   -0.43732  -0.43519  -0.42970  -0.42914  -0.42175
 Alpha  occ. eigenvalues --   -0.41592  -0.40601  -0.40164  -0.39693  -0.38857
 Alpha  occ. eigenvalues --   -0.38791  -0.37761  -0.37214  -0.37151  -0.36240
 Alpha  occ. eigenvalues --   -0.35760  -0.35441  -0.34671  -0.33969  -0.33646
 Alpha  occ. eigenvalues --   -0.33567  -0.33136  -0.32622  -0.31880  -0.31218
 Alpha  occ. eigenvalues --   -0.30923  -0.29247  -0.28838  -0.26372  -0.25878
 Alpha  occ. eigenvalues --   -0.24556  -0.23766  -0.21889  -0.14959
 Alpha virt. eigenvalues --   -0.02812  -0.00632  -0.00236  -0.00072   0.00504
 Alpha virt. eigenvalues --    0.00737   0.00929   0.01350   0.02059   0.02518
 Alpha virt. eigenvalues --    0.02596   0.03463   0.03506   0.03665   0.03878

  Beta  occ. eigenvalues --  -19.15601 -19.14162 -19.07803 -19.06728 -10.23463
  Beta  occ. eigenvalues --  -10.22077 -10.21883 -10.21839 -10.21536 -10.17621
  Beta  occ. eigenvalues --  -10.17300 -10.16993 -10.16784 -10.16650 -10.16253
  Beta  occ. eigenvalues --  -10.15877 -10.15767 -10.15746 -10.15726 -10.15683
  Beta  occ. eigenvalues --  -10.15572 -10.15502 -10.15484 -10.15477  -1.06741
  Beta  occ. eigenvalues --   -1.05967  -0.98911  -0.98285  -0.85671  -0.83060
  Beta  occ. eigenvalues --   -0.80762  -0.78144  -0.75718  -0.75098  -0.73473
  Beta  occ. eigenvalues --   -0.72864  -0.69735  -0.67532  -0.64894  -0.61637
  Beta  occ. eigenvalues --   -0.61088  -0.60129  -0.57839  -0.57144  -0.56457
  Beta  occ. eigenvalues --   -0.54618  -0.54271  -0.51305  -0.48573  -0.48129
  Beta  occ. eigenvalues --   -0.47636  -0.47005  -0.46839  -0.45672  -0.43723
  Beta  occ. eigenvalues --   -0.43542  -0.43358  -0.42873  -0.42190  -0.41984
  Beta  occ. eigenvalues --   -0.41260  -0.40317  -0.39965  -0.39383  -0.38691
  Beta  occ. eigenvalues --   -0.38114  -0.37623  -0.37191  -0.36322  -0.36057
  Beta  occ. eigenvalues --   -0.35549  -0.34696  -0.34103  -0.33709  -0.33519
  Beta  occ. eigenvalues --   -0.33359  -0.33077  -0.32571  -0.31808  -0.30923
  Beta  occ. eigenvalues --   -0.30326  -0.29207  -0.28822  -0.25318  -0.25145
  Beta  occ. eigenvalues --   -0.23293  -0.23014  -0.21302
  Beta virt. eigenvalues --   -0.08400  -0.02079  -0.00585  -0.00125   0.00487
  Beta virt. eigenvalues --    0.00693   0.00877   0.00956   0.01353   0.02078
  Beta virt. eigenvalues --    0.02533   0.02608   0.03479   0.03547   0.03706

 Mulliken charges and spin densities:
               1          2
     1  C    0.913668   0.094099
     2  C   -0.963106  -0.013260
     3  C   -0.441161   0.055135
     4  C    0.852971   0.012417
     5  C   -0.546214   0.061584
     6  C    0.180372   0.001495
     7  C   -0.783811   0.192708
     8  C   -0.625286   0.016482
     9  C    1.567917   0.072800
    10  C   -1.089236   0.068820
    11  O   -0.518510   0.234417
    12  O   -0.452232   0.190222
    13  O   -0.275748   0.014846
    14  O   -0.206314   0.000957
    15  C   -0.342286   0.000091
    16  C    0.083521   0.010485
    17  C   -0.568300  -0.011833
    18  C   -0.727277   0.008724
    19  C    0.960394  -0.003331
    20  C   -0.476798   0.000646
    21  C   -0.450610   0.000247
    22  C   -0.321594  -0.000065
    23  C   -0.390569   0.000228
    24  C   -0.347472   0.000557
    25  H    0.160215  -0.004501
    26  H    0.201948  -0.004896
    27  H    0.180137   0.000280
    28  H    0.294886  -0.003650
    29  H    0.188959  -0.000096
    30  H    0.165796   0.000184
    31  H    0.164928   0.000221
    32  H    0.213227  -0.000545
    33  H    0.198102   0.003547
    34  H    0.176205  -0.002007
    35  H    0.158804   0.003595
    36  H    0.111161  -0.000260
    37  H    0.131589   0.000359
    38  H    0.143108  -0.000059
    39  H    0.138013  -0.000510
    40  H    0.156227  -0.000162
    41  H    0.151154   0.000017
    42  H    0.139862  -0.000033
    43  H    0.176581  -0.000018
    44  H    0.126781   0.000020
    45  H    0.119666  -0.000002
    46  H    0.169854   0.000024
    47  H    0.164719   0.000023
    48  H    0.135759   0.000001
 Sum of Mulliken charges =  -1.00000   1.00000

 Dipole moment (field-independent basis, Debye):
    X=              6.9954    Y=              0.0459    Z=              3.4877  Tot=              7.8168
 Quadrupole moment (field-independent basis, Debye-Ang):
   XX=           -165.2656   YY=           -176.1893   ZZ=           -154.5841
   XY=              1.2427   XZ=             -4.0688   YZ=             -1.8744

 Normal termination of Gaussian 16 at Thu Jan 25 06:01:39 2024.
