 Q-Chem 5.4, Q-Chem, Inc., Pleasanton, CA (2021)
 Q-Chem 5.4.0 for Intel X86 EM64T Linux

User input:
--------------------------------------------------------------
$molecule
-1 2
C                 -0.9988090000     -1.6238980000      3.6131270000
C                  0.3025120000     -1.9557590000      3.1140990000
C                  0.8465520000     -1.4570710000      1.9482580000
C                  0.0470320000     -0.5219400000      1.1468310000
C                 -1.2739500000     -0.1954790000      1.6336960000
C                 -1.8032470000     -0.7050930000      2.7957360000
O                 -1.4640470000     -2.0728510000      4.7088650000
O                  0.4697710000     -0.0105540000      0.0659480000
N                 -3.0707670000     -0.4830870000      3.3246790000
C                 -3.9059650000      0.7130300000      3.1695320000
C                 -5.0069570000      0.6075660000      4.2398550000
C                 -4.5808920000      0.7323510000      1.7813420000
C                 -3.1088680000      2.0170270000      3.3956020000
C                  2.2557830000     -1.8482650000      1.4706530000
C                  2.9488480000     -2.8356660000      2.4292490000
C                  2.1707280000     -2.5241320000      0.0798720000
C                  3.1469470000     -0.5857480000      1.3701800000
H                  0.8558940000     -2.6422210000      3.7443100000
H                 -1.8278640000      0.4829630000      0.9968770000
H                 -3.0991300000     -0.9147560000      4.2463290000
H                 -4.5720440000      0.6035310000      5.2443060000
H                 -5.5783370000     -0.3164350000      4.1110140000
H                 -5.6961190000      1.4540710000      4.1699740000
H                 -5.1454280000     -0.1915470000      1.6302180000
H                 -3.8502540000      0.8126480000      0.9764780000
H                 -5.2685950000      1.5815950000      1.7009050000
H                 -2.6872900000      2.0301300000      4.4048590000
H                 -3.7562100000      2.8931730000      3.2783230000
H                 -2.2823280000      2.1016230000      2.6886060000
H                  3.0755000000     -2.4114450000      3.4297260000
H                  3.9438300000     -3.0806100000      2.0410040000
H                  2.3883200000     -3.7701250000      2.5266790000
H                  1.5744670000     -3.4409550000      0.1376330000
H                  3.1740510000     -2.7931840000     -0.2756590000
H                  1.7053360000     -1.8498730000     -0.6386700000
H                  3.2501360000     -0.1130540000      2.3527480000
H                  2.7044070000      0.1335380000      0.6815020000
H                  4.1506440000     -0.8542890000      1.0153330000
$end
$rem
MAX_SCF_CYCLES=200
BASIS  =  6-311++G(d,p)
GUI  =  2
JOB_TYPE  =  SP
METHOD  =  B3LYP
SOLVENT_METHOD = COSMO
$end
$solvent
dielectric 37.219
opticaldielectric 1.43
$end

--------------------------------------------------------------

             Standard Nuclear Orientation (Angstroms)
    I     Atom           X                Y                Z
 ----------------------------------------------------------------
    1      C       0.2216327011    -1.5365135796     0.1237671943
    2      C      -1.1973783348    -1.3564358319     0.0426703506
    3      C      -1.8337510923    -0.1321845959     0.0330212709
    4      C      -1.0141641430     1.0833057005     0.1157740698
    5      C       0.4171661139     0.9104270875     0.2158462328
    6      C       1.0354708327    -0.3174687333     0.2288782258
    7      O       0.7854156012    -2.6767422366     0.0977978118
    8      O      -1.5139578758     2.2489242479     0.1073130085
    9      N       2.3941320355    -0.5867374327     0.3600590753
   10      C       3.5165902158     0.2571994797    -0.0644174138
   11      C       4.7622232996    -0.6466460556    -0.0454745424
   12      C       3.7412518830     1.4117597695     0.9353270061
   13      C       3.3224584238     0.8151437269    -1.4919644403
   14      C      -3.3641005986    -0.0067205674    -0.0637281952
   15      C      -4.0630414483    -1.3777272093    -0.1413722344
   16      C      -3.9110492089     0.7301243300     1.1837529306
   17      C      -3.7476737527     0.7898501907    -1.3351698717
   18      H      -1.7573766734    -2.2819087147    -0.0246306436
   19      H       0.9729980731     1.8365986451     0.2926562870
   20      H       2.5247236811    -1.5861092584     0.2158956821
   21      H       4.6509557184    -1.4749566033    -0.7523044881
   22      H       4.9143708785    -1.0672930927     0.9529042134
   23      H       5.6554444802    -0.0794195297    -0.3226176867
   24      H       3.8811181182     1.0090975259     1.9420183326
   25      H       2.8919413982     2.0943641172     0.9637621707
   26      H       4.6311913873     1.9891186558     0.6609453487
   27      H       3.2304515422    -0.0067481423    -2.2078749653
   28      H       4.1754580623     1.4371311968    -1.7851555827
   29      H       2.4160614428     1.4184860939    -1.5597191441
   30      H      -3.7498327657    -1.9455228142    -1.0225458187
   31      H      -5.1467922604    -1.2294778474    -0.2063893662
   32      H      -3.8613587779    -1.9884319544     0.7436484892
   33      H      -3.6822574421     0.1627763294     2.0921573011
   34      H      -5.0016006967     0.8375494773     1.1158883349
   35      H      -3.4585933710     1.7180619429     1.2660967600
   36      H      -3.4014973784     0.2654392871    -2.2322108875
   37      H      -3.2916098754     1.7792592355    -1.3113608189
   38      H      -4.8381909406     0.8970091178    -1.4039271059
 ----------------------------------------------------------------

   11    -751.6089369050      4.63e-06  Convergence criterion met
 Total energy in the final basis set =     -751.6089369050
    4    -751.6944298382      5.33e-06  Convergence criterion met
 Total energy in the final basis set =     -751.6944298382

                    Orbital Energies (a.u.)
 --------------------------------------------------------------

 Alpha MOs
 -- Occupied --
-19.0789 -19.0666 -14.3087 -10.2154 -10.2143 -10.2129 -10.1996 -10.1774
-10.1645 -10.1543 -10.1518 -10.1507 -10.1501 -10.1466 -10.1420 -10.1420
-10.1419  -1.0020  -0.9894  -0.9213  -0.8262  -0.8012  -0.7734  -0.7171
 -0.6843  -0.6830  -0.6769  -0.6715  -0.6674  -0.6084  -0.5719  -0.5520
 -0.5245  -0.4922  -0.4800  -0.4593  -0.4509  -0.4444  -0.4321  -0.4283
 -0.4191  -0.4150  -0.4116  -0.4047  -0.3992  -0.3928  -0.3832  -0.3772
 -0.3748  -0.3655  -0.3627  -0.3613  -0.3494  -0.3443  -0.3411  -0.3281
 -0.3246  -0.3218  -0.3152  -0.2995  -0.2646  -0.2477  -0.2292  -0.2066
 -0.1521

 Beta MOs
 -- Occupied --
-19.0724 -19.0609 -14.3078 -10.2129 -10.2128 -10.2128 -10.1986 -10.1776
-10.1620 -10.1543 -10.1515 -10.1507 -10.1501 -10.1466 -10.1421 -10.1418
-10.1418  -0.9909  -0.9794  -0.9188  -0.8223  -0.7996  -0.7712  -0.7154
 -0.6839  -0.6829  -0.6752  -0.6711  -0.6588  -0.6059  -0.5688  -0.5505
 -0.5225  -0.4891  -0.4787  -0.4580  -0.4493  -0.4434  -0.4307  -0.4266
 -0.4172  -0.4134  -0.4027  -0.4020  -0.3950  -0.3887  -0.3771  -0.3742
 -0.3710  -0.3647  -0.3620  -0.3560  -0.3422  -0.3398  -0.3354  -0.3269
 -0.3237  -0.3199  -0.3146  -0.2884  -0.2420  -0.2410  -0.2241  -0.1985

          Ground-State Mulliken Net Atomic Charges

     Atom                 Charge (a.u.)    Spin (a.u.)
  --------------------------------------------------------
      1 C                    -0.866215       0.166219
      2 C                    -0.516039      -0.002154
      3 C                     1.035819       0.227234
      4 C                    -0.358580       0.072411
      5 C                     0.050323      -0.038044
      6 C                    -0.050801       0.120454
      7 O                    -0.542931       0.230103
      8 O                    -0.500449       0.198061
      9 N                     0.032440       0.042896
     10 C                    -0.094006      -0.001992
     11 C                    -0.509216      -0.000482
     12 C                    -0.473378       0.000259
     13 C                    -0.480793       0.002947
     14 C                     0.610870      -0.029305
     15 C                    -0.522354      -0.000879
     16 C                    -0.698955       0.013019
     17 C                    -0.681359       0.013848
     18 H                     0.201900      -0.006279
     19 H                     0.232893      -0.004468
     20 H                     0.333436      -0.003672
     21 H                     0.159485      -0.000005
     22 H                     0.161644       0.000624
     23 H                     0.159047      -0.000067
     24 H                     0.164591       0.000492
     25 H                     0.121983      -0.000445
     26 H                     0.158888       0.000211
     27 H                     0.166252       0.000442
     28 H                     0.161050       0.000580
     29 H                     0.150321      -0.001284
     30 H                     0.137834      -0.000170
     31 H                     0.179504      -0.000104
     32 H                     0.137589      -0.000169
     33 H                     0.140614       0.000702
     34 H                     0.150944       0.001439
     35 H                     0.177184      -0.002358
     36 H                     0.139726       0.000704
     37 H                     0.179659      -0.002220
     38 H                     0.151081       0.001450
  --------------------------------------------------------
  Sum of atomic charges =    -1.000000

                    Cartesian Multipole Moments
 -----------------------------------------------------------------
    Charge (ESU x 10^10)
                -4.8032
    Dipole Moment (Debye)
         X       3.6347      Y       0.6621      Z      -1.3401
       Tot       3.9301
    Quadrupole Moments (Debye-Ang)
        XX    -108.8888     XY      15.5047     YY    -143.9342
        XZ      -1.7306     YZ       0.4000     ZZ    -112.9060

 Total job time:  131.92s(wall), 935.99s(cpu)
        *  Thank you very much for using Q-Chem.  Have a nice day.  *
