 Gaussian 16, Revision A.03,
 Gaussian 16:  ES64L-G16RevA.03 25-Dec-2016

 ----------------------------------------------------------------------
 #P UB3LYP/6-311++G(d,p) nosym opt freq SCRF=(PCM,Solvent=n,n-DiMethylF
 ormamide)
 ----------------------------------------------------------------------

 -------
 Radical
 -------
 Symbolic Z-matrix:
 Charge = -1 Multiplicity = 2

 SCF Done:  E(UB3LYP) =  -2015.52025240     A.U. after   20 cycles
 SCF Done:  E(UB3LYP) =  -2015.52110803     A.U. after   16 cycles
 SCF Done:  E(UB3LYP) =  -2015.52144186     A.U. after   14 cycles
 SCF Done:  E(UB3LYP) =  -2015.52151100     A.U. after   15 cycles
 SCF Done:  E(UB3LYP) =  -2015.52152377     A.U. after   13 cycles
 SCF Done:  E(UB3LYP) =  -2015.52154145     A.U. after   13 cycles
 SCF Done:  E(UB3LYP) =  -2015.52156481     A.U. after   15 cycles
 SCF Done:  E(UB3LYP) =  -2015.52157654     A.U. after   15 cycles
 SCF Done:  E(UB3LYP) =  -2015.52159857     A.U. after   13 cycles
 SCF Done:  E(UB3LYP) =  -2015.52160685     A.U. after   13 cycles
 SCF Done:  E(UB3LYP) =  -2015.52160801     A.U. after   11 cycles
 SCF Done:  E(UB3LYP) =  -2015.52160904     A.U. after   12 cycles
 SCF Done:  E(UB3LYP) =  -2015.52160931     A.U. after   10 cycles
 SCF Done:  E(UB3LYP) =  -2015.52160948     A.U. after   11 cycles
 SCF Done:  E(UB3LYP) =  -2015.52160952     A.U. after    9 cycles
 Optimization completed.
    -- Stationary point found.
 Normal termination of Gaussian 16 at Sun Feb 11 02:19:03 2024.

 ----------------------------------------------------------------------
 #P Geom=AllCheck Guess=TCheck SCRF=Check GenChk UB3LYP/6-311++G(d,p) F
 req
 ----------------------------------------------------------------------

 Structure from the checkpoint file:  "216-rad.chk"
 -------
 Radical
 -------
 Charge = -1 Multiplicity = 2

                          Input orientation:
 ---------------------------------------------------------------------
 Center     Atomic      Atomic             Coordinates (Angstroms)
 Number     Number       Type             X           Y           Z
 ---------------------------------------------------------------------
      1          6           0        5.135940   -2.636048    0.189454
      2          6           0        5.909165   -2.000578   -0.755619
      3          6           0        5.264640   -1.179853   -1.707467
      4          6           0        3.730951   -2.482243    0.219045
      5          6           0        3.101475   -1.651814   -0.752630
      6          6           0        3.897693   -1.001592   -1.714997
      7          6           0        2.956259   -3.179276    1.243754
      8          6           0        1.506488   -2.975999    1.210947
      9          6           0        0.877012   -2.145569    0.239273
     10          6           0        1.651705   -1.448530   -0.785432
     11          6           0        0.710269   -3.626227    2.173310
     12          6           0       -0.527978   -1.991768    0.268860
     13          6           0       -1.301203   -2.627243    1.213929
     14          8           0        3.502173   -3.912638    2.104375
     15          8           0        1.105789   -0.715181   -1.646063
     16          1           0        5.595951   -3.274135    0.933165
     17          1           0        6.983271   -2.130766   -0.777914
     18         16           0        6.245616   -0.344604   -2.930311
     19          1           0       -2.375310   -2.497057    1.236223
     20          1           0        3.416422   -0.372252   -2.451608
     21          1           0        1.191539   -4.255568    2.909920
     22          1           0       -0.987989   -1.353680   -0.474850
     23          6           0       -0.656679   -3.447969    2.165776
     24         16           0       -1.637655   -4.283222    3.388618
     25          8           0       -0.790473   -4.806731    4.460651
     26          8           0       -2.796340   -3.468921    3.762787
     27          8           0       -2.163670   -5.532877    2.472802
     28          6           0       -3.148349   -6.420445    3.075902
     29          1           0       -2.735842   -6.892983    3.967824
     30          1           0       -3.347493   -7.168574    2.313063
     31          1           0       -4.057947   -5.868108    3.311510
     32          8           0        5.398438    0.178871   -4.002365
     33          8           0        7.404321   -1.158890   -3.304451
     34          8           0        6.771595    0.905079   -2.014512
     35          6           0        7.756240    1.792673   -2.617630
     36          1           0        7.343716    2.265174   -3.509563
     37          1           0        8.665860    1.240368   -2.853223
     38          1           0        7.955351    2.540828   -1.854807
 ---------------------------------------------------------------------

 SCF Done:  E(UB3LYP) =  -2015.52160952     A.U. after    1 cycles

 Alpha  occ. eigenvalues --  -89.09297 -89.09297 -19.18357 -19.18357 -19.13982
 Alpha  occ. eigenvalues --  -19.13982 -19.13927 -19.13927 -19.09265 -19.09264
 Alpha  occ. eigenvalues --  -10.24277 -10.24276 -10.23566 -10.23566 -10.22659
 Alpha  occ. eigenvalues --  -10.22659 -10.20318 -10.20318 -10.20036 -10.20036
 Alpha  occ. eigenvalues --  -10.19580 -10.19579 -10.19536 -10.19536 -10.19078
 Alpha  occ. eigenvalues --  -10.19077  -8.15387  -8.15386  -6.11764  -6.11764
 Alpha  occ. eigenvalues --   -6.11590  -6.11590  -6.11434  -6.11434  -1.16073
 Alpha  occ. eigenvalues --   -1.16073  -1.05306  -1.05306  -1.03041  -1.03040
 Alpha  occ. eigenvalues --   -1.02042  -1.01775  -0.89108  -0.88467  -0.82413
 Alpha  occ. eigenvalues --   -0.79584  -0.78096  -0.77529  -0.75107  -0.74051
 Alpha  occ. eigenvalues --   -0.69544  -0.68519  -0.65429  -0.64613  -0.61181
 Alpha  occ. eigenvalues --   -0.61093  -0.58192  -0.57482  -0.55536  -0.55057
 Alpha  occ. eigenvalues --   -0.53101  -0.52561  -0.50600  -0.50285  -0.49430
 Alpha  occ. eigenvalues --   -0.49150  -0.48433  -0.47107  -0.46344  -0.46239
 Alpha  occ. eigenvalues --   -0.45941  -0.45147  -0.44901  -0.44379  -0.43954
 Alpha  occ. eigenvalues --   -0.43215  -0.42988  -0.41830  -0.41270  -0.41031
 Alpha  occ. eigenvalues --   -0.39694  -0.39538  -0.38791  -0.38029  -0.36885
 Alpha  occ. eigenvalues --   -0.36185  -0.36147  -0.36024  -0.35588  -0.35488
 Alpha  occ. eigenvalues --   -0.34045  -0.33996  -0.33786  -0.33764  -0.30909
 Alpha  occ. eigenvalues --   -0.30908  -0.28996  -0.28231  -0.28034  -0.27400
 Alpha  occ. eigenvalues --   -0.26252  -0.25436  -0.16218
 Alpha virt. eigenvalues --   -0.08279  -0.05609  -0.03354  -0.00950  -0.00532
 Alpha virt. eigenvalues --    0.00005   0.00975   0.01074   0.01351   0.02016
 Alpha virt. eigenvalues --    0.02266   0.02817   0.03083   0.03365   0.03595

  Beta  occ. eigenvalues --  -89.09297 -89.09297 -19.18354 -19.18354 -19.13977
  Beta  occ. eigenvalues --  -19.13977 -19.13926 -19.13926 -19.08685 -19.08684
  Beta  occ. eigenvalues --  -10.24147 -10.24145 -10.23565 -10.23565 -10.22616
  Beta  occ. eigenvalues --  -10.22615 -10.20341 -10.20341 -10.19951 -10.19951
  Beta  occ. eigenvalues --  -10.19496 -10.19495 -10.19428 -10.19427 -10.19095
  Beta  occ. eigenvalues --  -10.19095  -8.15386  -8.15386  -6.11761  -6.11761
  Beta  occ. eigenvalues --   -6.11589  -6.11589  -6.11435  -6.11435  -1.16063
  Beta  occ. eigenvalues --   -1.16063  -1.05298  -1.05298  -1.03035  -1.03034
  Beta  occ. eigenvalues --   -1.01053  -1.00757  -0.88873  -0.88353  -0.82036
  Beta  occ. eigenvalues --   -0.79437  -0.77955  -0.77307  -0.75041  -0.73933
  Beta  occ. eigenvalues --   -0.68916  -0.68404  -0.65230  -0.64456  -0.61127
  Beta  occ. eigenvalues --   -0.60997  -0.58010  -0.57408  -0.55364  -0.54941
  Beta  occ. eigenvalues --   -0.53062  -0.52516  -0.50513  -0.50230  -0.49365
  Beta  occ. eigenvalues --   -0.48915  -0.48342  -0.47064  -0.46305  -0.46222
  Beta  occ. eigenvalues --   -0.45918  -0.45122  -0.44876  -0.44189  -0.42940
  Beta  occ. eigenvalues --   -0.42875  -0.42592  -0.41520  -0.41246  -0.40961
  Beta  occ. eigenvalues --   -0.39327  -0.38592  -0.37968  -0.37325  -0.36187
  Beta  occ. eigenvalues --   -0.36146  -0.36025  -0.35894  -0.35455  -0.35431
  Beta  occ. eigenvalues --   -0.34036  -0.33989  -0.33701  -0.33503  -0.30896
  Beta  occ. eigenvalues --   -0.30885  -0.27992  -0.27244  -0.26658  -0.26619
  Beta  occ. eigenvalues --   -0.25713  -0.24895
  Beta virt. eigenvalues --   -0.10380  -0.07470  -0.04536  -0.03127  -0.00930
  Beta virt. eigenvalues --   -0.00523   0.00352   0.01088   0.01142   0.01390
  Beta virt. eigenvalues --    0.02038   0.02361   0.02847   0.03119   0.03382

 Mulliken charges and spin densities:
               1          2
     1  C   -0.038477   0.008108
     2  C   -0.420301   0.069541
     3  C   -1.071580   0.018435
     4  C    0.639237   0.069457
     5  C    0.246192   0.046251
     6  C    0.249748   0.001367
     7  C   -0.644610   0.071887
     8  C    0.246201   0.046251
     9  C    0.639238   0.069458
    10  C   -0.644602   0.071887
    11  C    0.249756   0.001367
    12  C   -0.038486   0.008108
    13  C   -0.420318   0.069541
    14  O   -0.404052   0.215571
    15  O   -0.404053   0.215571
    16  H    0.177102  -0.000657
    17  H    0.238172  -0.004665
    18  S    0.410590   0.005484
    19  H    0.238172  -0.004665
    20  H    0.231008  -0.000387
    21  H    0.231009  -0.000387
    22  H    0.177102  -0.000657
    23  C   -1.071597   0.018435
    24  S    0.410629   0.005485
    25  O   -0.200459   0.001575
    26  O   -0.248202  -0.001909
    27  O   -0.057542  -0.000850
    28  C   -0.152904   0.000587
    29  H    0.178898   0.000010
    30  H    0.191035   0.000170
    31  H    0.176127   0.000027
    32  O   -0.200464   0.001575
    33  O   -0.248200  -0.001909
    34  O   -0.057536  -0.000850
    35  C   -0.152896   0.000587
    36  H    0.178898   0.000010
    37  H    0.176127   0.000027
    38  H    0.191035   0.000170
 Sum of Mulliken charges =  -1.00000   1.00000

 Dipole moment (field-independent basis, Debye):
    X=            -11.0666    Y=             11.1143    Z=             -1.1007  Tot=             15.7229
 Quadrupole moment (field-independent basis, Debye-Ang):
   XX=           -202.8662   YY=           -186.0796   ZZ=           -235.9164
   XY=             51.2678   XZ=             23.4139   YZ=             20.4990

  Exact polarizability: 623.844  52.292 322.590-115.022-136.128 396.923
 Approx polarizability: 632.171  -1.507 360.175 -60.395-139.099 439.391

                      1                      2                      3
                      A                      A                      A
 Frequencies --     10.6221                17.6577                20.3474
 Red. masses --      5.2337                 5.4066                 7.2735
 Frc consts  --      0.0003                 0.0010                 0.0018
 IR Inten    --      9.2444                 0.0000                 3.6205

                      4                      5                      6
                      A                      A                      A
 Frequencies --     47.2633                50.0573                56.0987
 Red. masses --      3.1793                 3.1086                 5.8739
 Frc consts  --      0.0042                 0.0046                 0.0109
 IR Inten    --      5.8411                 0.0000                 0.0000

                      7                      8                      9
                      A                      A                      A
 Frequencies --     68.6409                82.8041               116.7976
 Red. masses --      6.6050                 8.5388                 3.9559
 Frc consts  --      0.0183                 0.0345                 0.0318
 IR Inten    --      8.9592                 7.0674                 4.6509

                     10                     11                     12
                      A                      A                      A
 Frequencies --    121.3990               129.7540               141.1306
 Red. masses --      8.2649                 2.9935                 1.1916
 Frc consts  --      0.0718                 0.0297                 0.0140
 IR Inten    --      0.0000                 0.0000                 2.1252

                     13                     14                     15
                      A                      A                      A
 Frequencies --    143.4725               159.1048               176.9692
 Red. masses --      1.4422                 7.7490                 9.0208
 Frc consts  --      0.0175                 0.1156                 0.1665
 IR Inten    --      0.0000                15.7179                 0.0000

                     16                     17                     18
                      A                      A                      A
 Frequencies --    203.9147               220.2113               237.9934
 Red. masses --      5.9948                 9.3060                 5.7668
 Frc consts  --      0.1469                 0.2659                 0.1924
 IR Inten    --      0.0000                12.9255                47.7715

                     19                     20                     21
                      A                      A                      A
 Frequencies --    259.3191               261.4764               268.6566
 Red. masses --      5.7571                 8.5751                 9.9366
 Frc consts  --      0.2281                 0.3454                 0.4226
 IR Inten    --      0.0000                13.9180                 0.0000

                     22                     23                     24
                      A                      A                      A
 Frequencies --    331.8163               339.3593               365.8336
 Red. masses --      6.0024                 5.9001                 7.2220
 Frc consts  --      0.3894                 0.4003                 0.5695
 IR Inten    --      7.0291                 0.0000                36.2454

                     25                     26                     27
                      A                      A                      A
 Frequencies --    369.3747               400.4805               409.4761
 Red. masses --      7.5718                10.4686                 7.2227
 Frc consts  --      0.6087                 0.9892                 0.7135
 IR Inten    --      0.0000                27.5407                 0.0000

                     28                     29                     30
                      A                      A                      A
 Frequencies --    420.0263               445.9893               464.4007
 Red. masses --      3.4327                 8.9266                10.4460
 Frc consts  --      0.3568                 1.0461                 1.3274
 IR Inten    --      1.7469                 0.0000                49.7453

                     31                     32                     33
                      A                      A                      A
 Frequencies --    464.8258               469.7417               483.9604
 Red. masses --      3.6996                 7.8997                10.5734
 Frc consts  --      0.4710                 1.0270                 1.4591
 IR Inten    --      0.0000                 0.0000                40.7907

                     34                     35                     36
                      A                      A                      A
 Frequencies --    486.3051               498.1031               519.4330
 Red. masses --     10.2971                10.7540                 8.4615
 Frc consts  --      1.4348                 1.5720                 1.3451
 IR Inten    --      0.0000                 0.0000                 0.0000

                     37                     38                     39
                      A                      A                      A
 Frequencies --    559.6365               594.1945               623.7413
 Red. masses --      5.0032                 9.7379                 8.9557
 Frc consts  --      0.9232                 2.0257                 2.0529
 IR Inten    --     77.1715               653.1299                 0.0000

                     40                     41                     42
                      A                      A                      A
 Frequencies --    647.5019               647.9514               666.2997
 Red. masses --      7.4494                 5.1181                 8.1501
 Frc consts  --      1.8402                 1.2660                 2.1318
 IR Inten    --     30.5534                 0.0000               471.2617

                     43                     44                     45
                      A                      A                      A
 Frequencies --    681.2402               695.8126               696.9159
 Red. masses --      8.0253                 8.2082                 6.8266
 Frc consts  --      2.1944                 2.3414                 1.9535
 IR Inten    --      0.0000               780.7889                 0.0000

                     46                     47                     48
                      A                      A                      A
 Frequencies --    719.4347               735.9594               739.5655
 Red. masses --      4.4179                 4.9028                 8.8559
 Frc consts  --      1.3472                 1.5646                 2.8539
 IR Inten    --     36.2503                 8.1469                 0.0000

                     49                     50                     51
                      A                      A                      A
 Frequencies --    797.9567               835.0096               838.6901
 Red. masses --      2.3537                 1.5709                 2.1214
 Frc consts  --      0.8830                 0.6453                 0.8792
 IR Inten    --      0.0000                41.3868                 0.0000

                     52                     53                     54
                      A                      A                      A
 Frequencies --    846.9822               950.1405               951.2818
 Red. masses --      6.9362                 1.5608                 1.6602
 Frc consts  --      2.9317                 0.8302                 0.8852
 IR Inten    --     97.0610                 0.0000               173.2071

                     55                     56                     57
                      A                      A                      A
 Frequencies --    955.5354               962.1252               964.5247
 Red. masses --      5.3614                 7.0225                 5.1999
 Frc consts  --      2.8842                 3.8300                 2.8502
 IR Inten    --    741.9783                 0.0000               341.3262

                     58                     59                     60
                      A                      A                      A
 Frequencies --    969.3896               992.5057               994.5300
 Red. masses --      6.9547                 1.3250                 1.3451
 Frc consts  --      3.8506                 0.7690                 0.7839
 IR Inten    --      0.0000                 0.0000                 3.2182

                     61                     62                     63
                      A                      A                      A
 Frequencies --   1064.0436              1066.1631              1087.6740
 Red. masses --      2.1906                 2.6155                 7.7695
 Frc consts  --      1.4613                 1.7517                 5.4155
 IR Inten    --    159.3124                 0.0000              1386.6231

                     64                     65                     66
                      A                      A                      A
 Frequencies --   1102.8926              1134.4144              1139.3414
 Red. masses --      4.8803                 2.4086                 1.6685
 Frc consts  --      3.4975                 1.8262                 1.2761
 IR Inten    --      0.0000               170.0569                 0.0000

                     67                     68                     69
                      A                      A                      A
 Frequencies --   1162.1564              1162.1843              1168.8362
 Red. masses --      1.2627                 1.2588                 3.6165
 Frc consts  --      1.0048                 1.0018                 2.9110
 IR Inten    --      4.0616                 0.0000               365.7201

                     70                     71                     72
                      A                      A                      A
 Frequencies --   1181.2219              1181.3258              1187.2128
 Red. masses --      1.3738                 1.3340                 4.3966
 Frc consts  --      1.1293                 1.0969                 3.6511
 IR Inten    --      0.0000                27.5376                 0.0000

                     73                     74                     75
                      A                      A                      A
 Frequencies --   1215.8203              1219.5226              1246.2957
 Red. masses --      2.5372                 1.6149                 3.7416
 Frc consts  --      2.2098                 1.4150                 3.4241
 IR Inten    --    167.4427                 0.0000              1047.5956

                     76                     77                     78
                      A                      A                      A
 Frequencies --   1249.9813              1255.1536              1311.4979
 Red. masses --     17.6897                 2.8155                 2.0540
 Frc consts  --     16.2846                 2.6134                 2.0816
 IR Inten    --      0.0000                51.2095                 0.0000

                     79                     80                     81
                      A                      A                      A
 Frequencies --   1365.4144              1368.2734              1383.1279
 Red. masses --     11.0634                10.4054                 3.5783
 Frc consts  --     12.1525                11.4777                 4.0332
 IR Inten    --    119.5803                 0.0000               671.0629

                     82                     83                     84
                      A                      A                      A
 Frequencies --   1456.6590              1456.9972              1457.6508
 Red. masses --      1.3490                 1.1327                 1.8997
 Frc consts  --      1.6865                 1.4168                 2.3781
 IR Inten    --    154.8734                 0.0000               315.2546

                     85                     86                     87
                      A                      A                      A
 Frequencies --   1458.0375              1475.2423              1475.2648
 Red. masses --      4.9751                 1.0455                 1.0454
 Frc consts  --      6.2314                 1.3406                 1.3406
 IR Inten    --      0.0000                33.3004                 0.0025

                     88                     89                     90
                      A                      A                      A
 Frequencies --   1487.1477              1489.9886              1489.9906
 Red. masses --      2.8447                 1.0479                 1.0478
 Frc consts  --      3.7067                 1.3706                 1.3706
 IR Inten    --      0.0000                41.8447                 0.0587

                     91                     92                     93
                      A                      A                      A
 Frequencies --   1495.9263              1529.7252              1547.1717
 Red. masses --      5.3285                 9.0633                 6.5645
 Frc consts  --      7.0254                12.4958                 9.2582
 IR Inten    --   1235.4485                 0.0000               312.6180

                     94                     95                     96
                      A                      A                      A
 Frequencies --   1604.4607              1617.4049              1620.1523
 Red. masses --      7.7079                 7.5140                 7.3329
 Frc consts  --     11.6908                11.5813                11.3406
 IR Inten    --      0.0000                 0.0000               149.6650

                     97                     98                     99
                      A                      A                      A
 Frequencies --   3053.5287              3053.5511              3137.7481
 Red. masses --      1.0288                 1.0288                 1.1092
 Frc consts  --      5.6520                 5.6521                 6.4343
 IR Inten    --    110.4673                 0.0000                 0.2162

                    100                    101                    102
                      A                      A                      A
 Frequencies --   3137.7488              3167.1101              3167.1103
 Red. masses --      1.1092                 1.1061                 1.1061
 Frc consts  --      6.4343                 6.5369                 6.5369
 IR Inten    --     36.5124                 0.0370                13.6026

                    103                    104                    105
                      A                      A                      A
 Frequencies --   3195.5447              3195.7227              3208.9553
 Red. masses --      1.0874                 1.0875                 1.0951
 Frc consts  --      6.5423                 6.5437                 6.6443
 IR Inten    --     13.0102                 0.0000                 7.9371

                    106                    107                    108
                      A                      A                      A
 Frequencies --   3209.0256              3213.1820              3213.3112
 Red. masses --      1.0950                 1.0905                 1.0907
 Frc consts  --      6.6439                 6.6338                 6.6350
 IR Inten    --      0.0001                17.0472                 0.0001

 - Thermochemistry -
 -------------------
 Temperature   298.150 Kelvin.  Pressure   1.00000 Atm.
 Atom     1 has atomic number  6 and mass  12.00000

 Molecular mass:   395.99736 amu.
 Principal axes and moments of inertia in atomic units:
                           1         2         3
     Eigenvalues --  2911.27346********************
           X            0.75029   0.65900   0.05279
           Y            0.40271  -0.51890   0.75403
           Z           -0.52429   0.54449   0.65471
 This molecule is an asymmetric top.
 Rotational symmetry number  1.
 Warning -- assumption of classical behavior for rotation
           may cause significant error
 Rotational temperatures (Kelvin)      0.02975     0.00304     0.00289
 Rotational constants (GHZ):           0.61991     0.06343     0.06021
 Zero-point vibrational energy     683047.7 (Joules/Mol)
                                  163.25231 (Kcal/Mol)
 Warning -- explicit consideration of  38 degrees of freedom as
           vibrations may cause significant error
 Vibrational temperatures:     15.28    25.41    29.28    68.00    72.02
          (Kelvin)             80.71    98.76   119.14   168.05   174.67
                              186.69   203.06   206.42   228.92   254.62
                              293.39   316.83   342.42   373.10   376.21
                              386.54   477.41   488.26   526.35   531.45
                              576.20   589.14   604.32   641.68   668.17
                              668.78   675.85   696.31   699.68   716.66
                              747.35   805.19   854.91   897.42   931.61
                              932.26   958.66   980.15  1001.12  1002.71
                             1035.11  1058.88  1064.07  1148.08  1201.39
                             1206.69  1218.62  1367.04  1368.68  1374.80
                             1384.28  1387.74  1394.74  1427.99  1430.91
                             1530.92  1533.97  1564.92  1586.82  1632.17
                             1639.26  1672.08  1672.12  1681.69  1699.51
                             1699.66  1708.13  1749.29  1754.62  1793.14
                             1798.44  1805.89  1886.95  1964.53  1968.64
                             1990.01  2095.81  2096.29  2097.23  2097.79
                             2122.54  2122.58  2139.67  2143.76  2143.76
                             2152.30  2200.93  2226.03  2308.46  2327.08
                             2331.04  4393.35  4393.38  4514.52  4514.52
                             4556.77  4556.77  4597.68  4597.93  4616.97
                             4617.07  4623.05  4623.24

 Zero-point correction=                           0.260159 (Hartree/Particle)
 Thermal correction to Energy=                    0.284251
 Thermal correction to Enthalpy=                  0.285195
 Thermal correction to Gibbs Free Energy=         0.201757
 Sum of electronic and zero-point Energies=          -2015.261450
 Sum of electronic and thermal Energies=             -2015.237359
 Sum of electronic and thermal Enthalpies=           -2015.236414
 Sum of electronic and thermal Free Energies=        -2015.319852

                     E (Thermal)             CV                S
                      KCal/Mol        Cal/Mol-Kelvin    Cal/Mol-Kelvin
 Total                  178.370             88.822            175.610
 Electronic               0.000              0.000              1.377
 Translational            0.889              2.981             43.820
 Rotational               0.889              2.981             36.161
 Vibrational            176.593             82.860             94.252
 Vibration     1          0.593              1.987              7.891
 Vibration     2          0.593              1.986              6.882
 Vibration     3          0.593              1.986              6.600
 Vibration     4          0.595              1.979              4.929
 Vibration     5          0.595              1.978              4.815
 Vibration     6          0.596              1.975              4.590
 Vibration     7          0.598              1.969              4.192
 Vibration     8          0.600              1.961              3.823
 Vibration     9          0.608              1.935              3.153
 Vibration    10          0.609              1.931              3.078
 Vibration    11          0.612              1.924              2.950
 Vibration    12          0.615              1.912              2.788
 Vibration    13          0.616              1.910              2.757
 Vibration    14          0.621              1.892              2.560
 Vibration    15          0.628              1.871              2.360
 Vibration    16          0.640              1.834              2.097
 Vibration    17          0.647              1.810              1.957
 Vibration    18          0.656              1.782              1.818
 Vibration    19          0.668              1.747              1.666
 Vibration    20          0.669              1.743              1.652
 Vibration    21          0.673              1.731              1.605
 Vibration    22          0.714              1.612              1.251
 Vibration    23          0.719              1.597              1.215
 Vibration    24          0.739              1.543              1.097
 Vibration    25          0.742              1.535              1.082
 Vibration    26          0.766              1.469              0.961
 Vibration    27          0.774              1.450              0.928
 Vibration    28          0.783              1.427              0.892
 Vibration    29          0.805              1.370              0.808
 Vibration    30          0.822              1.329              0.753
 Vibration    31          0.822              1.328              0.752
 Vibration    32          0.827              1.317              0.738
 Vibration    33          0.840              1.286              0.699
 Vibration    34          0.842              1.280              0.693
 Vibration    35          0.854              1.254              0.663
 Vibration    36          0.874              1.207              0.611
 Vibration    37          0.915              1.119              0.525
 Vibration    38          0.952              1.044              0.460

 Optimization completed.
    -- Stationary point found.
 Normal termination of Gaussian 16 at Sun Feb 11 05:57:56 2024.
