 Q-Chem 5.4, Q-Chem, Inc., Pleasanton, CA (2021)
 Q-Chem 5.4.0 for Intel X86 EM64T Linux

User input:
--------------------------------------------------------------
$molecule
-1 2
C                  4.8943170000     -1.0910130000      0.0375460000
C                  3.5318330000     -1.0927410000     -0.6002200000
O                  3.2992660000     -0.9165980000     -1.7672800000
O                  2.5799470000     -1.3802440000      0.3338340000
C                  1.2408530000     -1.0946320000      0.0480130000
C                  0.4272220000     -2.1805160000     -0.1883720000
C                 -0.9421180000     -1.9862420000     -0.3909350000
C                 -1.4641930000     -0.7129140000     -0.3354560000
O                 -2.8235360000     -0.5917140000     -0.6419800000
C                 -3.7063290000     -0.3177050000      0.3614120000
C                 -5.0087600000      0.1643190000     -0.2168740000
O                 -3.4735120000     -0.4886640000      1.5291940000
C                 -0.6660340000      0.4286410000     -0.0823630000
C                 -1.2542880000      1.7853440000     -0.0080090000
O                 -2.4895740000      2.0094660000     -0.1288220000
C                 -0.3310710000      2.8585710000      0.2273560000
C                  1.0145190000      2.6717870000      0.3930600000
C                  1.6459650000      1.3842930000      0.3366780000
O                  2.8947630000      1.2698180000      0.4713710000
C                  0.7475790000      0.2313410000      0.1004210000
H                  5.6627510000     -1.1454660000     -0.7325280000
H                  4.9802750000     -0.1530550000      0.5903570000
H                  4.9951330000     -1.9181110000      0.7433070000
H                  0.8651670000     -3.1710140000     -0.2125910000
H                 -1.6053270000     -2.8187300000     -0.5923980000
H                 -5.2841310000     -0.4201510000     -1.0971760000
H                 -4.8501780000      1.1997840000     -0.5257600000
H                 -5.7904930000      0.1130590000      0.5399130000
H                 -0.7691390000      3.8509220000      0.2771940000
H                  1.6790930000      3.5121660000      0.5698470000
$end
$rem
MAX_SCF_CYCLES=200
BASIS  =  6-311++G(d,p)
GUI  =  2
JOB_TYPE  =  SP
METHOD  =  B3LYP
SOLVENT_METHOD = COSMO
$end
$solvent
dielectric 37.219
opticaldielectric 1.43
$end

--------------------------------------------------------------

             Standard Nuclear Orientation (Angstroms)
    I     Atom           X                Y                Z
 ----------------------------------------------------------------
    1      C      -4.9791335127     0.5032486107     0.3693988165
    2      C      -3.6583835687     0.7484895707    -0.3077921197
    3      O      -3.4632304913     0.7455480897    -1.4948260003
    4      O      -2.7027241491     1.0336601134     0.6231185323
    5      C      -1.3547586407     0.9501058135     0.2591841058
    6      C      -0.6855951786     2.1475829414     0.1355470445
    7      C       0.6857269974     2.1475325234    -0.1352696441
    8      C       1.3547648459     0.9500001038    -0.2589987113
    9      O       2.7026528514     1.0333883465    -0.6232844779
   10      C       3.6585735693     0.7485788602     0.3074673988
   11      C       4.9790123239     0.5027393840    -0.3700964665
   12      O       3.4638116233     0.7462953828     1.4945681127
   13      C       0.7082439213    -0.3024700709    -0.1263682868
   14      C       1.4535607743    -1.5763794210    -0.2441480486
   15      O       2.6993087266    -1.6321096309    -0.4332621321
   16      C       0.6741614982    -2.7745992390    -0.1162866307
   17      C      -0.6744986245    -2.7745436237     0.1162523907
   18      C      -1.4537293230    -1.5762555477     0.2445059922
   19      O      -2.6994298760    -1.6318698331     0.4339271053
   20      C      -0.7083012604    -0.3024150561     0.1266904803
   21      H      -5.7847946091     0.5572567338    -0.3616711032
   22      H      -4.9284724910    -0.4985407477     0.8013774406
   23      H      -5.1416583909     1.2196824456     1.1772736711
   24      H      -1.2366954573     3.0729389501     0.2516220679
   25      H       1.2368928909     3.0728396877    -0.2514272853
   26      H       5.1417263717     1.2192947927    -1.1778330972
   27      H       4.9275807562    -0.4988925539    -0.8023404171
   28      H       5.7849019118     0.5561023440     0.3607626176
   29      H       1.2268312204    -3.7048886452    -0.2072025536
   30      H      -1.2272846108    -3.7047818489     0.2069916130
 ----------------------------------------------------------------

    9    -991.2199001148      9.63e-06  Convergence criterion met
 Total energy in the final basis set =     -991.2199001148
    4    -991.3073846420      9.43e-06  Convergence criterion met
 Total energy in the final basis set =     -991.3073846420

                    Orbital Energies (a.u.)
 --------------------------------------------------------------

 Alpha MOs
 -- Occupied --
-19.1751 -19.1751 -19.1233 -19.1233 -19.0841 -19.0841 -10.3149 -10.3149
-10.2454 -10.2454 -10.2336 -10.2336 -10.1960 -10.1956 -10.1848 -10.1843
-10.1700 -10.1699 -10.1682 -10.1676  -1.1197  -1.1194  -1.0399  -1.0394
 -1.0102  -1.0081  -0.8742  -0.8150  -0.7895  -0.7569  -0.7555  -0.7289
 -0.6892  -0.6582  -0.6363  -0.6097  -0.6015  -0.5283  -0.5202  -0.5183
 -0.5008  -0.4996  -0.4899  -0.4895  -0.4761  -0.4713  -0.4640  -0.4443
 -0.4304  -0.4293  -0.4202  -0.4124  -0.4122  -0.4083  -0.3959  -0.3936
 -0.3889  -0.3826  -0.3791  -0.3720  -0.3687  -0.3563  -0.3299  -0.3270
 -0.2950  -0.2940  -0.2857  -0.2650  -0.2587  -0.2502  -0.2442  -0.1620

 Beta MOs
 -- Occupied --
-19.1751 -19.1750 -19.1233 -19.1233 -19.0777 -19.0776 -10.3149 -10.3148
-10.2453 -10.2453 -10.2322 -10.2322 -10.1955 -10.1951 -10.1844 -10.1838
-10.1700 -10.1699 -10.1669 -10.1662  -1.1196  -1.1193  -1.0398  -1.0393
 -0.9992  -0.9967  -0.8724  -0.8096  -0.7886  -0.7557  -0.7543  -0.7279
 -0.6807  -0.6578  -0.6325  -0.6072  -0.6009  -0.5265  -0.5177  -0.5172
 -0.4994  -0.4993  -0.4893  -0.4887  -0.4743  -0.4707  -0.4625  -0.4437
 -0.4279  -0.4244  -0.4141  -0.4120  -0.4105  -0.4029  -0.3916  -0.3913
 -0.3825  -0.3814  -0.3716  -0.3667  -0.3584  -0.3494  -0.3289  -0.3253
 -0.2948  -0.2938  -0.2601  -0.2558  -0.2520  -0.2444  -0.2385

          Ground-State Mulliken Net Atomic Charges

     Atom                 Charge (a.u.)    Spin (a.u.)
  --------------------------------------------------------
      1 C                    -0.514416       0.003463
      2 C                     0.087688      -0.001898
      3 O                    -0.308511      -0.000264
      4 O                    -0.014740      -0.001689
      5 C                    -0.536313       0.043615
      6 C                     0.073861       0.029178
      7 C                     0.073605       0.029166
      8 C                    -0.535545       0.043612
      9 O                    -0.014588      -0.001689
     10 C                     0.087200      -0.001913
     11 C                    -0.514437       0.003469
     12 O                    -0.308221      -0.000264
     13 C                     0.536925       0.029090
     14 C                    -0.187776       0.087001
     15 O                    -0.480528       0.233413
     16 C                    -0.173281       0.090562
     17 C                    -0.171944       0.090596
     18 C                    -0.188579       0.086968
     19 O                    -0.480372       0.233428
     20 C                     0.537847       0.029126
     21 H                     0.172515      -0.000259
     22 H                     0.212541      -0.000735
     23 H                     0.185472       0.000344
     24 H                     0.238087      -0.002950
     25 H                     0.238092      -0.002950
     26 H                     0.185492       0.000343
     27 H                     0.212540      -0.000735
     28 H                     0.172491      -0.000258
     29 H                     0.207708      -0.008883
     30 H                     0.207189      -0.008886
  --------------------------------------------------------
  Sum of atomic charges =    -1.000000

                    Cartesian Multipole Moments
 -----------------------------------------------------------------
    Charge (ESU x 10^10)
                -4.8032
    Dipole Moment (Debye)
         X      -0.0013      Y       5.9024      Z      -0.0014
       Tot       5.9024
    Quadrupole Moments (Debye-Ang)
        XX    -140.0881     XY      -0.0040     YY    -118.8729
        XZ     -14.2720     YZ      -0.0002     ZZ    -132.6751

 Total job time:  97.31s(wall), 730.88s(cpu)
        *  Thank you very much for using Q-Chem.  Have a nice day.  *
