 Gaussian 16, Revision A.03,
 Gaussian 16:  ES64L-G16RevA.03 25-Dec-2016

 --------------------------------------
 #P UB3LYP/6-311++G(d,p) nosym opt freq
 --------------------------------------

 -------
 Reduced
 -------
 Symbolic Z-matrix:
 Charge = -2 Multiplicity = 1

 SCF Done:  E(UB3LYP) =  -535.450263546     A.U. after   26 cycles
 SCF Done:  E(UB3LYP) =  -535.450263439     A.U. after   17 cycles
 SCF Done:  E(UB3LYP) =  -535.450263351     A.U. after   17 cycles
 SCF Done:  E(UB3LYP) =  -535.450263585     A.U. after   17 cycles
 Optimization completed.
    -- Stationary point found.
 Normal termination of Gaussian 16 at Wed Jan 10 16:57:12 2024.

 ----------------------------------------------------------------------
 #P Geom=AllCheck Guess=TCheck SCRF=Check GenChk UB3LYP/6-311++G(d,p) F
 req
 ----------------------------------------------------------------------

 Structure from the checkpoint file:  "095-an.chk"
 -------
 Reduced
 -------
 Charge = -2 Multiplicity = 1

                          Input orientation:
 ---------------------------------------------------------------------
 Center     Atomic      Atomic             Coordinates (Angstroms)
 Number     Number       Type             X           Y           Z
 ---------------------------------------------------------------------
      1          6           0        2.147839    3.732765    5.623930
      2          6           0        3.023183    3.084019    4.717455
      3          6           0        2.582543    2.263289    3.675773
      4          6           0        1.196571    1.994973    3.428762
      5          6           0        0.325612    2.652478    4.358066
      6          6           0        0.753551    3.477043    5.413625
      7          8           0        2.590391    4.528232    6.596300
      8          8           0        0.774947    1.233510    2.462383
      9          6           0       -0.246396    4.222639    6.299698
     10          6           0       -1.580618    3.500682    6.525035
     11          8           0        0.292223    4.522421    7.585387
     12          1           0        4.090873    3.258950    4.860136
     13          1           0        3.306865    1.794963    3.007175
     14          1           0       -0.737266    2.472670    4.207313
     15          1           0       -0.493346    5.185121    5.793127
     16          1           0       -2.135379    3.363309    5.592312
     17          1           0       -2.193441    4.096524    7.212873
     18          1           0       -1.403280    2.518291    6.975366
     19          1           0        1.296888    4.623309    7.384294
 ---------------------------------------------------------------------

 SCF Done:  E(UB3LYP) =  -535.450263585     A.U. after    2 cycles

 Alpha  occ. eigenvalues --  -18.81420 -18.76042 -18.74104  -9.95236  -9.91511
 Alpha  occ. eigenvalues --   -9.90679  -9.90332  -9.87275  -9.86611  -9.86265
 Alpha  occ. eigenvalues --   -9.85811  -0.72308  -0.65802  -0.64891  -0.52338
 Alpha  occ. eigenvalues --   -0.48773  -0.43586  -0.38806  -0.34083  -0.29239
 Alpha  occ. eigenvalues --   -0.26771  -0.21225  -0.18828  -0.17269  -0.16810
 Alpha  occ. eigenvalues --   -0.14534  -0.12432  -0.12034  -0.10531  -0.09078
 Alpha  occ. eigenvalues --   -0.08323  -0.07207  -0.05450  -0.04741  -0.03657
 Alpha  occ. eigenvalues --    0.01215   0.04448   0.05212   0.06257   0.08231
 Alpha  occ. eigenvalues --    0.14647
 Alpha virt. eigenvalues --    0.17242   0.19842   0.20701   0.20950   0.21626
 Alpha virt. eigenvalues --    0.22702   0.23947   0.24938   0.27594   0.27837
 Alpha virt. eigenvalues --    0.28490   0.29151   0.30506   0.30658   0.31026

  Beta  occ. eigenvalues --  -18.81420 -18.76042 -18.74104  -9.95236  -9.91511
  Beta  occ. eigenvalues --   -9.90679  -9.90332  -9.87275  -9.86611  -9.86265
  Beta  occ. eigenvalues --   -9.85811  -0.72308  -0.65802  -0.64891  -0.52338
  Beta  occ. eigenvalues --   -0.48773  -0.43586  -0.38806  -0.34083  -0.29239
  Beta  occ. eigenvalues --   -0.26771  -0.21225  -0.18828  -0.17269  -0.16810
  Beta  occ. eigenvalues --   -0.14534  -0.12432  -0.12034  -0.10531  -0.09078
  Beta  occ. eigenvalues --   -0.08323  -0.07207  -0.05450  -0.04741  -0.03657
  Beta  occ. eigenvalues --    0.01215   0.04448   0.05212   0.06257   0.08231
  Beta  occ. eigenvalues --    0.14647
  Beta virt. eigenvalues --    0.17242   0.19842   0.20701   0.20950   0.21626
  Beta virt. eigenvalues --    0.22702   0.23947   0.24938   0.27594   0.27837
  Beta virt. eigenvalues --    0.28490   0.29151   0.30506   0.30658   0.31026

 Mulliken charges and spin densities:
               1          2
     1  C   -1.049258  -0.000000
     2  C    0.337048   0.000000
     3  C    0.194131  -0.000000
     4  C   -0.815957  -0.000000
     5  C   -0.881470   0.000000
     6  C    2.015120   0.000000
     7  O   -0.589075   0.000000
     8  O   -0.585847   0.000000
     9  C   -0.598593  -0.000000
    10  C   -0.092551   0.000000
    11  O   -0.370956   0.000000
    12  H    0.057117   0.000000
    13  H    0.038388  -0.000000
    14  H    0.041911   0.000000
    15  H   -0.036567  -0.000000
    16  H    0.039395   0.000000
    17  H   -0.129350  -0.000000
    18  H    0.096277  -0.000000
    19  H    0.330238   0.000000
 Sum of Mulliken charges =  -2.00000   0.00000

 Dipole moment (field-independent basis, Debye):
    X=            -11.2733    Y=            -29.4444    Z=            -47.6535  Tot=             57.1395
 Quadrupole moment (field-independent basis, Debye-Ang):
   XX=           -110.9425   YY=           -190.8525   ZZ=           -359.7308
   XY=            -37.5532   XZ=            -55.6317   YZ=           -177.5224

  Exact polarizability: 748.198-176.700 228.850-288.373 117.276 316.071
 Approx polarizability: 695.736-149.617 276.025-196.793 125.076 329.417

                      1                      2                      3
                      A                      A                      A
 Frequencies --     34.3721               123.8844               154.4261
 Red. masses --      4.1072                 5.3225                 5.2454
 Frc consts  --      0.0029                 0.0481                 0.0737
 IR Inten    --      1.4543                 7.6777                 4.2895

                      4                      5                      6
                      A                      A                      A
 Frequencies --    220.7170               254.7250               339.2872
 Red. masses --      3.2955                 1.2332                 6.7953
 Frc consts  --      0.0946                 0.0471                 0.4609
 IR Inten    --      1.0168                19.1072                 1.4913

                      7                      8                      9
                      A                      A                      A
 Frequencies --    356.4169               381.0792               413.1905
 Red. masses --      4.7777                 5.3677                 7.0728
 Frc consts  --      0.3576                 0.4593                 0.7114
 IR Inten    --     94.9686                33.6273                51.2365

                     10                     11                     12
                      A                      A                      A
 Frequencies --    434.3850               449.1265               483.6704
 Red. masses --      3.3519                 6.1299                 4.0964
 Frc consts  --      0.3726                 0.7285                 0.5646
 IR Inten    --      8.6611               250.1039               198.1107

                     13                     14                     15
                      A                      A                      A
 Frequencies --    531.7631               585.5883               663.1771
 Red. masses --      2.7812                 3.1892                 3.7152
 Frc consts  --      0.4634                 0.6443                 0.9627
 IR Inten    --     22.3674                23.0037                 8.1407

                     16                     17                     18
                      A                      A                      A
 Frequencies --    708.5390               735.8021               792.0054
 Red. masses --      4.1436                 2.1467                 2.1903
 Frc consts  --      1.2256                 0.6848                 0.8095
 IR Inten    --      3.6925                 2.4757                17.9031

                     19                     20                     21
                      A                      A                      A
 Frequencies --    800.4327               826.6332               861.3446
 Red. masses --      6.1045                 1.9708                 1.3082
 Frc consts  --      2.3044                 0.7934                 0.5719
 IR Inten    --    103.6903                53.5154                14.2874

                     22                     23                     24
                      A                      A                      A
 Frequencies --    872.7385               925.5605              1006.8422
 Red. masses --      2.8527                 2.5998                 2.0258
 Frc consts  --      1.2802                 1.3122                 1.2099
 IR Inten    --     30.7127                 6.0325                 2.8936

                     25                     26                     27
                      A                      A                      A
 Frequencies --   1045.9752              1078.4700              1097.3745
 Red. masses --      1.1253                 1.6818                 1.6656
 Frc consts  --      0.7254                 1.1525                 1.1818
 IR Inten    --     85.7760               182.0804                17.1788

                     28                     29                     30
                      A                      A                      A
 Frequencies --   1103.9822              1145.5793              1198.3578
 Red. masses --      2.8383                 2.1865                 5.6179
 Frc consts  --      2.0382                 1.6906                 4.7533
 IR Inten    --    115.5702               630.4200               151.0546

                     31                     32                     33
                      A                      A                      A
 Frequencies --   1235.0038              1246.0040              1307.3665
 Red. masses --      1.7212                 2.2377                 1.5508
 Frc consts  --      1.5467                 2.0469                 1.5617
 IR Inten    --     93.2448               768.5445               242.8400

                     34                     35                     36
                      A                      A                      A
 Frequencies --   1322.1285              1336.4799              1363.6689
 Red. masses --      2.1589                 1.6158                 1.2897
 Frc consts  --      2.2234                 1.7005                 1.4131
 IR Inten    --    539.3691               186.0436                34.4279

                     37                     38                     39
                      A                      A                      A
 Frequencies --   1402.8933              1450.0934              1477.8533
 Red. masses --      4.6849                 2.5173                 1.1196
 Frc consts  --      5.4325                 3.1188                 1.4407
 IR Inten    --    191.3112               790.0738                65.1350

                     40                     41                     42
                      A                      A                      A
 Frequencies --   1479.6827              1493.5418              1570.0281
 Red. masses --      1.1304                 4.1149                 2.9930
 Frc consts  --      1.4582                 5.4081                 4.3468
 IR Inten    --      1.0982               275.6939              1483.6088

                     43                     44                     45
                      A                      A                      A
 Frequencies --   1631.8133              2552.5504              2765.1162
 Red. masses --      1.5228                 1.0871                 1.0786
 Frc consts  --      2.3891                 4.1731                 4.8589
 IR Inten    --    267.4228               728.2692               332.4440

                     46                     47                     48
                      A                      A                      A
 Frequencies --   2992.5574              3051.5489              3063.8966
 Red. masses --      1.0368                 1.0974                 1.0829
 Frc consts  --      5.4704                 6.0208                 5.9893
 IR Inten    --      8.9384                55.6601                70.4869

                     49                     50                     51
                      A                      A                      A
 Frequencies --   3075.1652              3092.7819              3114.1036
 Red. masses --      1.1002                 1.0917                 1.0857
 Frc consts  --      6.1299                 6.1523                 6.2035
 IR Inten    --     39.8590               479.4567               110.5609

 - Thermochemistry -
 -------------------
 Temperature   298.150 Kelvin.  Pressure   1.00000 Atm.
 Atom     1 has atomic number  6 and mass  12.00000

 Molecular mass:   152.04734 amu.
 Principal axes and moments of inertia in atomic units:
                           1         2         3
     Eigenvalues --  1005.193012051.289143004.92254
           X           -0.29535   0.94700  -0.12630
           Y            0.51883   0.26999   0.81112
           Z            0.80224   0.17403  -0.57108
 This molecule is an asymmetric top.
 Rotational symmetry number  1.
 Warning -- assumption of classical behavior for rotation
           may cause significant error
 Rotational temperatures (Kelvin)      0.08617     0.04222     0.02882
 Rotational constants (GHZ):           1.79542     0.87981     0.60059
 Zero-point vibrational energy     368747.2 (Joules/Mol)
                                   88.13270 (Kcal/Mol)
 Warning -- explicit consideration of  14 degrees of freedom as
           vibrations may cause significant error
 Vibrational temperatures:     49.45   178.24   222.18   317.56   366.49
          (Kelvin)            488.16   512.80   548.29   594.49   624.98
                              646.19   695.89   765.09   842.53   954.16
                             1019.43  1058.66  1139.52  1151.64  1189.34
                             1239.28  1255.68  1331.68  1448.62  1504.92
                             1551.68  1578.88  1588.38  1648.23  1724.17
                             1776.90  1792.72  1881.01  1902.25  1922.90
                             1962.02  2018.45  2086.36  2126.30  2128.93
                             2148.87  2258.92  2347.82  3672.55  3978.39
                             4305.62  4390.50  4408.26  4424.48  4449.82
                             4480.50

 Zero-point correction=                           0.140448 (Hartree/Particle)
 Thermal correction to Energy=                    0.150007
 Thermal correction to Enthalpy=                  0.150951
 Thermal correction to Gibbs Free Energy=         0.105140
 Sum of electronic and zero-point Energies=           -535.309815
 Sum of electronic and thermal Energies=              -535.300257
 Sum of electronic and thermal Enthalpies=            -535.299312
 Sum of electronic and thermal Free Energies=         -535.345123

                     E (Thermal)             CV                S
                      KCal/Mol        Cal/Mol-Kelvin    Cal/Mol-Kelvin
 Total                   94.131             37.130             96.417
 Electronic               0.000              0.000              0.000
 Translational            0.889              2.981             40.967
 Rotational               0.889              2.981             30.206
 Vibrational             92.353             31.168             25.245
 Vibration     1          0.594              1.983              5.560
 Vibration     2          0.610              1.929              3.039
 Vibration     3          0.620              1.898              2.617
 Vibration     4          0.647              1.810              1.953
 Vibration     5          0.665              1.755              1.698
 Vibration     6          0.719              1.597              1.216
 Vibration     7          0.732              1.562              1.138
 Vibration     8          0.751              1.511              1.035
 Vibration     9          0.777              1.442              0.915
 Vibration    10          0.795              1.395              0.844
 Vibration    11          0.808              1.363              0.798
 Vibration    12          0.840              1.286              0.700
 Vibration    13          0.887              1.180              0.583
 Vibration    14          0.943              1.063              0.475

                           ! Non-Optimized Parameters !
 Normal termination of Gaussian 16 at Wed Jan 10 17:09:15 2024.
