 Q-Chem 5.4, Q-Chem, Inc., Pleasanton, CA (2021)
 Q-Chem 5.4.0 for Intel X86 EM64T Linux

User input:
--------------------------------------------------------------
$molecule
-2 1
C                  2.1478390000      3.7327650000      5.6239300000
C                  3.0231830000      3.0840190000      4.7174550000
C                  2.5825430000      2.2632890000      3.6757730000
C                  1.1965710000      1.9949730000      3.4287620000
C                  0.3256120000      2.6524780000      4.3580660000
C                  0.7535510000      3.4770430000      5.4136250000
O                  2.5903910000      4.5282320000      6.5963000000
O                  0.7749470000      1.2335100000      2.4623830000
C                 -0.2463960000      4.2226390000      6.2996980000
C                 -1.5806180000      3.5006820000      6.5250350000
O                  0.2922230000      4.5224210000      7.5853870000
H                  4.0908730000      3.2589500000      4.8601360000
H                  3.3068650000      1.7949630000      3.0071750000
H                 -0.7372660000      2.4726700000      4.2073130000
H                 -0.4933460000      5.1851210000      5.7931270000
H                 -2.1353790000      3.3633090000      5.5923120000
H                 -2.1934410000      4.0965240000      7.2128730000
H                 -1.4032800000      2.5182910000      6.9753660000
H                  1.2968880000      4.6233090000      7.3842940000
$end

$rem
BASIS  =  6-311++G(d,p)
GUI  =  2
JOB_TYPE  =  SP
METHOD  =  B3LYP
SCF_CONVERGENCE  = 8
SOLVENT_METHOD = sm12
$end

$smx
solvent dimethylformamide
charges CM5
$end

--------------------------------------------------------------

             Standard Nuclear Orientation (Angstroms)
    I     Atom           X                Y                Z
 ----------------------------------------------------------------
    1      C       2.1478390000     3.7327650000     5.6239300000
    2      C       3.0231830000     3.0840190000     4.7174550000
    3      C       2.5825430000     2.2632890000     3.6757730000
    4      C       1.1965710000     1.9949730000     3.4287620000
    5      C       0.3256120000     2.6524780000     4.3580660000
    6      C       0.7535510000     3.4770430000     5.4136250000
    7      O       2.5903910000     4.5282320000     6.5963000000
    8      O       0.7749470000     1.2335100000     2.4623830000
    9      C      -0.2463960000     4.2226390000     6.2996980000
   10      C      -1.5806180000     3.5006820000     6.5250350000
   11      O       0.2922230000     4.5224210000     7.5853870000
   12      H       4.0908730000     3.2589500000     4.8601360000
   13      H       3.3068650000     1.7949630000     3.0071750000
   14      H      -0.7372660000     2.4726700000     4.2073130000
   15      H      -0.4933460000     5.1851210000     5.7931270000
   16      H      -2.1353790000     3.3633090000     5.5923120000
   17      H      -2.1934410000     4.0965240000     7.2128730000
   18      H      -1.4032800000     2.5182910000     6.9753660000
   19      H       1.2968880000     4.6233090000     7.3842940000
 ----------------------------------------------------------------

   18    -535.4460164634      5.46e-09  Convergence criterion met
 Total energy in the final basis set =     -535.7443675888

                    Orbital Energies (a.u.)
 --------------------------------------------------------------

 Alpha MOs
 -- Occupied --
-19.0814 -19.0386 -19.0270 -10.2221 -10.1906 -10.1899 -10.1707 -10.1567
-10.1531 -10.1500 -10.1470  -0.9922  -0.9373  -0.9343  -0.8058  -0.7582
 -0.7138  -0.6721  -0.6168  -0.5733  -0.5484  -0.4799  -0.4626  -0.4521
 -0.4509  -0.4216  -0.3900  -0.3844  -0.3773  -0.3702  -0.3665  -0.3535
 -0.3377  -0.3266  -0.3174  -0.2566  -0.2413  -0.2316  -0.2139  -0.2016
 -0.1387

          Ground-State Mulliken Net Atomic Charges

     Atom                 Charge (a.u.)
  ----------------------------------------
      1 C                    -0.554995
      2 C                    -0.190561
      3 C                    -0.337606
      4 C                    -1.068088
      5 C                    -2.440545
      6 C                     1.349824
      7 O                    -0.378229
      8 O                    -0.414672
      9 C                     0.706452
     10 C                     0.516838
     11 O                    -0.203399
     12 H                     0.127810
     13 H                     0.059095
     14 H                    -0.148095
     15 H                    -0.023397
     16 H                     0.218669
     17 H                     0.389416
     18 H                     0.073223
     19 H                     0.318260
  ----------------------------------------
  Sum of atomic charges =    -2.000000

                    Cartesian Multipole Moments
 -----------------------------------------------------------------
    Charge (ESU x 10^10)
                -9.6064
    Dipole Moment (Debye)
         X     -13.3817      Y     -28.5591      Z     -46.3092
       Tot      56.0289
    Quadrupole Moments (Debye-Ang)
        XX    -109.1452     XY     -45.2680     YY    -184.0425
        XZ     -67.7840     YZ    -167.8683     ZZ    -343.9766

 Total job time:  234.77s(wall), 1690.05s(cpu)
        *  Thank you very much for using Q-Chem.  Have a nice day.  *
