 Gaussian 16, Revision A.03,
 Gaussian 16:  ES64L-G16RevA.03 25-Dec-2016

 ----------------------------------------------------------------------
 #P UB3LYP/6-311++G(d,p) nosym opt freq SCRF=(PCM,Solvent=n,n-DiMethylF
 ormamide)
 ----------------------------------------------------------------------

 -------
 Radical
 -------
 Symbolic Z-matrix:
 Charge = -1 Multiplicity = 2

 SCF Done:  E(UB3LYP) =  -725.228648353     A.U. after   20 cycles
 SCF Done:  E(UB3LYP) =  -725.229164101     A.U. after   15 cycles
 SCF Done:  E(UB3LYP) =  -725.229269568     A.U. after   14 cycles
 SCF Done:  E(UB3LYP) =  -725.229276788     A.U. after   13 cycles
 SCF Done:  E(UB3LYP) =  -725.229277434     A.U. after   10 cycles
 SCF Done:  E(UB3LYP) =  -725.229278015     A.U. after   10 cycles
 Optimization completed.
    -- Stationary point found.
 Normal termination of Gaussian 16 at Sun Feb 11 15:10:06 2024.

 ----------------------------------------------------------------------
 #P Geom=AllCheck Guess=TCheck SCRF=Check GenChk UB3LYP/6-311++G(d,p) F
 req
 ----------------------------------------------------------------------

 Structure from the checkpoint file:  "304-rad.chk"
 -------
 Radical
 -------
 Charge = -1 Multiplicity = 2

                          Input orientation:
 ---------------------------------------------------------------------
 Center     Atomic      Atomic             Coordinates (Angstroms)
 Number     Number       Type             X           Y           Z
 ---------------------------------------------------------------------
      1          6           0       -4.093160    3.616990    1.535583
      2          6           0       -4.575910    3.836377    0.251355
      3          6           0       -3.979072    3.184654   -0.845763
      4          6           0       -2.909910    2.327425   -0.626476
      5          6           0       -2.400394    2.085900    0.656564
      6          6           0       -3.011111    2.749575    1.761266
      7          6           0       -2.515840    2.527889    3.109898
      8          6           0       -1.403859    1.622542    3.249747
      9          6           0       -0.805788    0.975780    2.191894
     10          6           0       -1.260227    1.165418    0.847298
     11          8           0       -2.993267    3.073175    4.162153
     12          8           0       -0.719472    0.579559   -0.134748
     13          8           0       -0.970058    1.441347    4.527073
     14          8           0       -5.632606    4.699185    0.142381
     15          6           0       -6.173898    4.962597   -1.153074
     16          1           0       -4.557441    4.121229    2.374158
     17          1           0       -4.340538    3.341792   -1.852891
     18          1           0       -2.445370    1.822075   -1.464953
     19          1           0        0.029128    0.305140    2.364414
     20          1           0       -1.565160    2.010640    5.056724
     21          1           0       -6.991038    5.663991   -0.995124
     22          1           0       -6.562851    4.050087   -1.614408
     23          1           0       -5.427407    5.417226   -1.810973
 ---------------------------------------------------------------------

 SCF Done:  E(UB3LYP) =  -725.229278015     A.U. after    1 cycles

 Alpha  occ. eigenvalues --  -19.15721 -19.14771 -19.08605 -19.07350 -10.23727
 Alpha  occ. eigenvalues --  -10.22685 -10.22635 -10.22119 -10.22106 -10.17988
 Alpha  occ. eigenvalues --  -10.17553 -10.17399 -10.17038 -10.16837 -10.15523
 Alpha  occ. eigenvalues --   -1.06937  -1.06622  -0.99618  -0.99487  -0.86049
 Alpha  occ. eigenvalues --   -0.80295  -0.76199  -0.74394  -0.70345  -0.67256
 Alpha  occ. eigenvalues --   -0.62822  -0.60339  -0.57746  -0.54396  -0.52621
 Alpha  occ. eigenvalues --   -0.48856  -0.48431  -0.48021  -0.47081  -0.43821
 Alpha  occ. eigenvalues --   -0.43421  -0.42732  -0.42078  -0.41218  -0.40627
 Alpha  occ. eigenvalues --   -0.39018  -0.38796  -0.37539  -0.36405  -0.35713
 Alpha  occ. eigenvalues --   -0.35419  -0.33188  -0.31747  -0.26778  -0.25911
 Alpha  occ. eigenvalues --   -0.24746  -0.24048  -0.22620  -0.15295
 Alpha virt. eigenvalues --   -0.03386  -0.00453  -0.00384   0.00491   0.01283
 Alpha virt. eigenvalues --    0.02355   0.02459   0.03500   0.04112   0.04799
 Alpha virt. eigenvalues --    0.04883   0.05253   0.05912   0.06375   0.06713

  Beta  occ. eigenvalues --  -19.15709 -19.14718 -19.07926 -19.06851 -10.23732
  Beta  occ. eigenvalues --  -10.22560 -10.22525 -10.22107 -10.21812 -10.17983
  Beta  occ. eigenvalues --  -10.17580 -10.17339 -10.16965 -10.16748 -10.15426
  Beta  occ. eigenvalues --   -1.06915  -1.06403  -0.98699  -0.98366  -0.85843
  Beta  occ. eigenvalues --   -0.79833  -0.76040  -0.74224  -0.70150  -0.66354
  Beta  occ. eigenvalues --   -0.62661  -0.60086  -0.57511  -0.54279  -0.52436
  Beta  occ. eigenvalues --   -0.48608  -0.48250  -0.47856  -0.47036  -0.43653
  Beta  occ. eigenvalues --   -0.42691  -0.42029  -0.41904  -0.40863  -0.40234
  Beta  occ. eigenvalues --   -0.38635  -0.38467  -0.36286  -0.36075  -0.35174
  Beta  occ. eigenvalues --   -0.34005  -0.33126  -0.30880  -0.25300  -0.25274
  Beta  occ. eigenvalues --   -0.23568  -0.23178  -0.22132
  Beta virt. eigenvalues --   -0.08616  -0.02641  -0.00366   0.00516   0.00567
  Beta virt. eigenvalues --    0.01296   0.02364   0.02475   0.03555   0.04121
  Beta virt. eigenvalues --    0.04817   0.05289   0.05996   0.06273   0.06400

 Mulliken charges and spin densities:
               1          2
     1  C   -0.259777   0.093944
     2  C   -0.506441  -0.011367
     3  C    0.115417   0.050741
     4  C    0.080522  -0.010349
     5  C    0.373391   0.044398
     6  C    0.760193   0.005139
     7  C   -0.842555   0.169841
     8  C   -0.368564   0.097392
     9  C    0.583379   0.080881
    10  C   -0.636186   0.051545
    11  O   -0.516699   0.249703
    12  O   -0.504013   0.178039
    13  O   -0.289528   0.017771
    14  O   -0.214858   0.003071
    15  C   -0.333225   0.000472
    16  H    0.183621  -0.006680
    17  H    0.221835  -0.003324
    18  H    0.164623  -0.000470
    19  H    0.194528  -0.007504
    20  H    0.285388  -0.003250
    21  H    0.185544   0.000007
    22  H    0.161746   0.000000
    23  H    0.161657  -0.000001
 Sum of Mulliken charges =  -1.00000   1.00000

 Dipole moment (field-independent basis, Debye):
    X=              7.0380    Y=             -7.4944    Z=            -11.6312  Tot=             15.5237
 Quadrupole moment (field-independent basis, Debye-Ang):
   XX=           -103.8911   YY=           -109.6384   ZZ=           -127.7087
   XY=             15.2064   XZ=             37.0798   YZ=            -35.8346

  Exact polarizability: 229.420 -94.241 192.533  19.162  10.134 297.446
 Approx polarizability: 250.357-101.208 215.146   5.993  24.787 338.663

                      1                      2                      3
                      A                      A                      A
 Frequencies --     58.1200                90.2383                99.8627
 Red. masses --      3.6975                 6.9380                 4.6789
 Frc consts  --      0.0074                 0.0333                 0.0275
 IR Inten    --      5.5453                 6.1478                 3.6298

                      4                      5                      6
                      A                      A                      A
 Frequencies --    162.2337               167.8496               219.2777
 Red. masses --      7.1862                 5.2393                 2.1220
 Frc consts  --      0.1114                 0.0870                 0.0601
 IR Inten    --      6.2422                 4.3052                 0.0133

                      7                      8                      9
                      A                      A                      A
 Frequencies --    232.0142               281.6149               308.8872
 Red. masses --      1.7916                 4.0145                 4.2420
 Frc consts  --      0.0568                 0.1876                 0.2385
 IR Inten    --      0.4241                 2.7547                 1.7795

                     10                     11                     12
                      A                      A                      A
 Frequencies --    313.1363               325.6714               390.4215
 Red. masses --      5.7331                 8.5971                 5.2669
 Frc consts  --      0.3312                 0.5372                 0.4730
 IR Inten    --     35.6949                 4.3348                 0.0226

                     13                     14                     15
                      A                      A                      A
 Frequencies --    411.0958               425.3047               464.4244
 Red. masses --      9.1952                 8.2487                 3.3830
 Frc consts  --      0.9156                 0.8791                 0.4299
 IR Inten    --     17.3467                13.5840                 4.7405

                     16                     17                     18
                      A                      A                      A
 Frequencies --    500.7682               546.2929               563.6538
 Red. masses --     10.5198                 4.7663                 4.3356
 Frc consts  --      1.5543                 0.8381                 0.8116
 IR Inten    --      4.8577                29.5665                15.3068

                     19                     20                     21
                      A                      A                      A
 Frequencies --    635.0931               644.7920               663.3160
 Red. masses --      1.1825                 6.3550                 2.6705
 Frc consts  --      0.2810                 1.5567                 0.6923
 IR Inten    --    124.6539                15.9800                23.8937

                     22                     23                     24
                      A                      A                      A
 Frequencies --    688.4395               704.4215               708.3895
 Red. masses --      7.1860                 4.8713                 8.0774
 Frc consts  --      2.0066                 1.4242                 2.3882
 IR Inten    --      9.3376                 0.1904                12.0669

                     25                     26                     27
                      A                      A                      A
 Frequencies --    731.2641               760.1153               812.1867
 Red. masses --      4.6446                 5.9106                 1.4158
 Frc consts  --      1.4633                 2.0120                 0.5502
 IR Inten    --      2.0032                88.7792                97.2434

                     28                     29                     30
                      A                      A                      A
 Frequencies --    820.3785               878.4574               884.0718
 Red. masses --      1.6229                 1.4956                 4.8270
 Frc consts  --      0.6435                 0.6800                 2.2228
 IR Inten    --     18.1826                31.4809                82.0281

                     31                     32                     33
                      A                      A                      A
 Frequencies --    967.3071              1021.2009              1042.2922
 Red. masses --      1.3251                 5.1497                 2.7722
 Frc consts  --      0.7305                 3.1641                 1.7744
 IR Inten    --      1.9119               193.3111                39.2108

                     34                     35                     36
                      A                      A                      A
 Frequencies --   1103.2133              1155.3162              1165.2750
 Red. masses --      2.7835                 1.6817                 1.2706
 Frc consts  --      1.9960                 1.3225                 1.0166
 IR Inten    --     11.5084                54.6688                 1.1709

                     37                     38                     39
                      A                      A                      A
 Frequencies --   1174.8007              1199.4939              1208.5127
 Red. masses --      2.6089                 1.8416                 1.4913
 Frc consts  --      2.1215                 1.5612                 1.2832
 IR Inten    --     65.6696               158.7715               364.2426

                     40                     41                     42
                      A                      A                      A
 Frequencies --   1219.9407              1251.5567              1274.4816
 Red. masses --      2.3184                 2.5115                 4.3472
 Frc consts  --      2.0329                 2.3179                 4.1604
 IR Inten    --    233.0183                44.8714               333.7990

                     43                     44                     45
                      A                      A                      A
 Frequencies --   1315.3316              1346.8038              1427.5059
 Red. masses --      2.0120                 8.6174                 2.8727
 Frc consts  --      2.0509                 9.2095                 3.4490
 IR Inten    --     87.4020                34.2996               431.3670

                     46                     47                     48
                      A                      A                      A
 Frequencies --   1450.0477              1464.7493              1479.1042
 Red. masses --      2.8024                 3.5234                 1.6266
 Frc consts  --      3.4717                 4.4539                 2.0967
 IR Inten    --    405.0564               378.8914               418.4035

                     49                     50                     51
                      A                      A                      A
 Frequencies --   1484.0823              1496.2994              1510.1097
 Red. masses --      1.0455                 1.0902                 4.1272
 Frc consts  --      1.3567                 1.4382                 5.5452
 IR Inten    --     13.9830               166.1115               897.1457

                     52                     53                     54
                      A                      A                      A
 Frequencies --   1526.3187              1568.1281              1623.3071
 Red. masses --      5.9784                 4.8476                 6.2729
 Frc consts  --      8.2058                 7.0233                 9.7391
 IR Inten    --     99.3625                59.5400               256.2765

                     55                     56                     57
                      A                      A                      A
 Frequencies --   1636.8477              3015.9221              3079.0706
 Red. masses --      7.0547                 1.0332                 1.1069
 Frc consts  --     11.1365                 5.5370                 6.1828
 IR Inten    --    149.6158                89.5774                51.9353

                     58                     59                     60
                      A                      A                      A
 Frequencies --   3138.0564              3169.8650              3182.3695
 Red. masses --      1.1008                 1.0904                 1.0882
 Frc consts  --      6.3869                 6.4556                 6.4931
 IR Inten    --     30.5535                23.4432                 4.4860

                     61                     62                     63
                      A                      A                      A
 Frequencies --   3192.1006              3207.2293              3552.2667
 Red. masses --      1.0899                 1.0922                 1.0639
 Frc consts  --      6.5433                 6.6196                 7.9096
 IR Inten    --      7.9634                12.8961               170.4437

 - Thermochemistry -
 -------------------
 Temperature   298.150 Kelvin.  Pressure   1.00000 Atm.
 Atom     1 has atomic number  6 and mass  12.00000

 Molecular mass:   204.04226 amu.
 Principal axes and moments of inertia in atomic units:
                           1         2         3
     Eigenvalues --  1615.028374393.730255997.25137
           X            0.66886  -0.38610   0.63525
           Y           -0.47501   0.43535   0.76474
           Z            0.57183   0.81326  -0.10779
 This molecule is an asymmetric top.
 Rotational symmetry number  1.
 Warning -- assumption of classical behavior for rotation
           may cause significant error
 Rotational temperatures (Kelvin)      0.05363     0.01971     0.01444
 Rotational constants (GHZ):           1.11747     0.41075     0.30093
 Zero-point vibrational energy     437478.5 (Joules/Mol)
                                  104.55988 (Kcal/Mol)
 Warning -- explicit consideration of  18 degrees of freedom as
           vibrations may cause significant error
 Vibrational temperatures:     83.62   129.83   143.68   233.42   241.50
          (Kelvin)            315.49   333.82   405.18   444.42   450.53
                              468.57   561.73   591.48   611.92   668.20
                              720.49   785.99   810.97   913.76   927.71
                              954.36   990.51  1013.51  1019.21  1052.13
                             1093.64  1168.56  1180.34  1263.90  1271.98
                             1391.74  1469.28  1499.63  1587.28  1662.24
                             1676.57  1690.28  1725.80  1738.78  1755.22
                             1800.71  1833.69  1892.47  1937.75  2053.86
                             2086.30  2107.45  2128.10  2135.26  2152.84
                             2172.71  2196.03  2256.19  2335.58  2355.06
                             4339.24  4430.10  4514.96  4560.73  4578.72
                             4592.72  4614.49  5110.92

 Zero-point correction=                           0.166627 (Hartree/Particle)
 Thermal correction to Energy=                    0.178977
 Thermal correction to Enthalpy=                  0.179921
 Thermal correction to Gibbs Free Energy=         0.127345
 Sum of electronic and zero-point Energies=           -725.062651
 Sum of electronic and thermal Energies=              -725.050301
 Sum of electronic and thermal Enthalpies=            -725.049357
 Sum of electronic and thermal Free Energies=         -725.101933

                     E (Thermal)             CV                S
                      KCal/Mol        Cal/Mol-Kelvin    Cal/Mol-Kelvin
 Total                  112.310             48.179            110.656
 Electronic               0.000              0.000              1.377
 Translational            0.889              2.981             41.844
 Rotational               0.889              2.981             32.120
 Vibrational            110.532             42.217             35.314
 Vibration     1          0.596              1.974              4.520
 Vibration     2          0.602              1.956              3.655
 Vibration     3          0.604              1.949              3.457
 Vibration     4          0.622              1.889              2.524
 Vibration     5          0.625              1.882              2.459
 Vibration     6          0.647              1.812              1.965
 Vibration     7          0.653              1.792              1.863
 Vibration     8          0.681              1.708              1.524
 Vibration     9          0.698              1.657              1.368
 Vibration    10          0.701              1.649              1.346
 Vibration    11          0.710              1.624              1.281
 Vibration    12          0.758              1.491              0.999
 Vibration    13          0.775              1.446              0.923
 Vibration    14          0.787              1.415              0.874
 Vibration    15          0.822              1.329              0.753
 Vibration    16          0.856              1.248              0.656
 Vibration    17          0.901              1.148              0.552
 Vibration    18          0.919              1.110              0.517

 Optimization completed.
    -- Stationary point found.
 Normal termination of Gaussian 16 at Sun Feb 11 15:31:39 2024.
