 Gaussian 16, Revision A.03,
 Gaussian 16:  ES64L-G16RevA.03 25-Dec-2016

 --------------------------------------
 #P UB3LYP/6-311++G(d,p) nosym opt freq
 --------------------------------------

 -------
 Radical
 -------
 Symbolic Z-matrix:
 Charge = -1 Multiplicity = 2

 SCF Done:  E(UB3LYP) =  -1144.89861446     A.U. after   24 cycles
 SCF Done:  E(UB3LYP) =  -1144.91374610     A.U. after   17 cycles
 SCF Done:  E(UB3LYP) =  -1144.91491930     A.U. after   15 cycles
 SCF Done:  E(UB3LYP) =  -1144.91504730     A.U. after   14 cycles
 SCF Done:  E(UB3LYP) =  -1144.91486447     A.U. after   15 cycles
 SCF Done:  E(UB3LYP) =  -1144.91516103     A.U. after   14 cycles
 SCF Done:  E(UB3LYP) =  -1144.91527576     A.U. after   15 cycles
 SCF Done:  E(UB3LYP) =  -1144.91530538     A.U. after   18 cycles
 SCF Done:  E(UB3LYP) =  -1144.91537853     A.U. after   15 cycles
 SCF Done:  E(UB3LYP) =  -1144.91538874     A.U. after   13 cycles
 SCF Done:  E(UB3LYP) =  -1144.91540398     A.U. after   11 cycles
 SCF Done:  E(UB3LYP) =  -1144.91540406     A.U. after   10 cycles
 SCF Done:  E(UB3LYP) =  -1144.91540410     A.U. after    8 cycles
 SCF Done:  E(UB3LYP) =  -1144.91540416     A.U. after    9 cycles
 SCF Done:  E(UB3LYP) =  -1144.91540420     A.U. after    9 cycles
 SCF Done:  E(UB3LYP) =  -1144.91540428     A.U. after   10 cycles
 SCF Done:  E(UB3LYP) =  -1144.91540435     A.U. after   10 cycles
 SCF Done:  E(UB3LYP) =  -1144.91540441     A.U. after   10 cycles
 SCF Done:  E(UB3LYP) =  -1144.91540446     A.U. after    9 cycles
 Optimization completed.
    -- Stationary point found.
 Normal termination of Gaussian 16 at Thu Dec 21 10:12:52 2023.

 ----------------------------------------------------------------------
 #P Geom=AllCheck Guess=TCheck SCRF=Check GenChk UB3LYP/6-311++G(d,p) F
 req
 ----------------------------------------------------------------------

 Structure from the checkpoint file:  "147-rad.chk"
 -------
 Radical
 -------
 Charge = -1 Multiplicity = 2

                          Input orientation:
 ---------------------------------------------------------------------
 Center     Atomic      Atomic             Coordinates (Angstroms)
 Number     Number       Type             X           Y           Z
 ---------------------------------------------------------------------
      1          6           0       -2.851368    3.961957    0.490878
      2          6           0       -4.131566    3.467077    0.625090
      3          6           0       -4.322016    2.074584    0.569881
      4          6           0       -1.742370    3.107286    0.306214
      5          6           0       -1.960430    1.700290    0.256146
      6          6           0       -3.275941    1.205679    0.393819
      7          6           0       -0.405855    3.688863    0.178005
      8          6           0        0.690200    2.736154   -0.004210
      9          6           0        0.472154    1.329167   -0.054279
     10          6           0       -0.864352    0.747574    0.073906
     11          6           0        2.005742    3.230793   -0.141904
     12          6           0        3.051754    2.361871   -0.317966
     13          6           0        2.861325    0.969365   -0.373150
     14          6           0        1.581156    0.474460   -0.238932
     15          8           0       -0.208799    4.928000    0.222086
     16          8           0       -1.061417   -0.491548    0.029788
     17          1           0       -3.431054    0.134182    0.366090
     18          1           0        1.388656   -0.591338   -0.273604
     19          1           0       -2.658917    5.027764    0.525567
     20          1           0        2.160808    4.302295   -0.114189
     21          1           0        3.708567    0.308623   -0.510442
     22          8           0       -5.604457    1.520991    0.805331
     23          8           0        4.334371    2.915192   -0.553449
     24          6           0        5.353621    2.676633    0.304279
     25          6           0        6.595715    3.400397   -0.164799
     26          8           0        5.283781    1.996683    1.295772
     27          1           0       -4.978747    4.127887    0.762361
     28          1           0        6.419762    4.478831   -0.145298
     29          1           0        6.826234    3.125340   -1.196282
     30          1           0        7.430283    3.150738    0.487731
     31          6           0       -6.624579    1.761161   -0.050890
     32          6           0       -7.866180    1.036552    0.418156
     33          8           0       -6.555802    2.442979   -1.041177
     34          1           0       -7.690418   -0.041865    0.395960
     35          1           0       -8.701525    1.287793   -0.232773
     36          1           0       -8.095356    1.309280    1.450551
 ---------------------------------------------------------------------

 SCF Done:  E(UB3LYP) =  -1144.91540446     A.U. after    1 cycles

 Alpha  occ. eigenvalues --  -19.08738 -19.08736 -19.03249 -19.03248 -18.95651
 Alpha  occ. eigenvalues --  -18.95650 -10.22684 -10.22683 -10.13154 -10.13153
 Alpha  occ. eigenvalues --  -10.11071 -10.11071 -10.10690 -10.10689 -10.07282
 Alpha  occ. eigenvalues --  -10.07281 -10.06615 -10.06614 -10.06568 -10.06568
 Alpha  occ. eigenvalues --  -10.06423 -10.06422 -10.06132 -10.06132  -1.02754
 Alpha  occ. eigenvalues --   -1.02752  -0.94652  -0.94650  -0.88408  -0.88132
 Alpha  occ. eigenvalues --   -0.75792  -0.75153  -0.69896  -0.68973  -0.66844
 Alpha  occ. eigenvalues --   -0.64867  -0.64684  -0.63309  -0.57045  -0.56185
 Alpha  occ. eigenvalues --   -0.53381  -0.51832  -0.49034  -0.47192  -0.44515
 Alpha  occ. eigenvalues --   -0.43025  -0.41858  -0.41557  -0.40553  -0.40181
 Alpha  occ. eigenvalues --   -0.39933  -0.39553  -0.37312  -0.36600  -0.36323
 Alpha  occ. eigenvalues --   -0.34812  -0.34436  -0.33972  -0.32793  -0.32166
 Alpha  occ. eigenvalues --   -0.31973  -0.31463  -0.31407  -0.30932  -0.30119
 Alpha  occ. eigenvalues --   -0.29368  -0.29347  -0.28246  -0.26072  -0.26066
 Alpha  occ. eigenvalues --   -0.25852  -0.25602  -0.23760  -0.23583  -0.22338
 Alpha  occ. eigenvalues --   -0.21900  -0.20288  -0.20253  -0.15395  -0.14950
 Alpha  occ. eigenvalues --   -0.14683  -0.13702  -0.12665  -0.11849  -0.02603
 Alpha virt. eigenvalues --    0.05540   0.05823   0.05835   0.07340   0.07498
 Alpha virt. eigenvalues --    0.08625   0.09040   0.09497   0.09683   0.09693
 Alpha virt. eigenvalues --    0.09992   0.10517   0.10531   0.11300   0.11744

  Beta  occ. eigenvalues --  -19.08737 -19.08735 -19.03249 -19.03249 -18.95046
  Beta  occ. eigenvalues --  -18.95045 -10.22678 -10.22677 -10.13097 -10.13096
  Beta  occ. eigenvalues --  -10.11072 -10.11071 -10.10560 -10.10559 -10.07232
  Beta  occ. eigenvalues --  -10.07232 -10.06629 -10.06628 -10.06575 -10.06575
  Beta  occ. eigenvalues --  -10.06319 -10.06318 -10.06045 -10.06045  -1.02741
  Beta  occ. eigenvalues --   -1.02739  -0.94644  -0.94643  -0.87384  -0.87075
  Beta  occ. eigenvalues --   -0.75558  -0.75047  -0.69707  -0.68941  -0.66590
  Beta  occ. eigenvalues --   -0.64649  -0.64586  -0.63150  -0.56494  -0.56072
  Beta  occ. eigenvalues --   -0.53229  -0.51550  -0.48954  -0.47051  -0.44260
  Beta  occ. eigenvalues --   -0.42880  -0.41837  -0.41516  -0.40497  -0.40158
  Beta  occ. eigenvalues --   -0.39884  -0.39524  -0.37218  -0.36397  -0.36196
  Beta  occ. eigenvalues --   -0.34781  -0.34427  -0.33905  -0.32718  -0.32141
  Beta  occ. eigenvalues --   -0.31923  -0.31321  -0.31316  -0.30476  -0.29454
  Beta  occ. eigenvalues --   -0.29183  -0.28944  -0.27754  -0.25977  -0.25639
  Beta  occ. eigenvalues --   -0.25420  -0.23782  -0.23526  -0.23364  -0.22186
  Beta  occ. eigenvalues --   -0.20961  -0.20268  -0.20236  -0.14814  -0.13775
  Beta  occ. eigenvalues --   -0.13089  -0.12873  -0.12103  -0.11281
  Beta virt. eigenvalues --    0.03377   0.05818   0.05821   0.06284   0.07542
  Beta virt. eigenvalues --    0.07604   0.08935   0.09047   0.09620   0.09680
  Beta virt. eigenvalues --    0.10037   0.10063   0.10613   0.10677   0.11320

 Mulliken charges and spin densities:
               1          2
     1  C    0.141249   0.018638
     2  C    0.206116   0.041478
     3  C   -0.684033   0.034880
     4  C    0.307728   0.044404
     5  C    0.491765   0.065673
     6  C   -0.007919   0.009604
     7  C   -0.881451   0.064467
     8  C    0.491899   0.065692
     9  C    0.307311   0.044413
    10  C   -0.880912   0.064467
    11  C   -0.007241   0.009586
    12  C   -0.685511   0.034915
    13  C    0.207432   0.041493
    14  C    0.141764   0.018620
    15  O   -0.353356   0.225789
    16  O   -0.353359   0.225763
    17  H    0.182469  -0.001330
    18  H    0.169123  -0.000980
    19  H    0.169104  -0.000982
    20  H    0.182440  -0.001330
    21  H    0.165238  -0.003392
    22  O   -0.022049   0.000539
    23  O   -0.021913   0.000540
    24  C    0.075522   0.000136
    25  C   -0.540529   0.000530
    26  O   -0.242375  -0.000681
    27  H    0.165338  -0.003391
    28  H    0.169355   0.000150
    29  H    0.163996   0.000129
    30  H    0.158327  -0.000050
    31  C    0.075886   0.000142
    32  C   -0.540599   0.000531
    33  O   -0.242539  -0.000670
    34  H    0.169370   0.000151
    35  H    0.158331  -0.000050
    36  H    0.164022   0.000130
 Sum of Mulliken charges =  -1.00000   1.00000

 Dipole moment (field-independent basis, Debye):
    X=              3.0518    Y=            -10.6579    Z=             -0.6067  Tot=             11.1029
 Quadrupole moment (field-independent basis, Debye-Ang):
   XX=           -164.0811   YY=           -188.9400   ZZ=           -150.8142
   XY=             14.9300   XZ=            -19.6112   YZ=              1.5116

  Exact polarizability: 451.112   2.297 253.263 -19.541   0.765 143.588
 Approx polarizability: 567.324  -2.174 482.604 -32.446  -3.677 239.225

                      1                      2                      3
                      A                      A                      A
 Frequencies --     17.5078                23.8553                27.9409
 Red. masses --      8.3610                 6.9428                 4.7996
 Frc consts  --      0.0015                 0.0023                 0.0022
 IR Inten    --      1.0444                 0.0000                 5.0655

                      4                      5                      6
                      A                      A                      A
 Frequencies --     38.7876                40.2020                67.3614
 Red. masses --      1.5703                 1.4120                 3.7446
 Frc consts  --      0.0014                 0.0013                 0.0100
 IR Inten    --      2.5179                 0.0000                 0.0003

                      7                      8                      9
                      A                      A                      A
 Frequencies --     69.0035                75.9206                81.2107
 Red. masses --      2.0618                 5.1427                 2.7666
 Frc consts  --      0.0058                 0.0175                 0.0108
 IR Inten    --      4.5406                 1.5388                 0.0000

                     10                     11                     12
                      A                      A                      A
 Frequencies --    129.6698               149.6863               161.0865
 Red. masses --      4.7138                 6.4058                 9.9889
 Frc consts  --      0.0467                 0.0846                 0.1527
 IR Inten    --      3.0388                 0.0000                 9.1148

                     13                     14                     15
                      A                      A                      A
 Frequencies --    184.6885               192.4615               224.5767
 Red. masses --      7.4356                 7.1657                 6.0597
 Frc consts  --      0.1494                 0.1564                 0.1801
 IR Inten    --      5.6731                 0.0000                 0.0000

                     16                     17                     18
                      A                      A                      A
 Frequencies --    264.7824               290.1351               309.6589
 Red. masses --      7.0675                 6.0782                 5.2055
 Frc consts  --      0.2919                 0.3015                 0.2941
 IR Inten    --      0.0000                 0.9823                 6.4839

                     19                     20                     21
                      A                      A                      A
 Frequencies --    334.2974               392.2553               393.3054
 Red. masses --      5.8603                 5.9810                 6.9240
 Frc consts  --      0.3859                 0.5422                 0.6311
 IR Inten    --      0.0000                17.1614                 0.0023

                     22                     23                     24
                      A                      A                      A
 Frequencies --    404.2662               407.1562               431.4365
 Red. masses --      6.5975                 5.0338                 3.4674
 Frc consts  --      0.6353                 0.4917                 0.3803
 IR Inten    --      8.9637                 0.0002                 3.1589

                     25                     26                     27
                      A                      A                      A
 Frequencies --    467.3262               472.5222               478.7926
 Red. masses --      3.6717                 4.4115                 8.6317
 Frc consts  --      0.4724                 0.5803                 1.1659
 IR Inten    --      0.0000                 0.0000                 0.0000

                     28                     29                     30
                      A                      A                      A
 Frequencies --    493.6623               543.1641               556.9319
 Red. masses --     10.1549                 4.6677                 4.2726
 Frc consts  --      1.4581                 0.8114                 0.7808
 IR Inten    --      0.0000                19.3530                22.6990

                     31                     32                     33
                      A                      A                      A
 Frequencies --    601.2269               602.2458               605.8548
 Red. masses --      3.3275                 2.8705                 4.0033
 Frc consts  --      0.7087                 0.6134                 0.8658
 IR Inten    --      0.0002                 8.2092                 0.0001

                     34                     35                     36
                      A                      A                      A
 Frequencies --    646.5127               653.6721               676.6038
 Red. masses --      4.6449                 6.3360                 5.4641
 Frc consts  --      1.1439                 1.5951                 1.4738
 IR Inten    --      0.0000                 3.2631                 8.0110

                     37                     38                     39
                      A                      A                      A
 Frequencies --    697.6076               704.6959               716.5057
 Red. masses --      5.8845                 5.7638                 4.6449
 Frc consts  --      1.6873                 1.6864                 1.4050
 IR Inten    --      0.0000                 0.0000                10.6947

                     40                     41                     42
                      A                      A                      A
 Frequencies --    722.3709               759.4509               781.3527
 Red. masses --      5.0279                 6.4446                 2.2573
 Frc consts  --      1.5458                 2.1900                 0.8119
 IR Inten    --     18.8962                11.3607                 0.0000

                     43                     44                     45
                      A                      A                      A
 Frequencies --    803.1982               815.7685               828.2122
 Red. masses --      4.9208                 1.6060                 2.6016
 Frc consts  --      1.8704                 0.6297                 1.0514
 IR Inten    --      0.0000                26.5388                 0.0000

                     46                     47                     48
                      A                      A                      A
 Frequencies --    870.6132               910.2109               912.7913
 Red. masses --      5.2879                 2.4934                 2.8612
 Frc consts  --      2.3615                 1.2171                 1.4046
 IR Inten    --     73.0970                 0.0030                53.0885

                     49                     50                     51
                      A                      A                      A
 Frequencies --    940.4153               941.7058               980.3734
 Red. masses --      2.1841                 2.3758                 1.3214
 Frc consts  --      1.1381                 1.2413                 0.7483
 IR Inten    --     51.5717                 0.0045                 0.0000

                     52                     53                     54
                      A                      A                      A
 Frequencies --    982.5597               989.7073               994.6662
 Red. masses --      1.3324                 2.6970                 3.7366
 Frc consts  --      0.7579                 1.5565                 2.1781
 IR Inten    --      7.4861                 3.1214                 0.0000

                     55                     56                     57
                      A                      A                      A
 Frequencies --   1023.8194              1024.4235              1060.5371
 Red. masses --      1.7403                 1.7024                 1.7810
 Frc consts  --      1.0748                 1.0526                 1.1802
 IR Inten    --      0.0895               262.0464                 8.7186

                     58                     59                     60
                      A                      A                      A
 Frequencies --   1060.5467              1102.3882              1117.8502
 Red. masses --      1.7809                 2.5774                 1.7283
 Frc consts  --      1.1802                 1.8454                 1.2724
 IR Inten    --      2.5655                 8.6028                 0.0000

                     61                     62                     63
                      A                      A                      A
 Frequencies --   1132.0657              1133.6140              1194.5336
 Red. masses --      1.9309                 1.6558                 2.7250
 Frc consts  --      1.4580                 1.2537                 2.2909
 IR Inten    --    234.8274                 0.0328               259.1459

                     64                     65                     66
                      A                      A                      A
 Frequencies --   1210.6641              1216.9100              1217.5874
 Red. masses --      2.9090                 2.6966                 4.8906
 Frc consts  --      2.5121                 2.3528                 4.2718
 IR Inten    --      0.0001                 0.0185                13.3197

                     67                     68                     69
                      A                      A                      A
 Frequencies --   1239.4421              1245.8942              1253.3130
 Red. masses --      3.4022                 4.3989                 1.9453
 Frc consts  --      3.0793                 4.0231                 1.8003
 IR Inten    --   1419.8678                 0.0132               162.4815

                     70                     71                     72
                      A                      A                      A
 Frequencies --   1308.7097              1364.4059              1367.7838
 Red. masses --      2.2880                10.6128                 9.2855
 Frc consts  --      2.3089                11.6404                10.2351
 IR Inten    --      0.0000                39.1401                 0.0002

                     73                     74                     75
                      A                      A                      A
 Frequencies --   1392.3258              1392.6991              1395.7161
 Red. masses --      1.3385                 1.3319                 3.8579
 Frc consts  --      1.5288                 1.5221                 4.4278
 IR Inten    --    193.0132                 0.0258               242.2820

                     76                     77                     78
                      A                      A                      A
 Frequencies --   1464.8692              1465.5588              1473.3752
 Red. masses --      5.2489                 2.7372                 1.0502
 Frc consts  --      6.6361                 3.4639                 1.3433
 IR Inten    --      0.0136               201.1489                 0.0019

                     79                     80                     81
                      A                      A                      A
 Frequencies --   1473.4250              1476.9150              1476.9416
 Red. masses --      1.0537                 1.0470                 1.0486
 Frc consts  --      1.3478                 1.3455                 1.3477
 IR Inten    --     34.4720                15.9511                 0.0062

                     82                     83                     84
                      A                      A                      A
 Frequencies --   1497.1621              1525.4429              1542.0642
 Red. masses --      3.1800                 7.5473                 9.3687
 Frc consts  --      4.1997                10.3474                13.1260
 IR Inten    --      0.0001               645.4567                 0.0012

                     85                     86                     87
                      A                      A                      A
 Frequencies --   1561.7038              1616.0506              1629.7449
 Red. masses --      6.7850                 8.0409                 7.7256
 Frc consts  --      9.7499                12.3728                12.0898
 IR Inten    --     65.2156                 0.0000                 0.0001

                     88                     89                     90
                      A                      A                      A
 Frequencies --   1635.9051              1796.9409              1797.3649
 Red. masses --      7.4224                11.4593                11.4505
 Frc consts  --     11.7034                21.8010                21.7946
 IR Inten    --     88.7735               582.8163                 0.3684

                     91                     92                     93
                      A                      A                      A
 Frequencies --   3045.7676              3045.7777              3106.3512
 Red. masses --      1.0359                 1.0359                 1.0998
 Frc consts  --      5.6618                 5.6619                 6.2526
 IR Inten    --     16.8077                 0.5758                 4.3674

                     94                     95                     96
                      A                      A                      A
 Frequencies --   3106.3547              3147.2457              3147.2637
 Red. masses --      1.0998                 1.1033                 1.1033
 Frc consts  --      6.2526                 6.4389                 6.4390
 IR Inten    --     10.9820                27.9005                 4.3720

                     97                     98                     99
                      A                      A                      A
 Frequencies --   3178.0374              3178.2066              3193.6642
 Red. masses --      1.0868                 1.0869                 1.0945
 Frc consts  --      6.4671                 6.4684                 6.5775
 IR Inten    --      3.7511                 0.0921                31.7924

                    100                    101                    102
                      A                      A                      A
 Frequencies --   3193.7504              3196.7369              3197.0671
 Red. masses --      1.0943                 1.0906                 1.0909
 Frc consts  --      6.5763                 6.5666                 6.5696
 IR Inten    --      1.4601                22.1612                 0.0185

 - Thermochemistry -
 -------------------
 Temperature   298.150 Kelvin.  Pressure   1.00000 Atm.
 Atom     1 has atomic number  6 and mass  12.00000

 Molecular mass:   324.06339 amu.
 Principal axes and moments of inertia in atomic units:
                           1         2         3
     Eigenvalues --  2190.63902********************
           X            0.99804  -0.06126   0.01297
           Y            0.06151   0.99790  -0.02018
           Z           -0.01171   0.02094   0.99971
 This molecule is an asymmetric top.
 Rotational symmetry number  1.
 Warning -- assumption of classical behavior for rotation
           may cause significant error
 Rotational temperatures (Kelvin)      0.03954     0.00440     0.00407
 Rotational constants (GHZ):           0.82384     0.09159     0.08471
 Zero-point vibrational energy     678802.4 (Joules/Mol)
                                  162.23766 (Kcal/Mol)
 Warning -- explicit consideration of  33 degrees of freedom as
           vibrations may cause significant error
 Vibrational temperatures:     25.19    34.32    40.20    55.81    57.84
          (Kelvin)             96.92    99.28   109.23   116.84   186.57
                              215.37   231.77   265.73   276.91   323.12
                              380.96   417.44   445.53   480.98   564.37
                              565.88   581.65   585.81   620.74   672.38
                              679.85   688.88   710.27   781.49   801.30
                              865.03   866.50   871.69   930.19   940.49
                              973.48  1003.70  1013.90  1030.89  1039.33
                             1092.68  1124.19  1155.62  1173.71  1191.61
                             1252.62  1309.59  1313.30  1353.05  1354.90
                             1410.54  1413.68  1423.97  1431.10  1473.05
                             1473.92  1525.88  1525.89  1586.09  1608.34
                             1628.79  1631.02  1718.67  1741.88  1750.86
                             1751.84  1783.28  1792.56  1803.24  1882.94
                             1963.08  1967.94  2003.25  2003.78  2008.12
                             2107.62  2108.61  2119.86  2119.93  2124.95
                             2124.99  2154.08  2194.77  2218.69  2246.94
                             2325.14  2344.84  2353.70  2585.40  2586.01
                             4382.18  4382.19  4469.35  4469.35  4528.18
                             4528.21  4572.49  4572.73  4594.97  4595.09
                             4599.39  4599.87

 Zero-point correction=                           0.258542 (Hartree/Particle)
 Thermal correction to Energy=                    0.279637
 Thermal correction to Enthalpy=                  0.280581
 Thermal correction to Gibbs Free Energy=         0.203857
 Sum of electronic and zero-point Energies=          -1144.656862
 Sum of electronic and thermal Energies=             -1144.635767
 Sum of electronic and thermal Enthalpies=           -1144.634823
 Sum of electronic and thermal Free Energies=        -1144.711547

                     E (Thermal)             CV                S
                      KCal/Mol        Cal/Mol-Kelvin    Cal/Mol-Kelvin
 Total                  175.475             78.098            161.479
 Electronic               0.000              0.000              1.377
 Translational            0.889              2.981             43.223
 Rotational               0.889              2.981             35.174
 Vibrational            173.698             72.136             81.705
 Vibration     1          0.593              1.986              6.898
 Vibration     2          0.593              1.985              6.284
 Vibration     3          0.593              1.984              5.970
 Vibration     4          0.594              1.981              5.320
 Vibration     5          0.594              1.981              5.249
 Vibration     6          0.598              1.970              4.229
 Vibration     7          0.598              1.969              4.182
 Vibration     8          0.599              1.965              3.994
 Vibration     9          0.600              1.962              3.861
 Vibration    10          0.612              1.924              2.951
 Vibration    11          0.618              1.903              2.676
 Vibration    12          0.622              1.890              2.537
 Vibration    13          0.631              1.861              2.280
 Vibration    14          0.634              1.850              2.204
 Vibration    15          0.649              1.804              1.922
 Vibration    16          0.671              1.738              1.630
 Vibration    17          0.686              1.692              1.473
 Vibration    18          0.699              1.655              1.364
 Vibration    19          0.716              1.607              1.239
 Vibration    20          0.760              1.487              0.992
 Vibration    21          0.761              1.484              0.988
 Vibration    22          0.769              1.461              0.947
 Vibration    23          0.772              1.455              0.937
 Vibration    24          0.792              1.402              0.854
 Vibration    25          0.825              1.323              0.745
 Vibration    26          0.829              1.311              0.731
 Vibration    27          0.835              1.297              0.713
 Vibration    28          0.849              1.264              0.674
 Vibration    29          0.898              1.155              0.559
 Vibration    30          0.912              1.125              0.530
 Vibration    31          0.959              1.029              0.448
 Vibration    32          0.961              1.027              0.446
 Vibration    33          0.964              1.019              0.440

                           ! Non-Optimized Parameters !
 Normal termination of Gaussian 16 at Thu Dec 21 12:39:38 2023.
