 Gaussian 16, Revision A.03,
 Gaussian 16:  ES64L-G16RevA.03 25-Dec-2016

 ----------------------------------------------------------------
 #P UB3LYP/6-311++G(d,p) SCRF=(PCM,Solvent=n,n-DiMethylFormamide)
 ----------------------------------------------------------------

 -------
 Reduced
 -------
 Symbolic Z-matrix:
 Charge = -2 Multiplicity = 1

                         Standard orientation:
 ---------------------------------------------------------------------
 Center     Atomic      Atomic             Coordinates (Angstroms)
 Number     Number       Type             X           Y           Z
 ---------------------------------------------------------------------
      1          6           0        2.691040   -1.641832    0.595741
      2          8           0        2.446046   -0.599542   -0.335307
      3          6           0        1.191374    0.019197   -0.189861
      4          6           0        1.198147    1.402753   -0.026261
      5          6           0        0.000966    2.188123    0.054304
      6          8           0        0.001516    3.474734    0.205833
      7          6           0       -1.196891    1.403775   -0.026133
      8          6           0       -1.191284    0.020194   -0.189710
      9          8           0       -2.446621   -0.597348   -0.335122
     10          6           0       -2.692543   -1.639765    0.595530
     11          6           0       -0.000309   -0.776746   -0.316448
     12          8           0       -0.000859   -2.058536   -0.542823
     13          1           0        3.671876   -2.069248    0.348202
     14          1           0        2.732182   -1.244960    1.625448
     15          1           0        1.911836   -2.406572    0.523864
     16          1           0        2.156769    1.912588    0.041206
     17          1           0       -2.155092    1.914400    0.041330
     18          1           0       -2.734391   -1.243101    1.625260
     19          1           0       -3.673265   -2.066956    0.347070
     20          1           0       -1.913586   -2.404808    0.523992
 ---------------------------------------------------------------------

 SCF Done:  E(UB3LYP) =  -610.935034536     A.U. after   16 cycles

 The electronic state is 1-A.
 Alpha  occ. eigenvalues --  -19.11171 -19.11170 -19.01207 -19.00984 -10.18857
 Alpha  occ. eigenvalues --  -10.18856 -10.17462 -10.17461 -10.16884 -10.16482
 Alpha  occ. eigenvalues --  -10.11424 -10.11424  -1.02088  -1.01788  -0.92395
 Alpha  occ. eigenvalues --   -0.91784  -0.77561  -0.71310  -0.67275  -0.64067
 Alpha  occ. eigenvalues --   -0.63383  -0.55217  -0.53192  -0.46873  -0.46408
 Alpha  occ. eigenvalues --   -0.43583  -0.43500  -0.42874  -0.42261  -0.41872
 Alpha  occ. eigenvalues --   -0.39046  -0.35638  -0.35060  -0.33828  -0.32942
 Alpha  occ. eigenvalues --   -0.32330  -0.32047  -0.30766  -0.26953  -0.25469
 Alpha  occ. eigenvalues --   -0.21668  -0.19711  -0.19259  -0.18406  -0.11414
 Alpha virt. eigenvalues --    0.00209   0.01270   0.01647   0.03136   0.03144
 Alpha virt. eigenvalues --    0.03528   0.04130   0.04596   0.04800   0.06496
 Alpha virt. eigenvalues --    0.06724   0.06740   0.07908   0.08216   0.08706

  Beta  occ. eigenvalues --  -19.11171 -19.11170 -19.01207 -19.00984 -10.18857
  Beta  occ. eigenvalues --  -10.18856 -10.17462 -10.17461 -10.16884 -10.16482
  Beta  occ. eigenvalues --  -10.11424 -10.11424  -1.02088  -1.01788  -0.92395
  Beta  occ. eigenvalues --   -0.91784  -0.77561  -0.71310  -0.67275  -0.64067
  Beta  occ. eigenvalues --   -0.63383  -0.55217  -0.53192  -0.46873  -0.46408
  Beta  occ. eigenvalues --   -0.43583  -0.43500  -0.42874  -0.42261  -0.41872
  Beta  occ. eigenvalues --   -0.39046  -0.35638  -0.35060  -0.33828  -0.32942
  Beta  occ. eigenvalues --   -0.32330  -0.32047  -0.30766  -0.26953  -0.25469
  Beta  occ. eigenvalues --   -0.21668  -0.19711  -0.19259  -0.18406  -0.11414
  Beta virt. eigenvalues --    0.00209   0.01270   0.01647   0.03136   0.03144
  Beta virt. eigenvalues --    0.03528   0.04130   0.04596   0.04800   0.06496
  Beta virt. eigenvalues --    0.06724   0.06740   0.07908   0.08216   0.08706

 Mulliken charges and spin densities:
               1          2
     1  C   -0.280578  -0.000000
     2  O   -0.244255  -0.000000
     3  C   -0.753995  -0.000000
     4  C    0.700296   0.000000
     5  C   -0.777042  -0.000000
     6  O   -0.735945  -0.000000
     7  C    0.699952   0.000000
     8  C   -0.753412  -0.000000
     9  O   -0.244278  -0.000000
    10  C   -0.280586  -0.000000
    11  C    0.263880   0.000000
    12  O   -0.726304   0.000000
    13  H    0.129370   0.000000
    14  H    0.111560   0.000000
    15  H    0.176364  -0.000000
    16  H    0.148830   0.000000
    17  H    0.148824  -0.000000
    18  H    0.111565   0.000000
    19  H    0.129363  -0.000000
    20  H    0.176390   0.000000
 Sum of Mulliken charges =  -2.00000   0.00000

 Dipole moment (field-independent basis, Debye):
    X=             -0.0033    Y=             -8.3961    Z=              3.6464  Tot=              9.1537
 Quadrupole moment (field-independent basis, Debye-Ang):
   XX=            -89.7179   YY=           -140.8161   ZZ=            -82.0573
   XY=             -0.0211   XZ=             -0.0018   YZ=             -9.6390

 Normal termination of Gaussian 16 at Wed Jan 24 22:49:46 2024.
