 Gaussian 16, Revision A.03,
 Gaussian 16:  ES64L-G16RevA.03 25-Dec-2016

 ----------------------------------------------------------------
 #P UB3LYP/6-311++G(d,p) SCRF=(PCM,Solvent=n,n-DiMethylFormamide)
 ----------------------------------------------------------------

 -------
 Reduced
 -------
 Symbolic Z-matrix:
 Charge = -2 Multiplicity = 1

                         Standard orientation:
 ---------------------------------------------------------------------
 Center     Atomic      Atomic             Coordinates (Angstroms)
 Number     Number       Type             X           Y           Z
 ---------------------------------------------------------------------
      1          6           0        4.121448    1.482979    0.000254
      2          6           0        2.818831    0.719484   -0.000013
      3          6           0        2.818826   -0.719570   -0.000170
      4          6           0        4.121351   -1.483240   -0.000043
      5          6           0        1.621463   -1.413600   -0.000172
      6          8           0        1.606639   -2.779448   -0.000214
      7          6           0        0.358683   -0.719423   -0.000120
      8          6           0       -0.861246   -1.471566    0.000039
      9          8           0       -0.849908   -2.792643    0.000100
     10          6           0       -2.077605   -0.726485    0.000033
     11          6           0       -3.331454   -1.397025    0.000340
     12          6           0       -4.527573   -0.714101    0.000323
     13          6           0       -4.527643    0.713941   -0.000020
     14          6           0       -3.331548    1.396945   -0.000276
     15          6           0       -2.077674    0.726513   -0.000215
     16          6           0       -0.861327    1.471792   -0.000283
     17          8           0       -0.850160    2.792726   -0.000256
     18          6           0        0.358663    0.719633   -0.000151
     19          6           0        1.621527    1.413566    0.000064
     20          8           0        1.607002    2.779599    0.000431
     21          1           0        3.919473    2.555117   -0.000663
     22          1           0        4.741960    1.252141   -0.879550
     23          1           0        4.740816    1.253528    0.881261
     24          1           0        4.740485   -1.254473    0.881296
     25          1           0        3.919241   -2.555373   -0.001709
     26          1           0        4.742185   -1.251977   -0.879513
     27          1           0        0.582484   -3.005651   -0.000062
     28          1           0       -3.303004   -2.482115    0.000630
     29          1           0       -5.470394   -1.258341    0.000558
     30          1           0       -5.470500    1.258119   -0.000038
     31          1           0       -3.303169    2.482038   -0.000510
     32          1           0        0.583522    3.006047    0.000265
 ---------------------------------------------------------------------

 SCF Done:  E(UB3LYP) =  -918.372486150     A.U. after   15 cycles

 The electronic state is 1-A.
 Alpha  occ. eigenvalues --  -19.08906 -19.08896 -19.04322 -19.04317 -10.19168
 Alpha  occ. eigenvalues --  -10.19166 -10.18473 -10.18470 -10.15287 -10.15246
 Alpha  occ. eigenvalues --  -10.15089 -10.15089 -10.14649 -10.14648 -10.14415
 Alpha  occ. eigenvalues --  -10.14375 -10.14303 -10.14302 -10.14266 -10.14262
 Alpha  occ. eigenvalues --   -1.00898  -1.00725  -0.94806  -0.94566  -0.83252
 Alpha  occ. eigenvalues --   -0.81591  -0.77218  -0.73074  -0.72591  -0.72212
 Alpha  occ. eigenvalues --   -0.68041  -0.66182  -0.62889  -0.59476  -0.59025
 Alpha  occ. eigenvalues --   -0.55612  -0.54142  -0.51007  -0.48848  -0.47561
 Alpha  occ. eigenvalues --   -0.47206  -0.44193  -0.43326  -0.42421  -0.41947
 Alpha  occ. eigenvalues --   -0.40912  -0.40274  -0.39069  -0.38420  -0.38396
 Alpha  occ. eigenvalues --   -0.38392  -0.37983  -0.36934  -0.35751  -0.35602
 Alpha  occ. eigenvalues --   -0.35498  -0.34052  -0.33532  -0.32164  -0.32116
 Alpha  occ. eigenvalues --   -0.31982  -0.31404  -0.30486  -0.26650  -0.23583
 Alpha  occ. eigenvalues --   -0.23066  -0.22608  -0.21302  -0.21055  -0.18005
 Alpha  occ. eigenvalues --   -0.11385
 Alpha virt. eigenvalues --   -0.02218  -0.00228   0.00172   0.00448   0.01393
 Alpha virt. eigenvalues --    0.02222   0.02384   0.03410   0.04156   0.04174
 Alpha virt. eigenvalues --    0.04191   0.04556   0.05601   0.05934   0.06055

  Beta  occ. eigenvalues --  -19.08906 -19.08896 -19.04322 -19.04317 -10.19168
  Beta  occ. eigenvalues --  -10.19166 -10.18473 -10.18470 -10.15287 -10.15246
  Beta  occ. eigenvalues --  -10.15089 -10.15089 -10.14649 -10.14648 -10.14415
  Beta  occ. eigenvalues --  -10.14375 -10.14303 -10.14302 -10.14266 -10.14262
  Beta  occ. eigenvalues --   -1.00898  -1.00725  -0.94806  -0.94566  -0.83252
  Beta  occ. eigenvalues --   -0.81591  -0.77218  -0.73074  -0.72591  -0.72212
  Beta  occ. eigenvalues --   -0.68041  -0.66182  -0.62889  -0.59476  -0.59025
  Beta  occ. eigenvalues --   -0.55612  -0.54142  -0.51007  -0.48848  -0.47561
  Beta  occ. eigenvalues --   -0.47206  -0.44193  -0.43326  -0.42421  -0.41947
  Beta  occ. eigenvalues --   -0.40912  -0.40274  -0.39069  -0.38420  -0.38396
  Beta  occ. eigenvalues --   -0.38392  -0.37983  -0.36934  -0.35751  -0.35602
  Beta  occ. eigenvalues --   -0.35498  -0.34052  -0.33532  -0.32164  -0.32116
  Beta  occ. eigenvalues --   -0.31982  -0.31404  -0.30486  -0.26650  -0.23583
  Beta  occ. eigenvalues --   -0.23066  -0.22608  -0.21302  -0.21055  -0.18005
  Beta  occ. eigenvalues --   -0.11385
  Beta virt. eigenvalues --   -0.02218  -0.00228   0.00172   0.00448   0.01393
  Beta virt. eigenvalues --    0.02222   0.02384   0.03410   0.04156   0.04174
  Beta virt. eigenvalues --    0.04191   0.04556   0.05601   0.05934   0.06055

 Mulliken charges and spin densities:
               1          2
     1  C   -0.548862  -0.000000
     2  C    0.437650  -0.000000
     3  C    0.437396   0.000000
     4  C   -0.549080   0.000000
     5  C   -0.578566  -0.000000
     6  O   -0.540681   0.000000
     7  C    0.388373  -0.000000
     8  C   -0.261169   0.000000
     9  O   -0.665556  -0.000000
    10  C    0.139081  -0.000000
    11  C   -0.103984  -0.000000
    12  C   -0.465368   0.000000
    13  C   -0.465531  -0.000000
    14  C   -0.103811   0.000000
    15  C    0.139252   0.000000
    16  C   -0.262019   0.000000
    17  O   -0.665405   0.000000
    18  C    0.388841   0.000000
    19  C   -0.578104  -0.000000
    20  O   -0.540193  -0.000000
    21  H    0.174404  -0.000000
    22  H    0.140809   0.000000
    23  H    0.140932   0.000000
    24  H    0.140948  -0.000000
    25  H    0.174425   0.000000
    26  H    0.140771  -0.000000
    27  H    0.429449  -0.000000
    28  H    0.152380  -0.000000
    29  H    0.161121   0.000000
    30  H    0.161116  -0.000000
    31  H    0.152373   0.000000
    32  H    0.429007   0.000000
 Sum of Mulliken charges =  -2.00000  -0.00000

 Dipole moment (field-independent basis, Debye):
    X=              2.2537    Y=              0.0010    Z=              0.0009  Tot=              2.2537
 Quadrupole moment (field-independent basis, Debye-Ang):
   XX=           -156.5509   YY=           -186.3400   ZZ=           -128.6734
   XY=              0.0093   XZ=             -0.0011   YZ=             -0.0010

 Normal termination of Gaussian 16 at Tue Jan 16 06:24:03 2024.
