 Gaussian 16, Revision A.03,
 Gaussian 16:  ES64L-G16RevA.03 25-Dec-2016

 ----------------------------------------------------------------
 #P UB3LYP/6-311++G(d,p) SCRF=(PCM,Solvent=n,n-DiMethylFormamide)
 ----------------------------------------------------------------

 ------------------
 Radical PCM in DMF
 ------------------
 Symbolic Z-matrix:
 Charge = -1 Multiplicity = 2

                         Standard orientation:
 ---------------------------------------------------------------------
 Center     Atomic      Atomic             Coordinates (Angstroms)
 Number     Number       Type             X           Y           Z
 ---------------------------------------------------------------------
      1          8           0        0.000022    2.627949    0.273076
      2          6           0       -0.000002    1.361431    0.182616
      3          6           0        1.264123    0.634393    0.065806
      4          6           0        2.465406    1.381792   -0.058681
      5          6           0        3.701594    0.769157   -0.205823
      6          6           0        3.802082   -0.625295   -0.253073
      7          6           0        2.632421   -1.390695   -0.139535
      8          6           0        1.395315   -0.777806    0.033436
      9         16           0       -0.000019   -1.849602    0.322081
     10          6           0       -1.395309   -0.777819    0.033541
     11          6           0       -2.632446   -1.390656   -0.139320
     12          6           0       -3.802110   -0.625265   -0.252977
     13          6           0       -3.701575    0.769173   -0.205965
     14          6           0       -2.465351    1.381798   -0.058871
     15          6           0       -1.264121    0.634438    0.065775
     16          1           0        2.366125    2.459917   -0.028604
     17          1           0        4.596519    1.379729   -0.290577
     18          1           0        4.763136   -1.113781   -0.374651
     19          1           0        2.687694   -2.474828   -0.175872
     20          1           0       -2.687799   -2.474800   -0.175513
     21          1           0       -4.763166   -1.113783   -0.374460
     22          1           0       -4.596450    1.379783   -0.290888
     23          1           0       -2.366101    2.459935   -0.028911
 ---------------------------------------------------------------------

 SCF Done:  E(UB3LYP) =  -973.908780474     A.U. after   20 cycles

 The electronic state is 2-A.
 Alpha  occ. eigenvalues --  -88.85574 -19.05125 -10.20308 -10.20308 -10.20157
 Alpha  occ. eigenvalues --  -10.17041 -10.17041 -10.16991 -10.16991 -10.16559
 Alpha  occ. eigenvalues --  -10.16559 -10.16503 -10.16503 -10.15917 -10.15916
 Alpha  occ. eigenvalues --   -7.94221  -5.90579  -5.90201  -5.89685  -0.97693
 Alpha  occ. eigenvalues --   -0.86813  -0.84916  -0.79491  -0.75548  -0.74580
 Alpha  occ. eigenvalues --   -0.73826  -0.69391  -0.64073  -0.60820  -0.58853
 Alpha  occ. eigenvalues --   -0.57615  -0.53691  -0.51947  -0.47597  -0.45699
 Alpha  occ. eigenvalues --   -0.45544  -0.44970  -0.42393  -0.41702  -0.40777
 Alpha  occ. eigenvalues --   -0.40469  -0.39279  -0.37894  -0.36706  -0.35753
 Alpha  occ. eigenvalues --   -0.34737  -0.34712  -0.32915  -0.31701  -0.30437
 Alpha  occ. eigenvalues --   -0.26016  -0.25013  -0.24961  -0.22640  -0.21124
 Alpha  occ. eigenvalues --   -0.11027
 Alpha virt. eigenvalues --   -0.02270  -0.00981  -0.00919  -0.00171   0.00269
 Alpha virt. eigenvalues --    0.01269   0.02079   0.02157   0.03071   0.04019
 Alpha virt. eigenvalues --    0.04226   0.04454   0.05164   0.05185   0.05953

  Beta  occ. eigenvalues --  -88.85557 -19.04586 -10.20171 -10.20170 -10.19745
  Beta  occ. eigenvalues --  -10.17103 -10.17102 -10.17030 -10.17029 -10.16631
  Beta  occ. eigenvalues --  -10.16631 -10.16296 -10.16296 -10.15719 -10.15719
  Beta  occ. eigenvalues --   -7.94205  -5.90575  -5.90196  -5.89622  -0.96669
  Beta  occ. eigenvalues --   -0.86573  -0.84715  -0.79281  -0.75131  -0.74359
  Beta  occ. eigenvalues --   -0.73596  -0.69220  -0.63403  -0.60612  -0.58680
  Beta  occ. eigenvalues --   -0.57340  -0.53365  -0.51820  -0.47359  -0.45566
  Beta  occ. eigenvalues --   -0.45324  -0.44897  -0.42284  -0.41631  -0.40315
  Beta  occ. eigenvalues --   -0.39766  -0.38822  -0.37736  -0.36175  -0.35487
  Beta  occ. eigenvalues --   -0.34605  -0.32798  -0.32743  -0.31464  -0.29981
  Beta  occ. eigenvalues --   -0.25447  -0.24231  -0.23447  -0.22162  -0.20441
  Beta virt. eigenvalues --   -0.05143  -0.01698  -0.00425  -0.00154  -0.00125
  Beta virt. eigenvalues --    0.00287   0.01272   0.02096   0.02160   0.03124
  Beta virt. eigenvalues --    0.04052   0.04273   0.04559   0.05182   0.05878

 Mulliken charges and spin densities:
               1          2
     1  O   -0.534109   0.210339
     2  C   -0.130870   0.278627
     3  C    1.326993  -0.018959
     4  C    0.231294   0.201408
     5  C   -0.514271  -0.071668
     6  C   -0.297707   0.173264
     7  C   -0.360562  -0.046263
     8  C   -0.818628   0.017496
     9  S   -0.853135   0.038959
    10  C   -0.818819   0.017477
    11  C   -0.360672  -0.046241
    12  C   -0.297602   0.173259
    13  C   -0.514329  -0.071679
    14  C    0.231409   0.201457
    15  C    1.327383  -0.019005
    16  H    0.173760  -0.012103
    17  H    0.169964   0.004209
    18  H    0.171682  -0.012022
    19  H    0.176413   0.000679
    20  H    0.176413   0.000679
    21  H    0.171679  -0.012020
    22  H    0.169963   0.004209
    23  H    0.173751  -0.012103
 Sum of Mulliken charges =  -1.00000   1.00000

 Dipole moment (field-independent basis, Debye):
    X=              0.0000    Y=             -6.3169    Z=             -1.0726  Tot=              6.4073
 Quadrupole moment (field-independent basis, Debye-Ang):
   XX=           -101.4160   YY=           -117.3008   ZZ=           -105.2361
   XY=              0.0001   XZ=              0.0000   YZ=             -1.6653

 Normal termination of Gaussian 16 at Sat Jan 13 19:18:38 2024.
