 Gaussian 16, Revision A.03,
 Gaussian 16:  ES64L-G16RevA.03 25-Dec-2016

 --------------------------------------
 #P UB3LYP/6-311++G(d,p) nosym opt freq
 --------------------------------------

 -------
 Radical
 -------
 Symbolic Z-matrix:
 Charge = -1 Multiplicity = 2

 SCF Done:  E(UB3LYP) =  -973.832839937     A.U. after   23 cycles
 SCF Done:  E(UB3LYP) =  -973.832841524     A.U. after   13 cycles
 SCF Done:  E(UB3LYP) =  -973.832842238     A.U. after   13 cycles
 SCF Done:  E(UB3LYP) =  -973.832842813     A.U. after   13 cycles
 SCF Done:  E(UB3LYP) =  -973.832845109     A.U. after   14 cycles
 SCF Done:  E(UB3LYP) =  -973.801594453     A.U. after   20 cycles
 SCF Done:  E(UB3LYP) =  -973.832867948     A.U. after   15 cycles
 SCF Done:  E(UB3LYP) =  -973.805544880     A.U. after   21 cycles
 SCF Done:  E(UB3LYP) =  -973.832741786     A.U. after   24 cycles
 SCF Done:  E(UB3LYP) =  -973.833058718     A.U. after   17 cycles
 SCF Done:  E(UB3LYP) =  -973.833057263     A.U. after   18 cycles
 SCF Done:  E(UB3LYP) =  -973.833130706     A.U. after   18 cycles
 SCF Done:  E(UB3LYP) =  -973.833137112     A.U. after   16 cycles
 SCF Done:  E(UB3LYP) =  -973.833138352     A.U. after   13 cycles
 SCF Done:  E(UB3LYP) =  -973.833138529     A.U. after   12 cycles
 Optimization completed.
    -- Stationary point found.
 Normal termination of Gaussian 16 at Fri Jan 12 20:34:20 2024.

 ----------------------------------------------------------------------
 #P Geom=AllCheck Guess=TCheck SCRF=Check GenChk UB3LYP/6-311++G(d,p) F
 req
 ----------------------------------------------------------------------

 Structure from the checkpoint file:  "337-rad.chk"
 -------
 Radical
 -------
 Charge = -1 Multiplicity = 2

                          Input orientation:
 ---------------------------------------------------------------------
 Center     Atomic      Atomic             Coordinates (Angstroms)
 Number     Number       Type             X           Y           Z
 ---------------------------------------------------------------------
      1          8           0       -0.112953   -2.462875    0.609643
      2          6           0       -0.047275   -1.213419    0.393321
      3          6           0       -1.271941   -0.416717    0.317820
      4          6           0       -2.521388   -1.089483    0.376569
      5          6           0       -3.727902   -0.411159    0.279957
      6          6           0       -3.750469    0.976241    0.102641
      7          6           0       -2.532434    1.667995    0.034067
      8          6           0       -1.322556    0.991789    0.156219
      9         16           0        0.154432    1.989084    0.210356
     10          6           0        1.450487    0.802922   -0.093071
     11          6           0        2.699261    1.311612   -0.436226
     12          6           0        3.805794    0.461512   -0.576832
     13          6           0        3.628584   -0.912289   -0.381788
     14          6           0        2.378267   -1.423257   -0.064270
     15          6           0        1.240360   -0.587895    0.091850
     16          1           0       -2.483104   -2.164224    0.505336
     17          1           0       -4.661099   -0.965016    0.337016
     18          1           0       -4.688424    1.515037    0.019190
     19          1           0       -2.527233    2.745136   -0.105437
     20          1           0        2.814406    2.381289   -0.585475
     21          1           0        4.777843    0.870246   -0.831967
     22          1           0        4.473884   -1.587348   -0.484844
     23          1           0        2.219260   -2.484583    0.082125
 ---------------------------------------------------------------------

 SCF Done:  E(UB3LYP) =  -973.833138529     A.U. after    1 cycles

 Alpha  occ. eigenvalues --  -88.73416 -18.91659 -10.08145 -10.08145 -10.07146
 Alpha  occ. eigenvalues --  -10.05182 -10.05182 -10.04868 -10.04868 -10.04785
 Alpha  occ. eigenvalues --  -10.04785 -10.04533 -10.04532 -10.03598 -10.03598
 Alpha  occ. eigenvalues --   -7.82062  -5.78423  -5.78051  -5.77517  -0.84128
 Alpha  occ. eigenvalues --   -0.74544  -0.72786  -0.67439  -0.63215  -0.62515
 Alpha  occ. eigenvalues --   -0.61729  -0.57294  -0.51934  -0.48821  -0.46851
 Alpha  occ. eigenvalues --   -0.45400  -0.41747  -0.40002  -0.35627  -0.33746
 Alpha  occ. eigenvalues --   -0.33616  -0.33127  -0.30409  -0.29778  -0.28385
 Alpha  occ. eigenvalues --   -0.28005  -0.26522  -0.25996  -0.24463  -0.23388
 Alpha  occ. eigenvalues --   -0.22756  -0.21625  -0.20921  -0.19505  -0.18246
 Alpha  occ. eigenvalues --   -0.13819  -0.12746  -0.12282  -0.09001  -0.08764
 Alpha  occ. eigenvalues --    0.01821
 Alpha virt. eigenvalues --    0.08356   0.08400   0.09740   0.09852   0.10346
 Alpha virt. eigenvalues --    0.10980   0.11015   0.11181   0.12048   0.13224
 Alpha virt. eigenvalues --    0.14882   0.14912   0.15218   0.15561   0.16304

  Beta  occ. eigenvalues --  -88.73403 -18.91051 -10.08037 -10.08036 -10.06831
  Beta  occ. eigenvalues --  -10.05199 -10.05199 -10.04881 -10.04881 -10.04633
  Beta  occ. eigenvalues --  -10.04633 -10.04559 -10.04558 -10.03409 -10.03409
  Beta  occ. eigenvalues --   -7.82050  -5.78421  -5.78047  -5.77468  -0.83036
  Beta  occ. eigenvalues --   -0.74303  -0.72581  -0.67239  -0.62790  -0.62305
  Beta  occ. eigenvalues --   -0.61479  -0.57135  -0.51292  -0.48614  -0.46668
  Beta  occ. eigenvalues --   -0.45148  -0.41439  -0.39886  -0.35396  -0.33614
  Beta  occ. eigenvalues --   -0.33384  -0.33067  -0.30294  -0.29712  -0.28234
  Beta  occ. eigenvalues --   -0.27215  -0.26267  -0.25693  -0.23921  -0.23001
  Beta  occ. eigenvalues --   -0.22623  -0.20796  -0.19623  -0.19237  -0.17824
  Beta  occ. eigenvalues --   -0.13289  -0.11901  -0.10673  -0.08446  -0.07933
  Beta virt. eigenvalues --    0.07506   0.08346   0.08385   0.09825   0.10204
  Beta virt. eigenvalues --    0.10469   0.11174   0.11409   0.11853   0.12122
  Beta virt. eigenvalues --    0.13210   0.14886   0.15017   0.15284   0.15584

 Mulliken charges and spin densities:
               1          2
     1  O   -0.404003   0.237095
     2  C   -0.276843   0.206789
     3  C    1.469216   0.009177
     4  C    0.237219   0.196701
     5  C   -0.472565  -0.067811
     6  C   -0.235835   0.177632
     7  C   -0.411052  -0.031042
     8  C   -0.798176  -0.003126
     9  S   -0.950311   0.033966
    10  C   -0.798160  -0.003124
    11  C   -0.411105  -0.031065
    12  C   -0.235737   0.177617
    13  C   -0.472654  -0.067808
    14  C    0.237572   0.196690
    15  C    1.469300   0.009192
    16  H    0.174588  -0.011781
    17  H    0.114920   0.004160
    18  H    0.113078  -0.012427
    19  H    0.123978  -0.000394
    20  H    0.123983  -0.000393
    21  H    0.113076  -0.012425
    22  H    0.114922   0.004159
    23  H    0.174587  -0.011780
 Sum of Mulliken charges =  -1.00000   1.00000

 Dipole moment (field-independent basis, Debye):
    X=              0.1002    Y=              3.3246    Z=             -1.4048  Tot=              3.6106
 Quadrupole moment (field-independent basis, Debye-Ang):
   XX=           -116.7489   YY=           -115.6857   ZZ=           -105.9849
   XY=              0.3065   XZ=              1.1500   YZ=              2.5079

  Exact polarizability: 398.599 -14.352 201.746 -26.849  -7.876 109.436
 Approx polarizability: 638.889 -20.756 366.919 -43.640 -20.660 174.622

                      1                      2                      3
                      A                      A                      A
 Frequencies --     34.7370               102.1075               138.7993
 Red. masses --      7.7679                 3.8608                 5.4856
 Frc consts  --      0.0055                 0.0237                 0.0623
 IR Inten    --      2.2417                 0.5811                 1.9138

                      4                      5                      6
                      A                      A                      A
 Frequencies --    187.4421               231.8753               231.9773
 Red. masses --      6.6561                 5.1507                 5.3450
 Frc consts  --      0.1378                 0.1632                 0.1695
 IR Inten    --      0.0283                 0.6543                 4.2906

                      7                      8                      9
                      A                      A                      A
 Frequencies --    314.8338               332.3242               380.3506
 Red. masses --      6.7183                 7.0562                 4.2831
 Frc consts  --      0.3923                 0.4591                 0.3651
 IR Inten    --      0.2028                 2.9083                 1.4535

                     10                     11                     12
                      A                      A                      A
 Frequencies --    410.5420               434.4555               444.0309
 Red. masses --      9.0248                10.3355                 3.3182
 Frc consts  --      0.8962                 1.1494                 0.3855
 IR Inten    --      3.0275                 1.1345                 0.2940

                     13                     14                     15
                      A                      A                      A
 Frequencies --    467.2429               498.2281               505.9177
 Red. masses --     10.9300                 5.0379                 4.6363
 Frc consts  --      1.4059                 0.7368                 0.6992
 IR Inten    --      0.7351                 2.8056                 0.1594

                     16                     17                     18
                      A                      A                      A
 Frequencies --    586.1653               624.8764               631.0512
 Red. masses --      6.6446                 4.3281                 6.9771
 Frc consts  --      1.3451                 0.9957                 1.6370
 IR Inten    --      0.3456                25.2401                 1.1665

                     19                     20                     21
                      A                      A                      A
 Frequencies --    672.6316               702.0966               707.8145
 Red. masses --      6.2902                 5.0165                 1.4014
 Frc consts  --      1.6767                 1.4570                 0.4137
 IR Inten    --      0.2241                 2.7445               114.2607

                     22                     23                     24
                      A                      A                      A
 Frequencies --    711.7914               724.5596               738.8884
 Red. masses --      1.2112                 6.9406                 3.5166
 Frc consts  --      0.3616                 2.1468                 1.1312
 IR Inten    --      0.4845                15.8491                 8.1459

                     25                     26                     27
                      A                      A                      A
 Frequencies --    778.4264               835.3630               837.6585
 Red. masses --      6.5938                 1.3567                 1.4270
 Frc consts  --      2.3541                 0.5578                 0.5899
 IR Inten    --      7.3372                 0.2675                 6.5584

                     28                     29                     30
                      A                      A                      A
 Frequencies --    880.2987               882.1833               928.5156
 Red. masses --      1.3249                 1.3071                 6.5540
 Frc consts  --      0.6049                 0.5994                 3.3291
 IR Inten    --      8.4695                 0.1828                 1.6304

                     31                     32                     33
                      A                      A                      A
 Frequencies --    957.5492               957.7318              1032.8929
 Red. masses --      1.2691                 1.2721                 3.8940
 Frc consts  --      0.6856                 0.6875                 2.4477
 IR Inten    --      0.3108                 2.2102               438.1809

                     34                     35                     36
                      A                      A                      A
 Frequencies --   1039.5977              1061.3108              1072.1098
 Red. masses --      2.9760                 2.6154                 3.9448
 Frc consts  --      1.8950                 1.7357                 2.6715
 IR Inten    --      1.6662                19.0746                15.6293

                     37                     38                     39
                      A                      A                      A
 Frequencies --   1100.5991              1117.1819              1153.4273
 Red. masses --      1.6823                 1.6781                 1.2049
 Frc consts  --      1.2007                 1.2340                 0.9445
 IR Inten    --    225.5711                 9.8984                10.4270

                     40                     41                     42
                      A                      A                      A
 Frequencies --   1160.9404              1183.1503              1236.0664
 Red. masses --      1.1317                 2.9440                 2.0374
 Frc consts  --      0.8987                 2.4281                 1.8341
 IR Inten    --      0.4514                 0.9807               234.7016

                     43                     44                     45
                      A                      A                      A
 Frequencies --   1265.5807              1269.4926              1329.6375
 Red. masses --      2.9316                 1.6143                 6.8820
 Frc consts  --      2.7665                 1.5328                 7.1685
 IR Inten    --    347.9325                 2.1695                22.0713

                     46                     47                     48
                      A                      A                      A
 Frequencies --   1341.6329              1427.9610              1451.4631
 Red. masses --      6.1425                 1.9744                 2.3903
 Frc consts  --      6.5142                 2.3720                 2.9670
 IR Inten    --      0.5035               214.5001                 8.2568

                     49                     50                     51
                      A                      A                      A
 Frequencies --   1458.4288              1469.2972              1508.8754
 Red. masses --      2.6125                 2.8021                 5.6308
 Frc consts  --      3.2740                 3.5641                 7.5532
 IR Inten    --     38.3659                47.2970               241.3004

                     52                     53                     54
                      A                      A                      A
 Frequencies --   1535.4643              1556.7158              1556.7382
 Red. masses --      4.1619                 4.9303                 4.9518
 Frc consts  --      5.7813                 7.0395                 7.0704
 IR Inten    --     68.3462               141.1669               137.6984

                     55                     56                     57
                      A                      A                      A
 Frequencies --   1614.6083              3131.2024              3131.7315
 Red. masses --      5.9500                 1.0843                 1.0846
 Frc consts  --      9.1390                 6.2634                 6.2676
 IR Inten    --      4.4210                44.5098                 8.7754

                     58                     59                     60
                      A                      A                      A
 Frequencies --   3141.2004              3141.3033              3165.2141
 Red. masses --      1.0886                 1.0885                 1.0944
 Frc consts  --      6.3285                 6.3285                 6.4603
 IR Inten    --     47.8615                22.2962                82.7780

                     61                     62                     63
                      A                      A                      A
 Frequencies --   3165.5639              3190.6808              3191.1362
 Red. masses --      1.0945                 1.0904                 1.0907
 Frc consts  --      6.4617                 6.5407                 6.5441
 IR Inten    --     15.9441                 8.7021                 4.8743

 - Thermochemistry -
 -------------------
 Temperature   298.150 Kelvin.  Pressure   1.00000 Atm.
 Atom     1 has atomic number  8 and mass  15.99491

 Molecular mass:   212.02959 amu.
 Principal axes and moments of inertia in atomic units:
                           1         2         3
     Eigenvalues --  1505.595784270.479955714.32770
           X            0.99370   0.05884   0.09543
           Y           -0.06769   0.99342   0.09234
           Z           -0.08937  -0.09821   0.99114
 This molecule is an asymmetric top.
 Rotational symmetry number  1.
 Warning -- assumption of classical behavior for rotation
           may cause significant error
 Rotational temperatures (Kelvin)      0.05753     0.02028     0.01516
 Rotational constants (GHZ):           1.19869     0.42261     0.31583
 Zero-point vibrational energy     437077.6 (Joules/Mol)
                                  104.46406 (Kcal/Mol)
 Warning -- explicit consideration of  16 degrees of freedom as
           vibrations may cause significant error
 Vibrational temperatures:     49.98   146.91   199.70   269.69   333.62
          (Kelvin)            333.76   452.98   478.14   547.24   590.68
                              625.08   638.86   672.26   716.84   727.90
                              843.36   899.06   907.94   967.77  1010.16
                             1018.39  1024.11  1042.48  1063.10  1119.98
                             1201.90  1205.20  1266.55  1269.27  1335.93
                             1377.70  1377.96  1486.10  1495.75  1526.99
                             1542.53  1583.52  1607.38  1659.52  1670.33
                             1702.29  1778.42  1820.89  1826.52  1913.05
                             1930.31  2054.52  2088.33  2098.35  2113.99
                             2170.94  2209.19  2239.77  2239.80  2323.06
                             4505.10  4505.86  4519.49  4519.63  4554.04
                             4554.54  4590.68  4591.33

 Zero-point correction=                           0.166474 (Hartree/Particle)
 Thermal correction to Energy=                    0.177741
 Thermal correction to Enthalpy=                  0.178685
 Thermal correction to Gibbs Free Energy=         0.128118
 Sum of electronic and zero-point Energies=           -973.666664
 Sum of electronic and thermal Energies=              -973.655397
 Sum of electronic and thermal Enthalpies=            -973.654453
 Sum of electronic and thermal Free Energies=         -973.705021

                     E (Thermal)             CV                S
                      KCal/Mol        Cal/Mol-Kelvin    Cal/Mol-Kelvin
 Total                  111.534             46.130            106.428
 Electronic               0.000              0.000              1.377
 Translational            0.889              2.981             41.958
 Rotational               0.889              2.981             31.974
 Vibrational            109.757             40.169             31.118
 Vibration     1          0.594              1.983              5.539
 Vibration     2          0.604              1.947              3.414
 Vibration     3          0.614              1.915              2.820
 Vibration     4          0.632              1.857              2.253
 Vibration     5          0.653              1.792              1.864
 Vibration     6          0.653              1.792              1.864
 Vibration     7          0.702              1.645              1.337
 Vibration     8          0.714              1.611              1.249
 Vibration     9          0.750              1.512              1.038
 Vibration    10          0.775              1.447              0.925
 Vibration    11          0.795              1.395              0.844
 Vibration    12          0.804              1.374              0.814
 Vibration    13          0.825              1.323              0.745
 Vibration    14          0.854              1.254              0.663
 Vibration    15          0.861              1.237              0.643
 Vibration    16          0.943              1.061              0.474

 Optimization completed.
    -- Stationary point found.
 Normal termination of Gaussian 16 at Fri Jan 12 21:19:50 2024.
