 Gaussian 16, Revision A.03,
 Gaussian 16:  ES64L-G16RevA.03 25-Dec-2016

 ----------------------------------------------------------------
 #P UB3LYP/6-311++G(d,p) SCRF=(PCM,Solvent=n,n-DiMethylFormamide)
 ----------------------------------------------------------------

 -------
 Reduced
 -------
 Symbolic Z-matrix:
 Charge = -2 Multiplicity = 1

                         Standard orientation:
 ---------------------------------------------------------------------
 Center     Atomic      Atomic             Coordinates (Angstroms)
 Number     Number       Type             X           Y           Z
 ---------------------------------------------------------------------
      1          6           0       -1.652619   -1.047777    0.000034
      2          6           0       -2.833549   -0.316931   -0.000416
      3          6           0       -2.831073    1.101729   -0.000581
      4          6           0       -0.378554   -0.380981   -0.000047
      5          6           0       -0.387683    1.080043   -0.000016
      6          6           0       -1.624599    1.767199   -0.000272
      7          6           0        0.882915   -1.114062   -0.000233
      8          6           0        2.053280   -0.302226    0.000097
      9          6           0        2.017622    1.105581    0.000357
     10          6           0        0.833376    1.879545    0.000224
     11          8           0        0.968694   -2.414928   -0.000911
     12          8           0        0.815861    3.177759    0.000462
     13          6           0       -1.772487   -2.560672    0.001136
     14          1           0       -3.782459   -0.853794   -0.000316
     15          6           0        3.376955   -1.023465   -0.000192
     16          1           0        2.959614    1.658161    0.000589
     17          1           0       -1.564353    2.851709   -0.000296
     18          1           0       -3.772846    1.650129   -0.000897
     19          1           0       -2.836255   -2.845328    0.000491
     20          1           0       -1.273658   -3.002631    0.866240
     21          1           0       -1.271699   -3.004368   -0.861854
     22          1           0        3.475041   -1.685671   -0.873985
     23          1           0        3.475138   -1.686502    0.872962
     24          1           0        4.213530   -0.312247    0.000129
 ---------------------------------------------------------------------

 SCF Done:  E(UB3LYP) =  -614.151838877     A.U. after   18 cycles

 The electronic state is 1-A.
 Alpha  occ. eigenvalues --  -19.01069 -19.00378 -10.16261 -10.16051 -10.15497
 Alpha  occ. eigenvalues --  -10.14305 -10.13938 -10.13731 -10.13682 -10.13672
 Alpha  occ. eigenvalues --  -10.13612 -10.13086 -10.12063 -10.11274  -0.92278
 Alpha  occ. eigenvalues --   -0.91661  -0.81986  -0.76618  -0.74007  -0.71483
 Alpha  occ. eigenvalues --   -0.66216  -0.65845  -0.61710  -0.57050  -0.55471
 Alpha  occ. eigenvalues --   -0.50136  -0.46914  -0.45592  -0.43147  -0.41131
 Alpha  occ. eigenvalues --   -0.39563  -0.39342  -0.38393  -0.37456  -0.36639
 Alpha  occ. eigenvalues --   -0.35174  -0.34832  -0.34778  -0.34306  -0.32609
 Alpha  occ. eigenvalues --   -0.30603  -0.30365  -0.30094  -0.29598  -0.21876
 Alpha  occ. eigenvalues --   -0.21418  -0.20335  -0.19084  -0.18066  -0.10465
 Alpha virt. eigenvalues --    0.00014   0.00257   0.00966   0.01369   0.01417
 Alpha virt. eigenvalues --    0.02747   0.03018   0.03461   0.04648   0.05101
 Alpha virt. eigenvalues --    0.05639   0.05909   0.06450   0.07238   0.08050

  Beta  occ. eigenvalues --  -19.01069 -19.00378 -10.16261 -10.16051 -10.15497
  Beta  occ. eigenvalues --  -10.14305 -10.13938 -10.13731 -10.13682 -10.13672
  Beta  occ. eigenvalues --  -10.13612 -10.13086 -10.12063 -10.11274  -0.92278
  Beta  occ. eigenvalues --   -0.91661  -0.81986  -0.76618  -0.74007  -0.71483
  Beta  occ. eigenvalues --   -0.66216  -0.65845  -0.61710  -0.57050  -0.55471
  Beta  occ. eigenvalues --   -0.50136  -0.46914  -0.45592  -0.43147  -0.41131
  Beta  occ. eigenvalues --   -0.39563  -0.39342  -0.38393  -0.37456  -0.36639
  Beta  occ. eigenvalues --   -0.35174  -0.34832  -0.34778  -0.34306  -0.32609
  Beta  occ. eigenvalues --   -0.30603  -0.30365  -0.30094  -0.29598  -0.21876
  Beta  occ. eigenvalues --   -0.21418  -0.20335  -0.19084  -0.18066  -0.10465
  Beta virt. eigenvalues --    0.00014   0.00257   0.00966   0.01369   0.01417
  Beta virt. eigenvalues --    0.02747   0.03018   0.03461   0.04648   0.05101
  Beta virt. eigenvalues --    0.05639   0.05909   0.06450   0.07238   0.08050

 Mulliken charges and spin densities:
               1          2
     1  C    0.566828   0.000000
     2  C   -0.530476   0.000000
     3  C   -0.497492  -0.000000
     4  C    0.470297   0.000000
     5  C    0.505167   0.000000
     6  C   -0.134493   0.000000
     7  C   -0.905543  -0.000000
     8  C    0.544691  -0.000000
     9  C   -0.360182   0.000000
    10  C   -0.793592  -0.000000
    11  O   -0.659365   0.000000
    12  O   -0.719201   0.000000
    13  C   -0.460328  -0.000000
    14  H    0.099761   0.000000
    15  C   -0.337138  -0.000000
    16  H    0.090335   0.000000
    17  H    0.142084   0.000000
    18  H    0.159628  -0.000000
    19  H    0.123671   0.000000
    20  H    0.144493  -0.000000
    21  H    0.144606  -0.000000
    22  H    0.137377  -0.000000
    23  H    0.137388  -0.000000
    24  H    0.131484  -0.000000
 Sum of Mulliken charges =  -2.00000  -0.00000

 Dipole moment (field-independent basis, Debye):
    X=             -5.7520    Y=             -4.5780    Z=              0.0020  Tot=              7.3514
 Quadrupole moment (field-independent basis, Debye-Ang):
   XX=           -107.9662   YY=           -153.7719   ZZ=            -94.4024
   XY=             -0.8301   XZ=             -0.0004   YZ=             -0.0156

 Normal termination of Gaussian 16 at Sun Jan 21 08:48:00 2024.
