 Gaussian 16, Revision A.03,
 Gaussian 16:  ES64L-G16RevA.03 25-Dec-2016

 ----------------------------------------------------------------------
 #P UB3LYP/6-311++G(d,p) nosym opt freq SCRF=(PCM,Solvent=n,n-DiMethylF
 ormamide)
 ----------------------------------------------------------------------

 -------
 Reduced
 -------
 Symbolic Z-matrix:
 Charge = -2 Multiplicity = 1

 SCF Done:  E(UB3LYP) =  -751.776700667     A.U. after   18 cycles
 SCF Done:  E(UB3LYP) =  -751.778458361     A.U. after   15 cycles
 SCF Done:  E(UB3LYP) =  -751.778728171     A.U. after   14 cycles
 SCF Done:  E(UB3LYP) =  -751.778702263     A.U. after   13 cycles
 SCF Done:  E(UB3LYP) =  -751.779188528     A.U. after   13 cycles
 SCF Done:  E(UB3LYP) =  -751.779255140     A.U. after   14 cycles
 SCF Done:  E(UB3LYP) =  -751.779281826     A.U. after   12 cycles
 SCF Done:  E(UB3LYP) =  -751.779299219     A.U. after   12 cycles
 SCF Done:  E(UB3LYP) =  -751.779305259     A.U. after   12 cycles
 SCF Done:  E(UB3LYP) =  -751.779306421     A.U. after   11 cycles
 SCF Done:  E(UB3LYP) =  -751.779306751     A.U. after   11 cycles
 SCF Done:  E(UB3LYP) =  -751.779306865     A.U. after   10 cycles
 Optimization completed.
    -- Stationary point found.
 Normal termination of Gaussian 16 at Sat Feb 10 14:17:46 2024.

 ----------------------------------------------------------------------
 #P Geom=AllCheck Guess=TCheck SCRF=Check GenChk UB3LYP/6-311++G(d,p) F
 req
 ----------------------------------------------------------------------

 Structure from the checkpoint file:  "106-an.chk"
 -------
 Reduced
 -------
 Charge = -2 Multiplicity = 1

                          Input orientation:
 ---------------------------------------------------------------------
 Center     Atomic      Atomic             Coordinates (Angstroms)
 Number     Number       Type             X           Y           Z
 ---------------------------------------------------------------------
      1          6           0       -1.008711   -1.879424    3.539785
      2          6           0        0.093832   -2.484830    2.863300
      3          6           0        0.136670   -2.490079    1.451144
      4          6           0       -0.871264   -1.937792    0.620109
      5          6           0       -1.968215   -1.353519    1.310824
      6          6           0       -2.032490   -1.304516    2.706526
      7          8           0       -1.154939   -1.825106    4.857963
      8          8           0       -0.805649   -1.970510   -0.701962
      9          7           0       -3.144382   -0.775524    3.430006
     10          6           0       -3.622285    0.624943    3.265027
     11          6           0       -4.454315    0.937059    4.521503
     12          6           0       -4.536045    0.765875    2.033641
     13          6           0       -2.458767    1.633642    3.165061
     14          1           0       -2.780504   -0.951460    0.713474
     15          1           0       -2.864896   -0.913416    4.404217
     16          1           0       -3.840458    0.863162    5.425003
     17          1           0       -5.287158    0.234161    4.616695
     18          1           0       -4.863718    1.949708    4.474006
     19          1           0       -5.331783    0.016174    2.061397
     20          1           0       -3.983088    0.644242    1.101468
     21          1           0       -4.998335    1.758111    2.018050
     22          1           0       -1.830944    1.586327    4.060034
     23          1           0       -2.836634    2.656407    3.066210
     24          1           0       -1.831231    1.415632    2.297934
     25          6           0        1.233905   -3.130848    3.683376
     26          6           0        0.663724   -4.276530    4.553617
     27          6           0        2.352726   -3.732105    2.809612
     28          6           0        1.888212   -2.071605    4.602077
     29          1           0        0.978966   -2.946291    0.941126
     30          1           0       -0.140872   -3.897639    5.184508
     31          1           0        1.446795   -4.709468    5.188796
     32          1           0        0.267028   -5.077223    3.919715
     33          1           0        1.981211   -4.524851    2.153857
     34          1           0        3.121344   -4.169318    3.456127
     35          1           0        2.836828   -2.976553    2.183887
     36          1           0        1.131385   -1.615587    5.240686
     37          1           0        2.364122   -1.286650    4.003948
     38          1           0        2.662763   -2.528222    5.231006
 ---------------------------------------------------------------------

 SCF Done:  E(UB3LYP) =  -751.779306865     A.U. after    2 cycles

 Alpha  occ. eigenvalues --  -19.00416 -19.00331 -14.26990 -10.19619 -10.15965
 Alpha  occ. eigenvalues --  -10.15601 -10.15171 -10.14760 -10.14704 -10.14328
 Alpha  occ. eigenvalues --  -10.14212 -10.13757 -10.13011 -10.13009 -10.12212
 Alpha  occ. eigenvalues --  -10.10593 -10.10329  -0.91778  -0.90333  -0.87554
 Alpha  occ. eigenvalues --   -0.79635  -0.77502  -0.74178  -0.68201  -0.67448
 Alpha  occ. eigenvalues --   -0.66871  -0.66340  -0.65963  -0.62859  -0.57186
 Alpha  occ. eigenvalues --   -0.54376  -0.51435  -0.49333  -0.45830  -0.44642
 Alpha  occ. eigenvalues --   -0.43292  -0.42817  -0.42288  -0.41512  -0.41275
 Alpha  occ. eigenvalues --   -0.40393  -0.39336  -0.38212  -0.37336  -0.36709
 Alpha  occ. eigenvalues --   -0.36536  -0.35592  -0.34836  -0.34524  -0.34134
 Alpha  occ. eigenvalues --   -0.33605  -0.32686  -0.32503  -0.32045  -0.30841
 Alpha  occ. eigenvalues --   -0.30650  -0.30200  -0.29340  -0.28572  -0.24614
 Alpha  occ. eigenvalues --   -0.20668  -0.18614  -0.18289  -0.17376  -0.10733
 Alpha virt. eigenvalues --   -0.00256   0.00530   0.01527   0.01745   0.02394
 Alpha virt. eigenvalues --    0.02644   0.02842   0.03419   0.03932   0.04113
 Alpha virt. eigenvalues --    0.04252   0.04392   0.04975   0.05272   0.06057

  Beta  occ. eigenvalues --  -19.00416 -19.00331 -14.26990 -10.19619 -10.15965
  Beta  occ. eigenvalues --  -10.15601 -10.15171 -10.14760 -10.14704 -10.14328
  Beta  occ. eigenvalues --  -10.14212 -10.13757 -10.13011 -10.13009 -10.12212
  Beta  occ. eigenvalues --  -10.10593 -10.10329  -0.91778  -0.90333  -0.87554
  Beta  occ. eigenvalues --   -0.79635  -0.77502  -0.74178  -0.68201  -0.67448
  Beta  occ. eigenvalues --   -0.66871  -0.66340  -0.65963  -0.62859  -0.57186
  Beta  occ. eigenvalues --   -0.54376  -0.51435  -0.49333  -0.45830  -0.44642
  Beta  occ. eigenvalues --   -0.43292  -0.42817  -0.42288  -0.41512  -0.41275
  Beta  occ. eigenvalues --   -0.40393  -0.39336  -0.38212  -0.37336  -0.36709
  Beta  occ. eigenvalues --   -0.36536  -0.35592  -0.34836  -0.34524  -0.34134
  Beta  occ. eigenvalues --   -0.33605  -0.32686  -0.32503  -0.32045  -0.30841
  Beta  occ. eigenvalues --   -0.30650  -0.30200  -0.29340  -0.28572  -0.24614
  Beta  occ. eigenvalues --   -0.20668  -0.18614  -0.18289  -0.17376  -0.10733
  Beta virt. eigenvalues --   -0.00256   0.00530   0.01527   0.01745   0.02394
  Beta virt. eigenvalues --    0.02644   0.02842   0.03419   0.03932   0.04113
  Beta virt. eigenvalues --    0.04252   0.04392   0.04975   0.05272   0.06057

 Mulliken charges and spin densities:
               1          2
     1  C   -1.537714   0.000000
     2  C    1.127506  -0.000000
     3  C   -0.580196  -0.000000
     4  C   -0.477609   0.000000
     5  C    0.456860   0.000000
     6  C    0.138519  -0.000000
     7  O   -0.661164  -0.000000
     8  O   -0.773892   0.000000
     9  N    0.017237   0.000000
    10  C    0.031592  -0.000000
    11  C   -0.517547  -0.000000
    12  C   -0.507597  -0.000000
    13  C   -0.534699   0.000000
    14  H    0.126814   0.000000
    15  H    0.285259  -0.000000
    16  H    0.142495   0.000000
    17  H    0.144118  -0.000000
    18  H    0.137597   0.000000
    19  H    0.154755   0.000000
    20  H    0.130464  -0.000000
    21  H    0.134813  -0.000000
    22  H    0.147699  -0.000000
    23  H    0.149653  -0.000000
    24  H    0.158199  -0.000000
    25  C    0.575010   0.000000
    26  C   -0.679084  -0.000000
    27  C   -0.492906   0.000000
    28  C   -0.685466  -0.000000
    29  H    0.129976   0.000000
    30  H    0.182495  -0.000000
    31  H    0.126116   0.000000
    32  H    0.117948  -0.000000
    33  H    0.124881  -0.000000
    34  H    0.156528  -0.000000
    35  H    0.125469  -0.000000
    36  H    0.184403  -0.000000
    37  H    0.116928   0.000000
    38  H    0.124540   0.000000
 Sum of Mulliken charges =  -2.00000  -0.00000

 Dipole moment (field-independent basis, Debye):
    X=              9.5995    Y=             19.4305    Z=            -18.4532  Tot=             28.4642
 Quadrupole moment (field-independent basis, Debye-Ang):
   XX=           -136.6052   YY=           -157.1259   ZZ=           -214.3626
   XY=            -19.0334   XZ=             21.5753   YZ=             37.9737

  Exact polarizability: 312.079 -49.587 257.993  -6.618   3.308 331.365
 Approx polarizability: 319.222 -45.140 265.062  -8.994   3.052 358.517

                      1                      2                      3
                      A                      A                      A
 Frequencies --     27.0800                53.2604                75.2172
 Red. masses --      3.0789                 3.2566                 3.3523
 Frc consts  --      0.0013                 0.0054                 0.0112
 IR Inten    --      5.4969                 6.3734                 1.9183

                      4                      5                      6
                      A                      A                      A
 Frequencies --     98.8785               112.9469               174.3054
 Red. masses --      4.3288                 4.1086                 4.6680
 Frc consts  --      0.0249                 0.0309                 0.0836
 IR Inten    --      6.2995                13.3663                 9.7601

                      7                      8                      9
                      A                      A                      A
 Frequencies --    176.9858               222.2350               242.2987
 Red. masses --      3.6509                 1.0989                 1.2194
 Frc consts  --      0.0674                 0.0320                 0.0422
 IR Inten    --      7.8784                 0.3485                 2.5608

                     10                     11                     12
                      A                      A                      A
 Frequencies --    243.2615               251.6876               255.7691
 Red. masses --      3.2874                 1.9218                 1.5747
 Frc consts  --      0.1146                 0.0717                 0.0607
 IR Inten    --      0.9567                 3.7682                 0.0558

                     13                     14                     15
                      A                      A                      A
 Frequencies --    270.7135               278.8720               292.7604
 Red. masses --      1.2308                 1.6328                 1.7506
 Frc consts  --      0.0531                 0.0748                 0.0884
 IR Inten    --      2.0813                 8.3817                 7.8511

                     16                     17                     18
                      A                      A                      A
 Frequencies --    300.0000               300.9807               332.1803
 Red. masses --      1.5827                 2.6654                 2.4109
 Frc consts  --      0.0839                 0.1423                 0.1567
 IR Inten    --      2.1827                 3.8877                27.0914

                     19                     20                     21
                      A                      A                      A
 Frequencies --    335.7028               359.6294               378.6997
 Red. masses --      1.2086                 2.4527                 3.2278
 Frc consts  --      0.0802                 0.1869                 0.2727
 IR Inten    --      6.4490                 0.2354                 0.3993

                     22                     23                     24
                      A                      A                      A
 Frequencies --    386.8481               405.2389               418.7026
 Red. masses --      2.6026                 2.7066                 3.2153
 Frc consts  --      0.2295                 0.2619                 0.3321
 IR Inten    --      1.7424                 4.7434                 1.8789

                     25                     26                     27
                      A                      A                      A
 Frequencies --    433.4393               458.0034               473.9637
 Red. masses --      4.0243                 2.5963                 2.7702
 Frc consts  --      0.4454                 0.3209                 0.3666
 IR Inten    --     12.0285                 7.2684                 1.0535

                     28                     29                     30
                      A                      A                      A
 Frequencies --    488.0709               539.5666               589.7879
 Red. masses --      7.6136                 3.0594                 4.4052
 Frc consts  --      1.0686                 0.5248                 0.9028
 IR Inten    --      1.5897                 4.9604                 1.0817

                     31                     32                     33
                      A                      A                      A
 Frequencies --    631.2101               652.2898               669.9673
 Red. masses --      2.4599                 3.7919                 4.6165
 Frc consts  --      0.5775                 0.9506                 1.2209
 IR Inten    --      7.6754                16.2970                 6.4475

                     34                     35                     36
                      A                      A                      A
 Frequencies --    737.3336               781.1868               794.0041
 Red. masses --      4.0053                 5.2209                 3.5007
 Frc consts  --      1.2830                 1.8772                 1.3003
 IR Inten    --     25.0045                37.3203                32.9364

                     37                     38                     39
                      A                      A                      A
 Frequencies --    805.2271               810.9136               825.9065
 Red. masses --      2.4272                 2.0644                 2.1832
 Frc consts  --      0.9272                 0.7998                 0.8774
 IR Inten    --    139.1723                63.2391                52.3207

                     40                     41                     42
                      A                      A                      A
 Frequencies --    854.4594               906.7785               911.9320
 Red. masses --      2.1633                 1.8490                 1.8154
 Frc consts  --      0.9306                 0.8958                 0.8895
 IR Inten    --    131.2646                 4.1243                 4.6974

                     43                     44                     45
                      A                      A                      A
 Frequencies --    921.1169               923.4151               936.4072
 Red. masses --      1.7817                 1.7581                 2.1718
 Frc consts  --      0.8907                 0.8833                 1.1220
 IR Inten    --      0.1527                 6.2441                53.9948

                     46                     47                     48
                      A                      A                      A
 Frequencies --    949.3065               954.8081               980.8101
 Red. masses --      1.2054                 1.2009                 1.7413
 Frc consts  --      0.6400                 0.6451                 0.9870
 IR Inten    --      0.5611                 0.5943                34.0147

                     49                     50                     51
                      A                      A                      A
 Frequencies --   1013.6417              1040.5174              1041.5880
 Red. masses --      2.1744                 1.4127                 1.3886
 Frc consts  --      1.3163                 0.9011                 0.8876
 IR Inten    --     49.1330                 5.4631                 8.4330

                     52                     53                     54
                      A                      A                      A
 Frequencies --   1045.9622              1056.0491              1145.1234
 Red. masses --      1.4995                 1.5324                 3.0552
 Frc consts  --      0.9666                 1.0069                 2.3604
 IR Inten    --      9.4287                 5.9034               386.8487

                     55                     56                     57
                      A                      A                      A
 Frequencies --   1176.7275              1204.2550              1209.9113
 Red. masses --      4.9642                 2.2084                 2.7248
 Frc consts  --      4.0499                 1.8870                 2.3502
 IR Inten    --    368.5167                72.3703                10.6724

                     58                     59                     60
                      A                      A                      A
 Frequencies --   1216.5111              1222.8830              1239.9200
 Red. masses --      2.3571                 2.4793                 2.8317
 Frc consts  --      2.0552                 2.1845                 2.5649
 IR Inten    --     34.5634                86.1269                75.8778

                     61                     62                     63
                      A                      A                      A
 Frequencies --   1244.7657              1255.2728              1268.5942
 Red. masses --      2.2788                 3.2455                 2.7853
 Frc consts  --      2.0803                 3.0130                 2.6410
 IR Inten    --    356.6183                20.9414               332.7691

                     64                     65                     66
                      A                      A                      A
 Frequencies --   1326.4235              1358.8063              1369.7987
 Red. masses --      6.6232                 1.2227                 1.2422
 Frc consts  --      6.8657                 1.3301                 1.3732
 IR Inten    --    141.4766                16.4262                22.4666

                     67                     68                     69
                      A                      A                      A
 Frequencies --   1383.0563              1385.8525              1394.7912
 Red. masses --      1.2459                 1.2492                 1.3737
 Frc consts  --      1.4041                 1.4136                 1.5746
 IR Inten    --     20.4476                23.1543               138.3001

                     70                     71                     72
                      A                      A                      A
 Frequencies --   1408.7908              1416.7054              1419.2825
 Red. masses --      1.2654                 3.5290                 2.5556
 Frc consts  --      1.4797                 4.1731                 3.0331
 IR Inten    --     36.4836                24.6449               749.5665

                     73                     74                     75
                      A                      A                      A
 Frequencies --   1464.4952              1470.3036              1478.1346
 Red. masses --      1.0489                 1.0526                 1.0478
 Frc consts  --      1.3254                 1.3407                 1.3488
 IR Inten    --      0.3975                 3.6449                 0.3702

                     76                     77                     78
                      A                      A                      A
 Frequencies --   1481.2988              1482.7608              1484.3082
 Red. masses --      1.0616                 1.1252                 1.1840
 Frc consts  --      1.3725                 1.4576                 1.5369
 IR Inten    --      3.6887                 4.2517                52.0757

                     79                     80                     81
                      A                      A                      A
 Frequencies --   1485.5633              1489.9169              1493.8851
 Red. masses --      1.0501                 1.0605                 1.0647
 Frc consts  --      1.3654                 1.3870                 1.4000
 IR Inten    --      3.3220                 4.8772                11.2189

                     82                     83                     84
                      A                      A                      A
 Frequencies --   1498.2860              1501.9074              1507.8968
 Red. masses --      2.0620                 1.0521                 1.0958
 Frc consts  --      2.7273                 1.3983                 1.4680
 IR Inten    --      8.0691                 5.9329                18.2529

                     85                     86                     87
                      A                      A                      A
 Frequencies --   1516.8197              1546.8369              1607.1157
 Red. masses --      1.0588                 1.7989                 4.5218
 Frc consts  --      1.4353                 2.5359                 6.8810
 IR Inten    --      6.7686               266.4095               140.1006

                     88                     89                     90
                      A                      A                      A
 Frequencies --   2989.2608              2994.6046              3011.3088
 Red. masses --      1.0390                 1.0394                 1.0359
 Frc consts  --      5.4699                 5.4917                 5.5347
 IR Inten    --     97.8234               140.5723               110.6255

                     91                     92                     93
                      A                      A                      A
 Frequencies --   3013.4433              3015.2155              3024.3308
 Red. masses --      1.0350                 1.0361                 1.0378
 Frc consts  --      5.5376                 5.5497                 5.5929
 IR Inten    --     50.5082                61.0963                54.0578

                     94                     95                     96
                      A                      A                      A
 Frequencies --   3044.7706              3048.2794              3065.9430
 Red. masses --      1.0994                 1.0981                 1.0997
 Frc consts  --      6.0052                 6.0119                 6.0906
 IR Inten    --     62.9213                87.4114               130.0898

                     97                     98                     99
                      A                      A                      A
 Frequencies --   3074.0968              3077.6634              3078.2904
 Red. masses --      1.1017                 1.1010                 1.1015
 Frc consts  --      6.1338                 6.1444                 6.1495
 IR Inten    --      6.8144                48.1499                79.9303

                    100                    101                    102
                      A                      A                      A
 Frequencies --   3079.0637              3089.5059              3095.4442
 Red. masses --      1.1012                 1.1014                 1.1005
 Frc consts  --      6.1511                 6.1942                 6.2126
 IR Inten    --     92.9455               106.9981                37.2334

                    103                    104                    105
                      A                      A                      A
 Frequencies --   3102.3257              3107.7292              3107.7507
 Red. masses --      1.0988                 1.0979                 1.0988
 Frc consts  --      6.2306                 6.2474                 6.2525
 IR Inten    --      8.1708                14.2262                61.9738

                    106                    107                    108
                      A                      A                      A
 Frequencies --   3148.7923              3152.2347              3389.9970
 Red. masses --      1.0871                 1.0853                 1.0722
 Frc consts  --      6.3508                 6.3539                 7.2596
 IR Inten    --     66.9825                79.9558               137.5429

 - Thermochemistry -
 -------------------
 Temperature   298.150 Kelvin.  Pressure   1.00000 Atm.
 Atom     1 has atomic number  6 and mass  12.00000

 Molecular mass:   235.15723 amu.
 Principal axes and moments of inertia in atomic units:
                           1         2         3
     Eigenvalues --  2463.175656000.844157604.27132
           X            0.79145   0.01355   0.61108
           Y           -0.61053   0.06543   0.78929
           Z            0.02929   0.99777  -0.06005
 This molecule is an asymmetric top.
 Rotational symmetry number  1.
 Warning -- assumption of classical behavior for rotation
           may cause significant error
 Rotational temperatures (Kelvin)      0.03516     0.01443     0.01139
 Rotational constants (GHZ):           0.73269     0.30075     0.23733
 Zero-point vibrational energy     843899.4 (Joules/Mol)
                                  201.69681 (Kcal/Mol)
 Warning -- explicit consideration of  30 degrees of freedom as
           vibrations may cause significant error
 Vibrational temperatures:     38.96    76.63   108.22   142.26   162.51
          (Kelvin)            250.79   254.64   319.75   348.61   350.00
                              362.12   367.99   389.50   401.23   421.22
                              431.63   433.04   477.93   483.00   517.43
                              544.86   556.59   583.05   602.42   623.62
                              658.96   681.93   702.23   776.32   848.57
                              908.17   938.50   963.93  1060.86  1123.95
                             1142.39  1158.54  1166.72  1188.30  1229.38
                             1304.65  1312.07  1325.28  1328.59  1347.28
                             1365.84  1373.76  1411.17  1458.40  1497.07
                             1498.61  1504.91  1519.42  1647.58  1693.05
                             1732.65  1740.79  1750.29  1759.46  1783.97
                             1790.94  1806.06  1825.22  1908.43  1955.02
                             1970.83  1989.91  1993.93  2006.79  2026.94
                             2038.32  2042.03  2107.08  2115.44  2126.71
                             2131.26  2133.36  2135.59  2137.39  2143.66
                             2149.37  2155.70  2160.91  2169.53  2182.37
                             2225.55  2312.28  4300.88  4308.57  4332.60
                             4335.67  4338.22  4351.34  4380.75  4385.79
                             4411.21  4422.94  4428.07  4428.97  4430.09
                             4445.11  4453.65  4463.55  4471.33  4471.36
                             4530.41  4535.36  4877.45

 Zero-point correction=                           0.321424 (Hartree/Particle)
 Thermal correction to Energy=                    0.339581
 Thermal correction to Enthalpy=                  0.340525
 Thermal correction to Gibbs Free Energy=         0.276803
 Sum of electronic and zero-point Energies=           -751.457883
 Sum of electronic and thermal Energies=              -751.439726
 Sum of electronic and thermal Enthalpies=            -751.438782
 Sum of electronic and thermal Free Energies=         -751.502504

                     E (Thermal)             CV                S
                      KCal/Mol        Cal/Mol-Kelvin    Cal/Mol-Kelvin
 Total                  213.090             71.800            134.114
 Electronic               0.000              0.000              0.000
 Translational            0.889              2.981             42.267
 Rotational               0.889              2.981             33.085
 Vibrational            211.313             65.839             58.762
 Vibration     1          0.593              1.984              6.033
 Vibration     2          0.596              1.976              4.693
 Vibration     3          0.599              1.966              4.012
 Vibration     4          0.604              1.950              3.476
 Vibration     5          0.607              1.939              3.218
 Vibration     6          0.627              1.874              2.389
 Vibration     7          0.628              1.871              2.360
 Vibration     8          0.648              1.807              1.941
 Vibration     9          0.658              1.775              1.786
 Vibration    10          0.659              1.774              1.779
 Vibration    11          0.664              1.760              1.719
 Vibration    12          0.666              1.753              1.690
 Vibration    13          0.674              1.727              1.592
 Vibration    14          0.679              1.713              1.541
 Vibration    15          0.688              1.687              1.458
 Vibration    16          0.693              1.674              1.417
 Vibration    17          0.693              1.672              1.411
 Vibration    18          0.714              1.611              1.249
 Vibration    19          0.717              1.604              1.232
 Vibration    20          0.734              1.555              1.124
 Vibration    21          0.749              1.516              1.044
 Vibration    22          0.755              1.498              1.012
 Vibration    23          0.770              1.459              0.944
 Vibration    24          0.782              1.430              0.896
 Vibration    25          0.794              1.397              0.847
 Vibration    26          0.816              1.343              0.772
 Vibration    27          0.831              1.308              0.727
 Vibration    28          0.844              1.276              0.689
 Vibration    29          0.895              1.163              0.566
 Vibration    30          0.947              1.054              0.468

                           ! Non-Optimized Parameters !
 Normal termination of Gaussian 16 at Sat Feb 10 16:04:13 2024.
