 Q-Chem 5.4, Q-Chem, Inc., Pleasanton, CA (2021)
 Q-Chem 5.4.0 for Intel X86 EM64T Linux

User input:
--------------------------------------------------------------
$molecule
-2 1
C                 -1.8530470000      3.4775310000     -0.9478230000
C                 -2.9568100000      2.9047780000     -0.3706950000
C                 -0.5997390000      2.7934800000     -1.0264190000
C                 -0.5316780000      1.4648620000     -0.4724980000
C                 -2.9032410000      1.6056960000      0.1748170000
C                 -1.6906930000      0.9212730000      0.1087020000
C                  0.5090470000      3.4942120000     -1.6602080000
C                  1.7895620000      2.7869710000     -1.7362320000
C                  1.8412280000      1.4449650000     -1.1719490000
C                  0.7339770000      0.7655420000     -0.5481280000
C                  3.0877360000      0.7477630000     -1.2427220000
C                  3.2395250000     -0.5190490000     -0.7411870000
C                  2.1640890000     -1.1945570000     -0.1286490000
C                  0.9399620000     -0.5325520000     -0.0490440000
O                  0.3405710000      4.6748710000     -2.1200250000
O                  2.8333970000      3.2978660000     -2.2683670000
O                  4.4699280000     -1.2004860000     -0.8142070000
O                 -4.1884230000      3.5838860000     -0.2963530000
H                 -1.8743240000      4.4791930000     -1.3742140000
H                 -3.7847850000      1.1649040000      0.6291360000
H                 -1.6532360000     -0.0793900000      0.5302490000
H                  3.9058210000      1.2858530000     -1.7189370000
H                  2.2987160000     -2.1971600000      0.2644010000
H                  0.1136830000     -1.0562520000      0.4236410000
H                  5.0746790000     -0.5959830000     -1.2564720000
H                 -4.0376570000      4.4393810000     -0.7112590000
$end
$rem
MAX_SCF_CYCLES=200
BASIS  =  6-311++G(d,p)
GUI  =  2
JOB_TYPE  =  SP
METHOD  =  B3LYP
SOLVENT_METHOD = PCM
$end
$pcm
theory = CPCM
$end
$solvent
dielectric 37.219
opticaldielectric 1.43
$end

--------------------------------------------------------------

             Standard Nuclear Orientation (Angstroms)
    I     Atom           X                Y                Z
 ----------------------------------------------------------------
    1      C      -1.8530470000     3.4775310000    -0.9478230000
    2      C      -2.9568100000     2.9047780000    -0.3706950000
    3      C      -0.5997390000     2.7934800000    -1.0264190000
    4      C      -0.5316780000     1.4648620000    -0.4724980000
    5      C      -2.9032410000     1.6056960000     0.1748170000
    6      C      -1.6906930000     0.9212730000     0.1087020000
    7      C       0.5090470000     3.4942120000    -1.6602080000
    8      C       1.7895620000     2.7869710000    -1.7362320000
    9      C       1.8412280000     1.4449650000    -1.1719490000
   10      C       0.7339770000     0.7655420000    -0.5481280000
   11      C       3.0877360000     0.7477630000    -1.2427220000
   12      C       3.2395250000    -0.5190490000    -0.7411870000
   13      C       2.1640890000    -1.1945570000    -0.1286490000
   14      C       0.9399620000    -0.5325520000    -0.0490440000
   15      O       0.3405710000     4.6748710000    -2.1200250000
   16      O       2.8333970000     3.2978660000    -2.2683670000
   17      O       4.4699280000    -1.2004860000    -0.8142070000
   18      O      -4.1884230000     3.5838860000    -0.2963530000
   19      H      -1.8743240000     4.4791930000    -1.3742140000
   20      H      -3.7847850000     1.1649040000     0.6291360000
   21      H      -1.6532360000    -0.0793900000     0.5302490000
   22      H       3.9058210000     1.2858530000    -1.7189370000
   23      H       2.2987160000    -2.1971600000     0.2644010000
   24      H       0.1136830000    -1.0562520000     0.4236410000
   25      H       5.0746790000    -0.5959830000    -1.2564720000
   26      H      -4.0376570000     4.4393810000    -0.7112590000
 ----------------------------------------------------------------

    9    -839.7040832340      3.17e-06  Convergence criterion met
 Total energy in the final basis set =     -839.7040832340

                    Orbital Energies (a.u.)
 --------------------------------------------------------------

 Alpha MOs
 -- Occupied --
-19.1391 -19.1391 -19.0231 -19.0230 -10.2138 -10.2138 -10.1689 -10.1686
-10.1588 -10.1588 -10.1531 -10.1527 -10.1508 -10.1508 -10.1470 -10.1470
-10.1416 -10.1416  -1.0393  -1.0393  -0.9545  -0.9270  -0.8447  -0.8195
 -0.7576  -0.7383  -0.7240  -0.6919  -0.6573  -0.6135  -0.5947  -0.5665
 -0.5658  -0.5272  -0.5191  -0.4930  -0.4590  -0.4539  -0.4350  -0.4256
 -0.4144  -0.4092  -0.4000  -0.3917  -0.3903  -0.3892  -0.3699  -0.3675
 -0.3664  -0.3534  -0.3431  -0.3284  -0.3192  -0.3164  -0.3092  -0.2827
 -0.2440  -0.2346  -0.2268  -0.2149  -0.1901  -0.1840  -0.1152

          Ground-State Mulliken Net Atomic Charges

     Atom                 Charge (a.u.)
  ----------------------------------------
      1 C                     0.172117
      2 C                    -0.587272
      3 C                     0.532689
      4 C                     0.412015
      5 C                    -0.532967
      6 C                    -0.315024
      7 C                    -0.400657
      8 C                    -0.403488
      9 C                     0.537280
     10 C                     0.412920
     11 C                     0.170987
     12 C                    -0.587971
     13 C                    -0.532838
     14 C                    -0.311430
     15 O                    -0.708320
     16 O                    -0.708388
     17 O                    -0.342924
     18 O                    -0.343073
     19 H                     0.140686
     20 H                     0.201092
     21 H                     0.117003
     22 H                     0.140149
     23 H                     0.201492
     24 H                     0.116670
     25 H                     0.309605
     26 H                     0.309647
  ----------------------------------------
  Sum of atomic charges =    -2.000000

                    Cartesian Multipole Moments
 -----------------------------------------------------------------
    Charge (ESU x 10^10)
                -9.6064
    Dipole Moment (Debye)
         X     -10.1369      Y     -28.4221      Z      15.2900
       Tot      33.8283
    Quadrupole Moments (Debye-Ang)
        XX    -158.0213     XY     -25.4102     YY    -227.1732
        XZ      23.3928     YZ      55.4151     ZZ    -147.2216

 Total job time:  60.70s(wall), 354.80s(cpu)
        *  Thank you very much for using Q-Chem.  Have a nice day.  *
