 Gaussian 16, Revision A.03,
 Gaussian 16:  ES64L-G16RevA.03 25-Dec-2016

 ---------------------------------------------------
 #P UB3LYP/6-311++G(d,p) nosym opt freq Int=Acc2E=11
 ---------------------------------------------------

 -------
 Radical
 -------
 Symbolic Z-matrix:
 Charge = -1 Multiplicity = 2

 SCF Done:  E(UB3LYP) =  -1368.30738507     A.U. after   22 cycles
 SCF Done:  E(UB3LYP) =  -1368.31245706     A.U. after   20 cycles
 SCF Done:  E(UB3LYP) =  -1368.31518338     A.U. after   19 cycles
 SCF Done:  E(UB3LYP) =  -1368.31674278     A.U. after   18 cycles
 SCF Done:  E(UB3LYP) =  -1368.31707271     A.U. after   16 cycles
 SCF Done:  E(UB3LYP) =  -1368.31713778     A.U. after   16 cycles
 SCF Done:  E(UB3LYP) =  -1368.31711996     A.U. after   16 cycles
 SCF Done:  E(UB3LYP) =  -1368.31709598     A.U. after   16 cycles
 SCF Done:  E(UB3LYP) =  -1368.31716294     A.U. after   16 cycles
 SCF Done:  E(UB3LYP) =  -1368.31717572     A.U. after   13 cycles
 SCF Done:  E(UB3LYP) =  -1368.31717445     A.U. after   14 cycles
 SCF Done:  E(UB3LYP) =  -1368.31717494     A.U. after   13 cycles
 SCF Done:  E(UB3LYP) =  -1368.31717697     A.U. after   14 cycles
 SCF Done:  E(UB3LYP) =  -1368.31717707     A.U. after   13 cycles
 SCF Done:  E(UB3LYP) =  -1368.31717717     A.U. after   11 cycles
 SCF Done:  E(UB3LYP) =  -1368.31717719     A.U. after   10 cycles
 Optimization completed.
    -- Stationary point found.
 Normal termination of Gaussian 16 at Thu Jan  4 23:49:39 2024.

 ----------------------------------------------------------------------
 #P Geom=AllCheck Guess=TCheck SCRF=Check GenChk UB3LYP/6-311++G(d,p) F
 req
 ----------------------------------------------------------------------

 Structure from the checkpoint file:  "157-rad-new.chk"
 -------
 Radical
 -------
 Charge = -1 Multiplicity = 2

                          Input orientation:
 ---------------------------------------------------------------------
 Center     Atomic      Atomic             Coordinates (Angstroms)
 Number     Number       Type             X           Y           Z
 ---------------------------------------------------------------------
      1          6           0       -1.688332    1.970169   -5.162412
      2          6           0       -1.620306    0.650472   -5.557124
      3          6           0       -1.316881   -0.357054   -4.617275
      4          6           0       -1.456526    2.337644   -3.815309
      5          6           0       -1.150490    1.320126   -2.867641
      6          6           0       -1.087347   -0.019556   -3.297339
      7          6           0       -1.534037    3.728284   -3.429440
      8          6           0       -0.898681    1.630028   -1.452895
      9          6           0       -1.287653    4.052138   -2.035975
     10          6           0       -0.979740    3.047165   -1.071456
     11          6           0       -1.341709    5.383924   -1.569190
     12          6           0       -1.115032    5.737237   -0.257601
     13          6           0       -0.813213    4.736879    0.679772
     14          6           0       -0.749746    3.417811    0.266551
     15          8           0       -1.812089    4.646427   -4.292207
     16          8           0       -0.630903    0.741658   -0.622097
     17          7           0       -1.657249    6.444768   -2.540715
     18          1           0       -1.919725    2.758551   -5.868046
     19          1           0       -1.800712    0.385341   -6.594147
     20          1           0       -1.264347   -1.394201   -4.932120
     21          1           0       -0.852310   -0.771693   -2.553500
     22         16           0       -1.227784    7.509512    0.159633
     23          1           0       -0.636625    5.025015    1.708621
     24          1           0       -1.788985    5.902848   -3.486228
     25          1           0       -2.480155    6.963998   -2.202182
     26          1           0       -0.518924    2.624380    0.967460
     27          8           0       -2.619675    7.853819   -0.263855
     28          8           0       -0.949439    7.626440    1.598118
     29          8           0       -0.212661    8.121715   -0.751368
     30          1           0       -0.897312    7.140153   -2.523887
 ---------------------------------------------------------------------

 SCF Done:  E(UB3LYP) =  -1368.31717719     A.U. after    2 cycles

 Alpha  occ. eigenvalues --  -88.93777 -19.00527 -18.99043 -18.98258 -18.97965
 Alpha  occ. eigenvalues --  -18.97964 -14.30463 -10.14658 -10.14291 -10.14199
 Alpha  occ. eigenvalues --  -10.10758 -10.10374 -10.09354 -10.09333 -10.09219
 Alpha  occ. eigenvalues --  -10.09216 -10.09132 -10.08941 -10.08898 -10.08796
 Alpha  occ. eigenvalues --  -10.08699  -7.99641  -5.95896  -5.95883  -5.95863
 Alpha  occ. eigenvalues --   -1.00098  -0.93258  -0.91947  -0.88822  -0.86649
 Alpha  occ. eigenvalues --   -0.85815  -0.78204  -0.76932  -0.70883  -0.67165
 Alpha  occ. eigenvalues --   -0.66645  -0.66415  -0.59135  -0.56996  -0.54936
 Alpha  occ. eigenvalues --   -0.51377  -0.49926  -0.48787  -0.47653  -0.46339
 Alpha  occ. eigenvalues --   -0.43690  -0.42781  -0.39993  -0.39717  -0.39016
 Alpha  occ. eigenvalues --   -0.37225  -0.36262  -0.34561  -0.34378  -0.34139
 Alpha  occ. eigenvalues --   -0.33715  -0.33490  -0.32803  -0.32233  -0.30492
 Alpha  occ. eigenvalues --   -0.29705  -0.28541  -0.28151  -0.27336  -0.25993
 Alpha  occ. eigenvalues --   -0.25543  -0.22441  -0.21931  -0.20098  -0.19000
 Alpha  occ. eigenvalues --   -0.18555  -0.18525  -0.17562  -0.17237  -0.17216
 Alpha  occ. eigenvalues --   -0.15959  -0.15187  -0.14397  -0.06273
 Alpha virt. eigenvalues --    0.02576   0.05922   0.06422   0.07558   0.08042
 Alpha virt. eigenvalues --    0.08543   0.09556   0.10359   0.11992   0.12102
 Alpha virt. eigenvalues --    0.12753   0.12988   0.13030   0.13332   0.14497

  Beta  occ. eigenvalues --  -88.93777 -18.99971 -18.98505 -18.98260 -18.97965
  Beta  occ. eigenvalues --  -18.97964 -14.30471 -10.14318 -10.14208 -10.14147
  Beta  occ. eigenvalues --  -10.10782 -10.10365 -10.09362 -10.09215 -10.09194
  Beta  occ. eigenvalues --  -10.09113 -10.09022 -10.08939 -10.08815 -10.08740
  Beta  occ. eigenvalues --  -10.08737  -7.99641  -5.95896  -5.95883  -5.95863
  Beta  occ. eigenvalues --   -1.00097  -0.92423  -0.91037  -0.88597  -0.86633
  Beta  occ. eigenvalues --   -0.85815  -0.77940  -0.76819  -0.70499  -0.66891
  Beta  occ. eigenvalues --   -0.66519  -0.66238  -0.58487  -0.56699  -0.54717
  Beta  occ. eigenvalues --   -0.51285  -0.49893  -0.48604  -0.47449  -0.46269
  Beta  occ. eigenvalues --   -0.43581  -0.42619  -0.39826  -0.39441  -0.38953
  Beta  occ. eigenvalues --   -0.37154  -0.36144  -0.34390  -0.34277  -0.34090
  Beta  occ. eigenvalues --   -0.33434  -0.32536  -0.32406  -0.31937  -0.30278
  Beta  occ. eigenvalues --   -0.28211  -0.28072  -0.27341  -0.27193  -0.25403
  Beta  occ. eigenvalues --   -0.24899  -0.22430  -0.21916  -0.19596  -0.18991
  Beta  occ. eigenvalues --   -0.18437  -0.17399  -0.16913  -0.16669  -0.16198
  Beta  occ. eigenvalues --   -0.15437  -0.14678  -0.14370
  Beta virt. eigenvalues --   -0.00214   0.03499   0.06419   0.06912   0.07839
  Beta virt. eigenvalues --    0.08056   0.08541   0.09561   0.10360   0.11992
  Beta virt. eigenvalues --    0.12145   0.12780   0.13027   0.13495   0.13759

 Mulliken charges and spin densities:
               1          2
     1  C   -0.013790   0.075244
     2  C   -0.449994  -0.009113
     3  C   -0.376625   0.085699
     4  C    0.300686  -0.039793
     5  C    0.323535   0.088917
     6  C    0.052755  -0.016030
     7  C   -0.420315   0.201769
     8  C   -0.598399   0.015487
     9  C    0.220231   0.006251
    10  C    0.597842   0.095477
    11  C   -0.270726   0.069468
    12  C   -0.954977  -0.027902
    13  C    0.071647   0.095649
    14  C    0.084739  -0.029849
    15  O   -0.404456   0.205412
    16  O   -0.312503   0.200928
    17  N   -0.456523  -0.003580
    18  H    0.158640  -0.003517
    19  H    0.139073  -0.000169
    20  H    0.139286  -0.006054
    21  H    0.161344   0.000690
    22  S    0.286810  -0.000196
    23  H    0.223066  -0.006183
    24  H    0.434959  -0.003718
    25  H    0.356018   0.001817
    26  H    0.172803   0.000879
    27  O   -0.366181   0.000713
    28  O   -0.088760  -0.000828
    29  O   -0.366193   0.000710
    30  H    0.356010   0.001821
 Sum of Mulliken charges =  -1.00000   1.00000

 Dipole moment (field-independent basis, Debye):
    X=              5.3334    Y=            -25.1676    Z=              2.4534  Tot=             25.8432
 Quadrupole moment (field-independent basis, Debye-Ang):
   XX=           -145.9238   YY=           -324.5051   ZZ=           -153.7327
   XY=             29.7363   XZ=             -3.0521   YZ=             -7.4081

  Exact polarizability: 123.384  -9.572 324.446  26.610  67.253 285.279
 Approx polarizability: 209.271 -25.566 492.245  54.318  37.715 484.148

                      1                      2                      3
                      A                      A                      A
 Frequencies --     38.6189                46.6835                83.9088
 Red. masses --      8.6500                 9.2003                 8.4078
 Frc consts  --      0.0076                 0.0118                 0.0349
 IR Inten    --      0.4553                 0.1019                 9.4813

                      4                      5                      6
                      A                      A                      A
 Frequencies --    120.7758               134.7896               151.7718
 Red. masses --      4.5936                 9.0595                 6.0342
 Frc consts  --      0.0395                 0.0970                 0.0819
 IR Inten    --      4.0175                 5.1114                 2.7301

                      7                      8                      9
                      A                      A                      A
 Frequencies --    176.5986               201.2403               213.0286
 Red. masses --      7.7399                 5.4778                 9.0640
 Frc consts  --      0.1422                 0.1307                 0.2424
 IR Inten    --      2.8875                 6.4412                22.4418

                     10                     11                     12
                      A                      A                      A
 Frequencies --    227.4083               262.6072               302.2290
 Red. masses --      7.2999                 4.7619                 9.1771
 Frc consts  --      0.2224                 0.1935                 0.4939
 IR Inten    --     13.8020                 3.1151                 4.9786

                     13                     14                     15
                      A                      A                      A
 Frequencies --    328.4578               352.5676               391.1539
 Red. masses --      4.0316                 7.1472                 7.3563
 Frc consts  --      0.2563                 0.5234                 0.6631
 IR Inten    --     95.4126                 0.6669                35.7573

                     16                     17                     18
                      A                      A                      A
 Frequencies --    398.0065               408.7712               430.5806
 Red. masses --      6.6809                 1.3950                 8.4540
 Frc consts  --      0.6235                 0.1373                 0.9235
 IR Inten    --     24.5634                 5.1474               124.2518

                     19                     20                     21
                      A                      A                      A
 Frequencies --    433.2964               443.0520               472.7645
 Red. masses --      2.4728                 4.2697                 9.6425
 Frc consts  --      0.2735                 0.4938                 1.2698
 IR Inten    --      4.5730                 0.3487                 2.0461

                     22                     23                     24
                      A                      A                      A
 Frequencies --    485.4608               512.6070               515.2502
 Red. masses --      7.0561                 4.2972                11.3807
 Frc consts  --      0.9798                 0.6653                 1.7801
 IR Inten    --      5.1393                 9.5942                10.4021

                     25                     26                     27
                      A                      A                      A
 Frequencies --    525.6799               555.5308               576.4789
 Red. masses --      9.2592                 5.6650                 6.9578
 Frc consts  --      1.5075                 1.0301                 1.3623
 IR Inten    --      0.6660                 9.9214                31.2644

                     28                     29                     30
                      A                      A                      A
 Frequencies --    607.9561               646.6119               663.6225
 Red. masses --     10.6907                 5.6157                 6.7748
 Frc consts  --      2.3281                 1.3834                 1.7579
 IR Inten    --    185.0046                 1.2092                 1.0603

                     31                     32                     33
                      A                      A                      A
 Frequencies --    675.1945               705.2806               711.8823
 Red. masses --      6.6592                 2.9284                 8.0375
 Frc consts  --      1.7887                 0.8582                 2.3999
 IR Inten    --    124.9901                48.0653                 2.3805

                     34                     35                     36
                      A                      A                      A
 Frequencies --    722.4498               780.8808               798.4597
 Red. masses --      4.9240                 1.8243                 3.0631
 Frc consts  --      1.5142                 0.6554                 1.1506
 IR Inten    --      6.0706                25.4308                 0.4358

                     37                     38                     39
                      A                      A                      A
 Frequencies --    804.4107               854.1133               880.5185
 Red. masses --      6.8140                 1.5307                 1.5086
 Frc consts  --      2.5978                 0.6579                 0.6891
 IR Inten    --      0.5509                18.5431                 0.0128

                     40                     41                     42
                      A                      A                      A
 Frequencies --    884.4534               950.7423               985.3698
 Red. masses --      7.0624                10.3161                 7.6636
 Frc consts  --      3.2550                 5.4940                 4.3841
 IR Inten    --     12.0139                83.4272               219.4472

                     43                     44                     45
                      A                      A                      A
 Frequencies --    986.8802               992.1596               996.8647
 Red. masses --      1.3525                 1.2841                 1.3064
 Frc consts  --      0.7761                 0.7448                 0.7649
 IR Inten    --      1.6721                 0.0588                 0.8367

                     46                     47                     48
                      A                      A                      A
 Frequencies --   1003.2708              1044.6836              1111.1098
 Red. masses --      5.4539                 1.9899                 9.9421
 Frc consts  --      3.2344                 1.2795                 7.2317
 IR Inten    --     13.8944                 4.3826               253.4802

                     49                     50                     51
                      A                      A                      A
 Frequencies --   1112.3183              1136.1611              1155.3153
 Red. masses --      2.2703                 2.1488                 1.5131
 Frc consts  --      1.6550                 1.6343                 1.1899
 IR Inten    --     20.6767                30.2039                50.1625

                     52                     53                     54
                      A                      A                      A
 Frequencies --   1166.5443              1179.4583              1188.2414
 Red. masses --      1.4479                 2.4324                 1.3296
 Frc consts  --      1.1609                 1.9937                 1.1060
 IR Inten    --     98.4870                69.2655                41.5807

                     55                     56                     57
                      A                      A                      A
 Frequencies --   1200.8487              1215.6706              1232.6290
 Red. masses --      2.8579                 4.1406                 2.6983
 Frc consts  --      2.4281                 3.6054                 2.4155
 IR Inten    --      4.2878               214.0253                38.4176

                     58                     59                     60
                      A                      A                      A
 Frequencies --   1248.4015              1259.5124              1314.9209
 Red. masses --      3.2926                 1.9087                 1.7167
 Frc consts  --      3.0234                 1.7840                 1.7488
 IR Inten    --      7.3739               119.5183               412.2158

                     61                     62                     63
                      A                      A                      A
 Frequencies --   1349.2463              1359.6018              1368.2886
 Red. masses --      5.8573                 9.7892                 3.0035
 Frc consts  --      6.2825                10.6616                 3.3131
 IR Inten    --     24.8176                11.7143               377.2645

                     64                     65                     66
                      A                      A                      A
 Frequencies --   1436.1968              1446.8822              1477.4396
 Red. masses --      4.2666                 2.2658                 2.3642
 Frc consts  --      5.1851                 2.7947                 3.0405
 IR Inten    --     36.1843                62.6502                 9.8855

                     67                     68                     69
                      A                      A                      A
 Frequencies --   1488.1789              1535.2733              1559.8449
 Red. masses --      3.5005                 3.2811                 6.0670
 Frc consts  --      4.5677                 4.5566                 8.6973
 IR Inten    --      4.5699                61.3450                50.6578

                     70                     71                     72
                      A                      A                      A
 Frequencies --   1568.6658              1599.9701              1609.8983
 Red. masses --      6.3957                 6.3328                 1.0389
 Frc consts  --      9.2725                 9.5515                 1.5864
 IR Inten    --    334.6665                 0.7907                21.6898

                     73                     74                     75
                      A                      A                      A
 Frequencies --   1619.0893              1640.9130              1661.6173
 Red. masses --      3.9421                 3.2723                 1.5393
 Frc consts  --      6.0886                 5.1912                 2.5039
 IR Inten    --      3.8437                46.3482                 4.5555

                     76                     77                     78
                      A                      A                      A
 Frequencies --   2319.8495              3146.6158              3164.3676
 Red. masses --      1.1082                 1.0855                 1.0913
 Frc consts  --      3.5139                 6.3322                 6.4381
 IR Inten    --    727.9758                13.8206                37.1172

                     79                     80                     81
                      A                      A                      A
 Frequencies --   3185.3600              3189.3909              3194.8510
 Red. masses --      1.0873                 1.0923                 1.0928
 Frc consts  --      6.5001                 6.5468                 6.5717
 IR Inten    --      5.0565                12.4679                17.0223

                     82                     83                     84
                      A                      A                      A
 Frequencies --   3200.6700              3329.4032              3346.0145
 Red. masses --      1.0940                 1.0512                 1.0926
 Frc consts  --      6.6029                 6.8652                 7.2072
 IR Inten    --      3.4363               226.4371                70.7593

 - Thermochemistry -
 -------------------
 Temperature   298.150 Kelvin.  Pressure   1.00000 Atm.
 Atom     1 has atomic number  6 and mass  12.00000

 Molecular mass:   303.02014 amu.
 Principal axes and moments of inertia in atomic units:
                           1         2         3
     Eigenvalues --  2425.11300********************
           X            0.01094   0.22530   0.97423
           Y            0.85201  -0.51209   0.10886
           Z            0.52341   0.82886  -0.19756
 This molecule is an asymmetric top.
 Rotational symmetry number  1.
 Warning -- assumption of classical behavior for rotation
           may cause significant error
 Rotational temperatures (Kelvin)      0.03572     0.00801     0.00672
 Rotational constants (GHZ):           0.74419     0.16690     0.14012
 Zero-point vibrational energy     549109.2 (Joules/Mol)
                                  131.24024 (Kcal/Mol)
 Warning -- explicit consideration of  28 degrees of freedom as
           vibrations may cause significant error
 Vibrational temperatures:     55.56    67.17   120.73   173.77   193.93
          (Kelvin)            218.37   254.09   289.54   306.50   327.19
                              377.83   434.84   472.58   507.27   562.78
                              572.64   588.13   619.51   623.42   637.45
                              680.20   698.47   737.53   741.33   756.34
                              799.28   829.42   874.71   930.33   954.80
                              971.45  1014.74  1024.24  1039.44  1123.51
                             1148.81  1157.37  1228.88  1266.87  1272.53
                             1367.91  1417.73  1419.90  1427.50  1434.27
                             1443.48  1503.07  1598.64  1600.38  1634.68
                             1662.24  1678.40  1696.98  1709.61  1727.75
                             1749.08  1773.48  1796.17  1812.16  1891.88
                             1941.26  1956.16  1968.66  2066.37  2081.74
                             2125.71  2141.16  2208.92  2244.27  2256.96
                             2302.00  2316.28  2329.51  2360.91  2390.70
                             3337.75  4527.28  4552.82  4583.02  4588.82
                             4596.68  4605.05  4790.27  4814.17

 Zero-point correction=                           0.209145 (Hartree/Particle)
 Thermal correction to Energy=                    0.225385
 Thermal correction to Enthalpy=                  0.226329
 Thermal correction to Gibbs Free Energy=         0.164676
 Sum of electronic and zero-point Energies=          -1368.108033
 Sum of electronic and thermal Energies=             -1368.091793
 Sum of electronic and thermal Enthalpies=           -1368.090849
 Sum of electronic and thermal Free Energies=        -1368.152501

                     E (Thermal)             CV                S
                      KCal/Mol        Cal/Mol-Kelvin    Cal/Mol-Kelvin
 Total                  141.431             64.905            129.759
 Electronic               0.000              0.000              1.377
 Translational            0.889              2.981             43.023
 Rotational               0.889              2.981             34.179
 Vibrational            139.653             58.944             51.180
 Vibration     1          0.594              1.981              5.329
 Vibration     2          0.595              1.979              4.953
 Vibration     3          0.601              1.960              3.797
 Vibration     4          0.609              1.932              3.088
 Vibration     5          0.613              1.919              2.877
 Vibration     6          0.619              1.901              2.650
 Vibration     7          0.628              1.871              2.364
 Vibration     8          0.638              1.838              2.122
 Vibration     9          0.644              1.821              2.018
 Vibration    10          0.651              1.799              1.899
 Vibration    11          0.670              1.741              1.644
 Vibration    12          0.694              1.669              1.405
 Vibration    13          0.712              1.619              1.268
 Vibration    14          0.729              1.570              1.155
 Vibration    15          0.759              1.489              0.996
 Vibration    16          0.764              1.474              0.970
 Vibration    17          0.773              1.451              0.931
 Vibration    18          0.792              1.404              0.857
 Vibration    19          0.794              1.398              0.848
 Vibration    20          0.803              1.376              0.817
 Vibration    21          0.830              1.310              0.730
 Vibration    22          0.842              1.282              0.695
 Vibration    23          0.868              1.222              0.627
 Vibration    24          0.870              1.216              0.621
 Vibration    25          0.881              1.193              0.597
 Vibration    26          0.911              1.128              0.533
 Vibration    27          0.933              1.082              0.492
 Vibration    28          0.967              1.015              0.436

 Optimization completed.
    -- Stationary point found.
 Normal termination of Gaussian 16 at Fri Jan  5 01:13:33 2024.
