 Q-Chem 5.4, Q-Chem, Inc., Pleasanton, CA (2021)
 Q-Chem 5.4.0 for Intel X86 EM64T Linux

User input:
--------------------------------------------------------------
$molecule
0 1
C                  5.6806780000     -5.1079330000      1.2814440000
C                  6.6930630000     -5.0186240000      0.3377060000
C                  6.6040080000     -4.0723420000     -0.6980350000
C                  4.5727370000     -4.2602780000      1.2057720000
C                  4.4830850000     -3.3141170000      0.1707470000
C                  5.4978230000     -3.2208840000     -0.7795680000
C                  3.4883910000     -4.3677780000      2.2303630000
C                  2.3372900000     -3.4428890000      2.0998460000
C                  2.2523380000     -2.5404400000      1.1122110000
C                  3.3031710000     -2.3992240000      0.0759710000
O                  3.5390950000     -5.1784260000      3.1387630000
O                  3.1993270000     -1.5701000000     -0.8103390000
C                  7.6506530000     -3.9821630000     -1.6712860000
N                  8.4979240000     -3.9141600000     -2.4533140000
H                  5.7305950000     -5.8301570000      2.0868470000
H                  7.5544300000     -5.6727700000      0.3908360000
H                  5.4151160000     -2.4870960000     -1.5713740000
H                  1.5680830000     -3.5455090000      2.8575370000
H                  1.4099240000     -1.8640040000      1.0171600000
$end
$rem
MAX_SCF_CYCLES=200
BASIS  =  6-311++G(d,p)
GUI  =  2
JOB_TYPE  =  SP
METHOD  =  B3LYP
SOLVENT_METHOD = COSMO
$end
$solvent
dielectric 37.219
opticaldielectric 1.43
$end

--------------------------------------------------------------

             Standard Nuclear Orientation (Angstroms)
    I     Atom           X                Y                Z
 ----------------------------------------------------------------
    1      C      -0.3646964786    -1.8170053483    -0.0000503899
    2      C      -1.7193389310    -1.5195415279    -0.0000468559
    3      C      -2.1423608723    -0.1789475281    -0.0000241529
    4      C       0.5806018138    -0.7883218944    -0.0000415151
    5      C       0.1584624671     0.5519516751    -0.0000641692
    6      C      -1.2014549824     0.8554458767    -0.0000457229
    7      C       2.0381978701    -1.1238259150     0.0000199403
    8      C       2.9951649134     0.0082968426     0.0000619294
    9      C       2.5918291477     1.2867232940     0.0000202605
   10      C       1.1582992325     1.6648466297    -0.0001032832
   11      O       2.4334897485    -2.2764993142     0.0000515671
   12      O       0.8207875250     2.8352574249     0.0000291476
   13      C      -3.5416790492     0.1255588809     0.0000364346
   14      N      -4.6716202146     0.3649190839     0.0001027918
   15      H      -0.0186200446    -2.8431653295    -0.0000341966
   16      H      -2.4570225408    -2.3123250966    -0.0000535455
   17      H      -1.5118816013     1.8926909454    -0.0000509625
   18      H       4.0441045721    -0.2674412811     0.0001265865
   19      H       3.2923921417     2.1146563775     0.0000720041
 ----------------------------------------------------------------

    9    -627.5205669682      5.46e-06  Convergence criterion met
 Total energy in the final basis set =     -627.5205669682
    5    -627.5399942293      8.62e-06  Convergence criterion met
 Total energy in the final basis set =     -627.5399942293

                    Orbital Energies (a.u.)
 --------------------------------------------------------------

 Alpha MOs
 -- Occupied --
-19.1482 -19.1475 -14.3391 -10.2956 -10.2956 -10.2468 -10.2397 -10.2254
-10.2236 -10.2217 -10.2203 -10.2177 -10.2169 -10.2117  -1.0814  -1.0796
 -0.9415  -0.9089  -0.8542  -0.8063  -0.7952  -0.7167  -0.6855  -0.6625
 -0.6084  -0.5866  -0.5526  -0.5232  -0.5144  -0.4809  -0.4755  -0.4670
 -0.4643  -0.4547  -0.4403  -0.4308  -0.4207  -0.4132  -0.3978  -0.3924
 -0.3717  -0.3649  -0.3166  -0.3007  -0.2953  -0.2923  -0.2892

          Ground-State Mulliken Net Atomic Charges

     Atom                 Charge (a.u.)
  ----------------------------------------
      1 C                     0.558638
      2 C                    -0.902401
      3 C                     2.017420
      4 C                     0.181877
      5 C                    -0.067404
      6 C                     0.363863
      7 C                    -0.671404
      8 C                     0.167825
      9 C                     0.111668
     10 C                    -0.498512
     11 O                    -0.289930
     12 O                    -0.293225
     13 C                    -1.647378
     14 N                    -0.244326
     15 H                     0.213304
     16 H                     0.256860
     17 H                     0.217846
     18 H                     0.260892
     19 H                     0.264388
  ----------------------------------------
  Sum of atomic charges =     0.000000

                    Cartesian Multipole Moments
 -----------------------------------------------------------------
    Charge (ESU x 10^10)
                 0.0000
    Dipole Moment (Debye)
         X       4.4347      Y      -1.7161      Z      -0.0007
       Tot       4.7552
    Quadrupole Moments (Debye-Ang)
        XX     -99.6683     XY      14.3679     YY     -90.2195
        XZ       0.0018     YZ      -0.0002     ZZ     -79.3026

 Total job time:  28.02s(wall), 200.32s(cpu)
        *  Thank you very much for using Q-Chem.  Have a nice day.  *
