 Q-Chem 5.4, Q-Chem, Inc., Pleasanton, CA (2021)
 Q-Chem 5.4.0 for Intel X86 EM64T Linux

User input:
--------------------------------------------------------------
$molecule
0 1
C                  5.0797030000     -2.4449790000      0.3199690000
C                  5.8188840000     -1.4927630000     -0.3690730000
C                  5.1471940000     -0.5196680000     -1.1110920000
C                  3.6826380000     -2.4244720000      0.2706520000
C                  3.0213180000     -1.4318170000     -0.4728490000
C                  3.7623260000     -0.4697700000     -1.1643060000
C                  2.9188880000     -3.4651590000      1.0237320000
C                  1.4284950000     -3.4067380000      0.9557170000
C                  0.7671740000     -2.4141220000      0.2121510000
C                  1.5309280000     -1.3734060000     -0.5408840000
C                  0.6874940000     -4.3687630000      1.6471990000
C                 -0.6298830000     -2.3936560000      0.1627940000
C                 -1.3690680000     -3.3458530000      0.8518740000
O                  3.4905990000     -4.3240920000      1.6701090000
O                  0.9592170000     -0.5144750000     -1.1872630000
H                  5.5677740000     -3.2125010000      0.9073470000
H                 -2.4509040000     -3.3520440000      0.8083280000
H                  3.2447090000      0.3034830000     -1.7177170000
H                  1.2051530000     -5.1419630000      2.2006470000
H                 -1.1179710000     -1.6261650000     -0.4246130000
C                 -0.6973750000     -4.3188960000      1.5939410000
S                  6.1083820000      0.7154870000     -2.0119080000
H                  6.9007220000     -1.4865870000     -0.3255390000
S                 -1.6585800000     -5.5540680000      2.4947170000
O                 -0.8242560000     -6.7425930000      2.6286670000
O                 -2.9889440000     -5.5844400000      1.8951020000
N                 -1.8167760000     -4.8649380000      4.0272490000
H                 -1.3449590000     -5.4286000000      4.7270580000
H                 -2.7943620000     -4.7120320000      4.2526280000
O                  5.2739330000      1.9038940000     -2.1460690000
O                  7.4386700000      0.7460940000     -1.4121410000
N                  6.2667920000      0.0262280000     -3.5442520000
H                  7.2443170000     -0.1271160000     -3.7695300000
H                  5.7950260000      0.5895820000     -4.2443250000
$end

$rem
BASIS  =  6-311++G(d,p)
GUI  =  2
JOB_TYPE  =  SP
METHOD  =  B3LYP
SCF_CONVERGENCE  = 8
SOLVENT_METHOD = sm12
$end

$smx
solvent dimethylformamide
charges CM5
$end

--------------------------------------------------------------

             Standard Nuclear Orientation (Angstroms)
    I     Atom           X                Y                Z
 ----------------------------------------------------------------
    1      C       5.0797030000    -2.4449790000     0.3199690000
    2      C       5.8188840000    -1.4927630000    -0.3690730000
    3      C       5.1471940000    -0.5196680000    -1.1110920000
    4      C       3.6826380000    -2.4244720000     0.2706520000
    5      C       3.0213180000    -1.4318170000    -0.4728490000
    6      C       3.7623260000    -0.4697700000    -1.1643060000
    7      C       2.9188880000    -3.4651590000     1.0237320000
    8      C       1.4284950000    -3.4067380000     0.9557170000
    9      C       0.7671740000    -2.4141220000     0.2121510000
   10      C       1.5309280000    -1.3734060000    -0.5408840000
   11      C       0.6874940000    -4.3687630000     1.6471990000
   12      C      -0.6298830000    -2.3936560000     0.1627940000
   13      C      -1.3690680000    -3.3458530000     0.8518740000
   14      O       3.4905990000    -4.3240920000     1.6701090000
   15      O       0.9592170000    -0.5144750000    -1.1872630000
   16      H       5.5677740000    -3.2125010000     0.9073470000
   17      H      -2.4509040000    -3.3520440000     0.8083280000
   18      H       3.2447090000     0.3034830000    -1.7177170000
   19      H       1.2051530000    -5.1419630000     2.2006470000
   20      H      -1.1179710000    -1.6261650000    -0.4246130000
   21      C      -0.6973750000    -4.3188960000     1.5939410000
   22      S       6.1083820000     0.7154870000    -2.0119080000
   23      H       6.9007220000    -1.4865870000    -0.3255390000
   24      S      -1.6585800000    -5.5540680000     2.4947170000
   25      O      -0.8242560000    -6.7425930000     2.6286670000
   26      O      -2.9889440000    -5.5844400000     1.8951020000
   27      N      -1.8167760000    -4.8649380000     4.0272490000
   28      H      -1.3449590000    -5.4286000000     4.7270580000
   29      H      -2.7943620000    -4.7120320000     4.2526280000
   30      O       5.2739330000     1.9038940000    -2.1460690000
   31      O       7.4386700000     0.7460940000    -1.4121410000
   32      N       6.2667920000     0.0262280000    -3.5442520000
   33      H       7.2443170000    -0.1271160000    -3.7695300000
   34      H       5.7950260000     0.5895820000    -4.2443250000
 ----------------------------------------------------------------

   15   -1896.9760038796      9.14e-09  Convergence criterion met
 Total energy in the final basis set =    -1897.0198011088

                    Orbital Energies (a.u.)
 --------------------------------------------------------------

 Alpha MOs
 -- Occupied --
-89.0824 -89.0823 -19.1418 -19.1418 -19.1342 -19.1342 -19.1341 -19.1341
-14.3473 -14.3473 -10.2944 -10.2944 -10.2394 -10.2394 -10.2260 -10.2259
-10.2254 -10.2254 -10.2197 -10.2197 -10.2189 -10.2189 -10.2127 -10.2126
 -8.1439  -8.1439  -6.1068  -6.1068  -6.1063  -6.1063  -6.1048  -6.1048
 -1.1399  -1.1399  -1.0780  -1.0762  -1.0322  -1.0322  -0.9181  -0.9169
 -0.9123  -0.9040  -0.8381  -0.8045  -0.7983  -0.7956  -0.7171  -0.7169
 -0.6764  -0.6724  -0.6339  -0.6305  -0.6030  -0.5783  -0.5739  -0.5454
 -0.5368  -0.5362  -0.5243  -0.5224  -0.5167  -0.5156  -0.5044  -0.4819
 -0.4705  -0.4693  -0.4677  -0.4666  -0.4656  -0.4590  -0.4574  -0.4390
 -0.4309  -0.4165  -0.4135  -0.3994  -0.3898  -0.3858  -0.3735  -0.3732
 -0.3460  -0.3458  -0.3364  -0.3354  -0.3311  -0.3311  -0.3204  -0.3189
 -0.2991  -0.2984  -0.2926  -0.2901  -0.2866  -0.2851

          Ground-State Mulliken Net Atomic Charges

     Atom                 Charge (a.u.)
  ----------------------------------------
      1 C                     0.344263
      2 C                     0.111489
      3 C                    -0.553546
      4 C                     0.328365
      5 C                     0.010212
      6 C                    -0.042159
      7 C                    -1.002689
      8 C                     0.010248
      9 C                     0.328365
     10 C                    -1.002695
     11 C                    -0.042137
     12 C                     0.344362
     13 C                     0.111353
     14 O                    -0.253057
     15 O                    -0.253062
     16 H                     0.247706
     17 H                     0.324786
     18 H                     0.221313
     19 H                     0.221331
     20 H                     0.247719
     21 C                    -0.553650
     22 S                     0.207682
     23 H                     0.324803
     24 S                     0.207854
     25 O                    -0.298129
     26 O                    -0.278333
     27 N                    -0.139925
     28 H                     0.384743
     29 H                     0.387180
     30 O                    -0.298191
     31 O                    -0.278337
     32 N                    -0.139876
     33 H                     0.387223
     34 H                     0.384789
  ----------------------------------------
  Sum of atomic charges =     0.000000

                    Cartesian Multipole Moments
 -----------------------------------------------------------------
    Charge (ESU x 10^10)
                 0.0000
    Dipole Moment (Debye)
         X       0.0010      Y      -0.0011      Z      -0.0008
       Tot       0.0017
    Quadrupole Moments (Debye-Ang)
        XX    -149.0673     XY     -17.4717     YY    -196.1748
        XZ     -27.1900     YZ      -1.6628     ZZ    -119.9667

 Total job time:  1079.64s(wall), 8377.34s(cpu)
        *  Thank you very much for using Q-Chem.  Have a nice day.  *
