 Gaussian 16, Revision A.03,
 Gaussian 16:  ES64L-G16RevA.03 25-Dec-2016

 --------------------------------------
 #P UB3LYP/6-311++G(d,p) nosym opt freq
 --------------------------------------

 --------
 Oxidized
 --------
 Symbolic Z-matrix:
 Charge =  0 Multiplicity = 1

 SCF Done:  E(UB3LYP) =  -1896.97866452     A.U. after   17 cycles
 Optimization completed.
    -- Stationary point found.
 Normal termination of Gaussian 16 at Sun Jan  7 06:51:02 2024.

 ----------------------------------------------------------------------
 #P Geom=AllCheck Guess=TCheck SCRF=Check GenChk UB3LYP/6-311++G(d,p) F
 req
 ----------------------------------------------------------------------

 Structure from the checkpoint file:  "219.chk"
 --------
 Oxidized
 --------
 Charge =  0 Multiplicity = 1

                          Input orientation:
 ---------------------------------------------------------------------
 Center     Atomic      Atomic             Coordinates (Angstroms)
 Number     Number       Type             X           Y           Z
 ---------------------------------------------------------------------
      1          6           0        5.079703   -2.444979    0.319969
      2          6           0        5.818884   -1.492763   -0.369073
      3          6           0        5.147194   -0.519668   -1.111092
      4          6           0        3.682638   -2.424472    0.270652
      5          6           0        3.021318   -1.431817   -0.472849
      6          6           0        3.762326   -0.469770   -1.164306
      7          6           0        2.918888   -3.465159    1.023732
      8          6           0        1.428495   -3.406738    0.955717
      9          6           0        0.767174   -2.414122    0.212151
     10          6           0        1.530928   -1.373406   -0.540884
     11          6           0        0.687494   -4.368763    1.647199
     12          6           0       -0.629883   -2.393656    0.162794
     13          6           0       -1.369068   -3.345853    0.851874
     14          8           0        3.490599   -4.324092    1.670109
     15          8           0        0.959217   -0.514475   -1.187263
     16          1           0        5.567774   -3.212501    0.907347
     17          1           0       -2.450904   -3.352044    0.808328
     18          1           0        3.244709    0.303483   -1.717717
     19          1           0        1.205153   -5.141963    2.200647
     20          1           0       -1.117971   -1.626165   -0.424613
     21          6           0       -0.697375   -4.318896    1.593941
     22         16           0        6.108382    0.715487   -2.011908
     23          1           0        6.900722   -1.486587   -0.325539
     24         16           0       -1.658580   -5.554068    2.494717
     25          8           0       -0.824256   -6.742593    2.628667
     26          8           0       -2.988944   -5.584440    1.895102
     27          7           0       -1.816776   -4.864938    4.027249
     28          1           0       -1.344959   -5.428600    4.727058
     29          1           0       -2.794362   -4.712032    4.252628
     30          8           0        5.273933    1.903894   -2.146069
     31          8           0        7.438670    0.746094   -1.412141
     32          7           0        6.266792    0.026228   -3.544252
     33          1           0        7.244317   -0.127116   -3.769530
     34          1           0        5.795026    0.589582   -4.244325
 ---------------------------------------------------------------------

 SCF Done:  E(UB3LYP) =  -1896.97866452     A.U. after    2 cycles

 Alpha  occ. eigenvalues --  -89.09291 -89.09291 -19.14954 -19.14953 -19.14320
 Alpha  occ. eigenvalues --  -19.14320 -19.14288 -19.14287 -14.36849 -14.36849
 Alpha  occ. eigenvalues --  -10.30199 -10.30198 -10.24983 -10.24982 -10.23571
 Alpha  occ. eigenvalues --  -10.23570 -10.23504 -10.23503 -10.23043 -10.23043
 Alpha  occ. eigenvalues --  -10.22931 -10.22931 -10.22382 -10.22382  -8.15435
 Alpha  occ. eigenvalues --   -8.15434  -6.11733  -6.11733  -6.11667  -6.11667
 Alpha  occ. eigenvalues --   -6.11532  -6.11531  -1.14909  -1.14909  -1.08530
 Alpha  occ. eigenvalues --   -1.08339  -1.03999  -1.03998  -0.93763  -0.93755
 Alpha  occ. eigenvalues --   -0.92398  -0.91487  -0.84816  -0.81496  -0.80868
 Alpha  occ. eigenvalues --   -0.80570  -0.72806  -0.72701  -0.68740  -0.68391
 Alpha  occ. eigenvalues --   -0.64512  -0.64315  -0.61290  -0.58919  -0.58626
 Alpha  occ. eigenvalues --   -0.56066  -0.56039  -0.55814  -0.53500  -0.53181
 Alpha  occ. eigenvalues --   -0.52683  -0.52528  -0.51457  -0.49130  -0.48143
 Alpha  occ. eigenvalues --   -0.47774  -0.47655  -0.47644  -0.47360  -0.46753
 Alpha  occ. eigenvalues --   -0.46599  -0.44985  -0.43757  -0.42632  -0.42404
 Alpha  occ. eigenvalues --   -0.41055  -0.39935  -0.39618  -0.38414  -0.38385
 Alpha  occ. eigenvalues --   -0.35212  -0.35190  -0.34718  -0.34618  -0.33757
 Alpha  occ. eigenvalues --   -0.33748  -0.33364  -0.33353  -0.30987  -0.30527
 Alpha  occ. eigenvalues --   -0.30284  -0.30280  -0.29814  -0.29340
 Alpha virt. eigenvalues --   -0.14066  -0.10294  -0.07259  -0.05835  -0.02690
 Alpha virt. eigenvalues --   -0.02520  -0.01267  -0.00390   0.00114   0.00957
 Alpha virt. eigenvalues --    0.01378   0.01725   0.02062   0.02359   0.03334

  Beta  occ. eigenvalues --  -89.09291 -89.09291 -19.14954 -19.14953 -19.14320
  Beta  occ. eigenvalues --  -19.14320 -19.14288 -19.14287 -14.36849 -14.36849
  Beta  occ. eigenvalues --  -10.30199 -10.30198 -10.24983 -10.24982 -10.23571
  Beta  occ. eigenvalues --  -10.23570 -10.23504 -10.23503 -10.23043 -10.23043
  Beta  occ. eigenvalues --  -10.22931 -10.22931 -10.22382 -10.22382  -8.15435
  Beta  occ. eigenvalues --   -8.15434  -6.11733  -6.11733  -6.11667  -6.11667
  Beta  occ. eigenvalues --   -6.11532  -6.11531  -1.14909  -1.14909  -1.08530
  Beta  occ. eigenvalues --   -1.08339  -1.03999  -1.03998  -0.93763  -0.93755
  Beta  occ. eigenvalues --   -0.92398  -0.91487  -0.84816  -0.81496  -0.80868
  Beta  occ. eigenvalues --   -0.80570  -0.72806  -0.72701  -0.68740  -0.68391
  Beta  occ. eigenvalues --   -0.64512  -0.64315  -0.61290  -0.58919  -0.58626
  Beta  occ. eigenvalues --   -0.56066  -0.56039  -0.55814  -0.53500  -0.53181
  Beta  occ. eigenvalues --   -0.52683  -0.52528  -0.51457  -0.49130  -0.48143
  Beta  occ. eigenvalues --   -0.47774  -0.47655  -0.47644  -0.47360  -0.46753
  Beta  occ. eigenvalues --   -0.46599  -0.44985  -0.43757  -0.42632  -0.42404
  Beta  occ. eigenvalues --   -0.41055  -0.39935  -0.39618  -0.38414  -0.38385
  Beta  occ. eigenvalues --   -0.35212  -0.35190  -0.34718  -0.34618  -0.33757
  Beta  occ. eigenvalues --   -0.33748  -0.33364  -0.33353  -0.30987  -0.30527
  Beta  occ. eigenvalues --   -0.30284  -0.30280  -0.29814  -0.29340
  Beta virt. eigenvalues --   -0.14066  -0.10294  -0.07259  -0.05835  -0.02690
  Beta virt. eigenvalues --   -0.02520  -0.01267  -0.00390   0.00114   0.00957
  Beta virt. eigenvalues --    0.01378   0.01725   0.02062   0.02359   0.03334

 Mulliken charges and spin densities:
               1          2
     1  C    0.018339  -0.000000
     2  C   -0.360953  -0.000000
     3  C   -0.318309  -0.000000
     4  C    0.517783   0.000000
     5  C    0.181589   0.000000
     6  C   -0.023065   0.000000
     7  C   -0.737808   0.000000
     8  C    0.181518  -0.000000
     9  C    0.517690   0.000000
    10  C   -0.737831   0.000000
    11  C   -0.023116  -0.000000
    12  C    0.018467  -0.000000
    13  C   -0.360875  -0.000000
    14  O   -0.182802  -0.000000
    15  O   -0.182798   0.000000
    16  H    0.192123  -0.000000
    17  H    0.254083   0.000000
    18  H    0.255473   0.000000
    19  H    0.255456   0.000000
    20  H    0.192128   0.000000
    21  C   -0.318410   0.000000
    22  S    0.314427   0.000000
    23  H    0.254066   0.000000
    24  S    0.314526   0.000000
    25  O   -0.190790   0.000000
    26  O   -0.196284   0.000000
    27  N   -0.349191  -0.000000
    28  H    0.311868  -0.000000
    29  H    0.313560  -0.000000
    30  O   -0.190805   0.000000
    31  O   -0.196261   0.000000
    32  N   -0.349280   0.000000
    33  H    0.313575  -0.000000
    34  H    0.311903   0.000000
 Sum of Mulliken charges =  -0.00000  -0.00000

 Dipole moment (field-independent basis, Debye):
    X=              0.0007    Y=             -0.0010    Z=             -0.0007  Tot=              0.0014
 Quadrupole moment (field-independent basis, Debye-Ang):
   XX=           -151.7580   YY=           -192.7480   ZZ=           -124.4998
   XY=            -16.7350   XZ=            -23.3048   YZ=             -1.0736

  Exact polarizability: 311.746  52.247 234.028 -42.543 -78.230 199.222
 Approx polarizability: 470.335  -2.728 382.973   5.090-119.847 309.086

                      1                      2                      3
                      A                      A                      A
 Frequencies --     20.3214                22.5659                27.2367
 Red. masses --     10.2414                 7.3743                 7.5281
 Frc consts  --      0.0025                 0.0022                 0.0033
 IR Inten    --      1.4376                 4.0067                 0.0007

                      4                      5                      6
                      A                      A                      A
 Frequencies --     67.5811                71.5867                79.2884
 Red. masses --      7.3166                 6.8939                10.1420
 Frc consts  --      0.0197                 0.0208                 0.0376
 IR Inten    --      0.0000                 6.9181                 0.3313

                      7                      8                      9
                      A                      A                      A
 Frequencies --    119.5187               125.5927               134.6951
 Red. masses --      7.0637                 4.0424                 5.0839
 Frc consts  --      0.0595                 0.0376                 0.0543
 IR Inten    --      0.0000                 5.7804                 0.0000

                     10                     11                     12
                      A                      A                      A
 Frequencies --    160.9587               161.1461               168.3882
 Red. masses --      1.4485                 1.4184                 7.4045
 Frc consts  --      0.0221                 0.0217                 0.1237
 IR Inten    --     12.2909                27.1732                 7.1544

                     13                     14                     15
                      A                      A                      A
 Frequencies --    190.5834               218.5053               228.8172
 Red. masses --      6.8693                 7.4776                 7.0446
 Frc consts  --      0.1470                 0.2103                 0.2173
 IR Inten    --      0.0000                 0.0000                 7.2024

                     16                     17                     18
                      A                      A                      A
 Frequencies --    268.9533               279.4561               306.5814
 Red. masses --      9.5939                 8.5523                 6.7864
 Frc consts  --      0.4089                 0.3935                 0.3758
 IR Inten    --      3.6687                 0.0000                 3.2957

                     19                     20                     21
                      A                      A                      A
 Frequencies --    324.2305               367.9108               370.3429
 Red. masses --      6.1995                 3.1266                 3.1504
 Frc consts  --      0.3840                 0.2494                 0.2546
 IR Inten    --      0.0000                 4.0007                 0.0001

                     22                     23                     24
                      A                      A                      A
 Frequencies --    401.4073               412.3738               419.6290
 Red. masses --      7.5146                 9.4544                 3.5919
 Frc consts  --      0.7134                 0.9473                 0.3727
 IR Inten    --      0.0000                75.4054                 0.4051

                     25                     26                     27
                      A                      A                      A
 Frequencies --    433.3021               439.1446               443.8864
 Red. masses --      5.9604                 5.5779                 9.1792
 Frc consts  --      0.6593                 0.6338                 1.0656
 IR Inten    --      0.0000                 0.1743                 0.0000

                     28                     29                     30
                      A                      A                      A
 Frequencies --    447.2488               464.2038               468.0112
 Red. masses --      3.4731                 8.1225                 9.0495
 Frc consts  --      0.4093                 1.0312                 1.1678
 IR Inten    --      0.0000                 6.6802                 0.0000

                     31                     32                     33
                      A                      A                      A
 Frequencies --    498.9368               527.2699               555.0489
 Red. masses --      7.2760                 7.2940                 3.6885
 Frc consts  --      1.0672                 1.1948                 0.6695
 IR Inten    --      0.0000                 0.0001               274.5347

                     34                     35                     36
                      A                      A                      A
 Frequencies --    579.3532               587.6124               621.4052
 Red. masses --      5.8885                 3.6165                 2.7411
 Frc consts  --      1.1645                 0.7357                 0.6236
 IR Inten    --     45.5674                 0.0026                 1.7908

                     37                     38                     39
                      A                      A                      A
 Frequencies --    623.7722               655.9401               678.6962
 Red. masses --      2.4178                 7.4567                 4.2427
 Frc consts  --      0.5543                 1.8903                 1.1514
 IR Inten    --    400.5408                16.0070                 0.0002

                     40                     41                     42
                      A                      A                      A
 Frequencies --    682.4712               699.2159               724.5269
 Red. masses --      6.7782                 7.0455                 4.1283
 Frc consts  --      1.8601                 2.0295                 1.2768
 IR Inten    --     18.6218                 0.0000                26.3386

                     43                     44                     45
                      A                      A                      A
 Frequencies --    731.0653               758.3637               807.6608
 Red. masses --      6.6863                 5.2577                 4.5620
 Frc consts  --      2.1055                 1.7816                 1.7533
 IR Inten    --      0.0001                23.1828                 0.0000

                     46                     47                     48
                      A                      A                      A
 Frequencies --    821.9096               846.5371               868.4051
 Red. masses --      3.5879                 2.9561                 4.6286
 Frc consts  --      1.4280                 1.2481                 2.0566
 IR Inten    --    207.4553                 0.0003               227.6168

                     49                     50                     51
                      A                      A                      A
 Frequencies --    873.6674               879.5576               952.7184
 Red. masses --      1.4764                 1.4696                 1.4160
 Frc consts  --      0.6640                 0.6698                 0.7573
 IR Inten    --      0.0000                19.3129                 0.0002

                     52                     53                     54
                      A                      A                      A
 Frequencies --    953.8484               968.2680               973.8709
 Red. masses --      1.4339                 6.8191                 5.4377
 Frc consts  --      0.7686                 3.7668                 3.0386
 IR Inten    --     12.5075                 0.0000               180.1139

                     55                     56                     57
                      A                      A                      A
 Frequencies --   1012.9568              1015.1569              1082.5210
 Red. masses --      1.3460                 1.3659                 2.3679
 Frc consts  --      0.8137                 0.8293                 1.6349
 IR Inten    --      0.0000                 1.5135                54.6013

                     58                     59                     60
                      A                      A                      A
 Frequencies --   1082.7729              1089.4756              1089.5744
 Red. masses --      2.9380                 1.3037                 1.3031
 Frc consts  --      2.0294                 0.9118                 0.9114
 IR Inten    --      0.0004                 7.2012                 5.6053

                     61                     62                     63
                      A                      A                      A
 Frequencies --   1103.2799              1117.3639              1137.1057
 Red. masses --      6.3683                 4.0049                 1.8846
 Frc consts  --      4.5671                 2.9460                 1.4357
 IR Inten    --    386.4986                 0.0000                 0.0004

                     64                     65                     66
                      A                      A                      A
 Frequencies --   1137.9505              1185.2408              1186.5800
 Red. masses --      2.6637                 1.8305                 4.0202
 Frc consts  --      2.0323                 1.5150                 3.3349
 IR Inten    --    164.8562                52.7084                 0.0000

                     67                     68                     69
                      A                      A                      A
 Frequencies --   1230.2427              1274.1311              1292.0889
 Red. masses --      1.7924                 1.4287                 1.8430
 Frc consts  --      1.5983                 1.3666                 1.8129
 IR Inten    --      0.0000                49.5847                 0.0000

                     70                     71                     72
                      A                      A                      A
 Frequencies --   1302.1231              1323.1497              1324.6418
 Red. masses --      5.4833                10.2350                 9.9772
 Frc consts  --      5.4777                10.5574                10.3146
 IR Inten    --    650.9627               311.2411                 0.0006

                     73                     74                     75
                      A                      A                      A
 Frequencies --   1350.0824              1362.4755              1423.4018
 Red. masses --      9.3078                 8.1942                 3.8551
 Frc consts  --      9.9958                 8.9622                 4.6020
 IR Inten    --     70.2888                 0.0000                 8.4271

                     76                     77                     78
                      A                      A                      A
 Frequencies --   1440.3957              1495.3011              1503.0490
 Red. masses --      4.8674                 2.6001                 2.5647
 Frc consts  --      5.9499                 3.4253                 3.4138
 IR Inten    --      0.0000                10.1305                 0.0000

                     79                     80                     81
                      A                      A                      A
 Frequencies --   1585.4483              1585.4735              1598.7604
 Red. masses --      1.0967                 1.0966                 7.7217
 Frc consts  --      1.6242                 1.6242                11.6287
 IR Inten    --     24.3736                46.9380                 3.5192

                     82                     83                     84
                      A                      A                      A
 Frequencies --   1612.9759              1621.3894              1627.5386
 Red. masses --      8.4784                 6.3936                 6.2127
 Frc consts  --     12.9963                 9.9030                 9.6961
 IR Inten    --      0.0000               115.8540                 0.0000

                     85                     86                     87
                      A                      A                      A
 Frequencies --   1728.5662              1738.0543              3197.4972
 Red. masses --     12.8288                12.3559                 1.0886
 Frc consts  --     22.5844                21.9913                 6.5578
 IR Inten    --      0.0000               314.5210                 6.9688

                     88                     89                     90
                      A                      A                      A
 Frequencies --   3197.5164              3208.3183              3208.4934
 Red. masses --      1.0887                 1.0917                 1.0915
 Frc consts  --      6.5580                 6.6205                 6.6202
 IR Inten    --      0.0347                 0.0088                12.9811

                     91                     92                     93
                      A                      A                      A
 Frequencies --   3209.4941              3209.7274              3511.7485
 Red. masses --      1.0948                 1.0946                 1.0460
 Frc consts  --      6.6445                 6.6439                 7.6000
 IR Inten    --      0.8195                 0.0002               104.4900

                     94                     95                     96
                      A                      A                      A
 Frequencies --   3511.9290              3620.1236              3620.3051
 Red. masses --      1.0460                 1.0997                 1.0997
 Frc consts  --      7.6009                 8.4913                 8.4922
 IR Inten    --     29.3216                48.7328                54.2917

 - Thermochemistry -
 -------------------
 Temperature   298.150 Kelvin.  Pressure   1.00000 Atm.
 Atom     1 has atomic number  6 and mass  12.00000

 Molecular mass:   365.99803 amu.
 Principal axes and moments of inertia in atomic units:
                           1         2         3
     Eigenvalues --  2580.91315********************
           X            0.72805   0.68547  -0.00842
           Y            0.54657  -0.57302   0.61067
           Z           -0.41377   0.44920   0.79184
 This molecule is an asymmetric top.
 Rotational symmetry number  1.
 Warning -- assumption of classical behavior for rotation
           may cause significant error
 Rotational temperatures (Kelvin)      0.03356     0.00378     0.00351
 Rotational constants (GHZ):           0.69926     0.07883     0.07304
 Zero-point vibrational energy     608109.7 (Joules/Mol)
                                  145.34172 (Kcal/Mol)
 Warning -- explicit consideration of  35 degrees of freedom as
           vibrations may cause significant error
 Vibrational temperatures:     29.24    32.47    39.19    97.23   103.00
          (Kelvin)            114.08   171.96   180.70   193.80   231.58
                              231.85   242.27   274.21   314.38   329.22
                              386.96   402.07   441.10   466.50   529.34
                              532.84   577.54   593.31   603.75   623.43
                              631.83   638.65   643.49   667.89   673.36
                              717.86   758.62   798.59   833.56   845.44
                              894.06   897.47   943.75   976.49   981.92
                             1006.02  1042.43  1051.84  1091.12  1162.04
                             1182.54  1217.98  1249.44  1257.01  1265.49
                             1370.75  1372.38  1393.12  1401.18  1457.42
                             1460.58  1557.51  1557.87  1567.51  1567.65
                             1587.37  1607.64  1636.04  1637.26  1705.30
                             1707.22  1770.04  1833.19  1859.03  1873.46
                             1903.72  1905.86  1942.47  1960.30  2047.96
                             2072.41  2151.40  2162.55  2281.11  2281.14
                             2300.26  2320.71  2332.82  2341.67  2487.02
                             2500.67  4600.49  4600.51  4616.05  4616.31
                             4617.75  4618.08  5052.62  5052.88  5208.55
                             5208.81

 Zero-point correction=                           0.231617 (Hartree/Particle)
 Thermal correction to Energy=                    0.252935
 Thermal correction to Enthalpy=                  0.253880
 Thermal correction to Gibbs Free Energy=         0.179350
 Sum of electronic and zero-point Energies=          -1896.747048
 Sum of electronic and thermal Energies=             -1896.725729
 Sum of electronic and thermal Enthalpies=           -1896.724785
 Sum of electronic and thermal Free Energies=        -1896.799315

                     E (Thermal)             CV                S
                      KCal/Mol        Cal/Mol-Kelvin    Cal/Mol-Kelvin
 Total                  158.719             80.830            156.861
 Electronic               0.000              0.000              0.000
 Translational            0.889              2.981             43.585
 Rotational               0.889              2.981             35.633
 Vibrational            156.942             74.869             77.643
 Vibration     1          0.593              1.986              6.603
 Vibration     2          0.593              1.985              6.395
 Vibration     3          0.593              1.984              6.021
 Vibration     4          0.598              1.970              4.223
 Vibration     5          0.598              1.968              4.109
 Vibration     6          0.600              1.963              3.908
 Vibration     7          0.609              1.933              3.108
 Vibration     8          0.611              1.927              3.012
 Vibration     9          0.613              1.919              2.878
 Vibration    10          0.622              1.890              2.538
 Vibration    11          0.622              1.890              2.536
 Vibration    12          0.625              1.881              2.453
 Vibration    13          0.634              1.853              2.222
 Vibration    14          0.646              1.813              1.971
 Vibration    15          0.651              1.797              1.888
 Vibration    16          0.673              1.730              1.603
 Vibration    17          0.680              1.712              1.537
 Vibration    18          0.697              1.661              1.381
 Vibration    19          0.709              1.627              1.289
 Vibration    20          0.741              1.538              1.088
 Vibration    21          0.742              1.533              1.078
 Vibration    22          0.767              1.467              0.957
 Vibration    23          0.776              1.443              0.918
 Vibration    24          0.782              1.428              0.893
 Vibration    25          0.794              1.398              0.848
 Vibration    26          0.799              1.385              0.829
 Vibration    27          0.803              1.374              0.814
 Vibration    28          0.806              1.367              0.804
 Vibration    29          0.822              1.329              0.754
 Vibration    30          0.825              1.321              0.743
 Vibration    31          0.854              1.252              0.661
 Vibration    32          0.882              1.190              0.593
 Vibration    33          0.910              1.129              0.534
 Vibration    34          0.936              1.076              0.487
 Vibration    35          0.945              1.058              0.471

 Optimization completed.
    -- Stationary point found.
 Normal termination of Gaussian 16 at Sun Jan  7 09:09:30 2024.
