 Q-Chem 5.4, Q-Chem, Inc., Pleasanton, CA (2021)
 Q-Chem 5.4.0 for Intel X86 EM64T Linux

User input:
--------------------------------------------------------------
$molecule
0 1
O                  4.3931520000     -1.5011540000     -0.4083460000
C                  3.2740540000     -0.7522710000     -0.3158620000
C                  3.3447320000      0.6231250000     -0.3671650000
C                  2.1857830000      1.4133420000     -0.2719890000
O                  2.2956820000      2.7620530000     -0.3264810000
C                  0.9228080000      0.8149860000     -0.1217140000
C                 -0.3169950000      1.6165580000     -0.0187990000
O                 -0.3342910000      2.8366220000     -0.0559350000
C                 -1.6102900000      0.8672870000      0.1393810000
C                 -2.7974840000      1.5978860000      0.2390210000
C                 -4.0137210000      0.9415040000      0.3862680000
C                 -4.0607780000     -0.4554230000      0.4360150000
C                 -2.8884180000     -1.1917320000      0.3380210000
C                 -1.6600770000     -0.5345240000      0.1895510000
C                 -0.4197450000     -1.3244910000      0.0862350000
O                 -0.4565470000     -2.5659390000      0.1298040000
C                  0.8583870000     -0.6132060000     -0.0692760000
C                  2.0200000000     -1.3855060000     -0.1652140000
O                  2.0544570000     -2.7322960000     -0.1256810000
H                  4.1354120000     -2.4336790000     -0.3520180000
H                  4.3175100000      1.0899810000     -0.4832040000
H                  3.2234270000      3.0019280000     -0.4301370000
H                 -2.7396810000      2.6782940000      0.1982560000
H                 -4.9300740000      1.5159910000      0.4628480000
H                 -5.0115310000     -0.9631580000      0.5509270000
H                 -2.8978960000     -2.2737920000      0.3736800000
H                  1.1121230000     -3.0323860000     -0.0181860000
$end
$rem
MAX_SCF_CYCLES=200
BASIS  =  6-311++G(d,p)
GUI  =  2
JOB_TYPE  =  SP
METHOD  =  B3LYP
SOLVENT_METHOD = PCM
$end
$pcm
theory = CPCM
$end
$solvent
dielectric 37.219
opticaldielectric 1.43
$end

--------------------------------------------------------------

             Standard Nuclear Orientation (Angstroms)
    I     Atom           X                Y                Z
 ----------------------------------------------------------------
    1      O       4.3931520000    -1.5011540000    -0.4083460000
    2      C       3.2740540000    -0.7522710000    -0.3158620000
    3      C       3.3447320000     0.6231250000    -0.3671650000
    4      C       2.1857830000     1.4133420000    -0.2719890000
    5      O       2.2956820000     2.7620530000    -0.3264810000
    6      C       0.9228080000     0.8149860000    -0.1217140000
    7      C      -0.3169950000     1.6165580000    -0.0187990000
    8      O      -0.3342910000     2.8366220000    -0.0559350000
    9      C      -1.6102900000     0.8672870000     0.1393810000
   10      C      -2.7974840000     1.5978860000     0.2390210000
   11      C      -4.0137210000     0.9415040000     0.3862680000
   12      C      -4.0607780000    -0.4554230000     0.4360150000
   13      C      -2.8884180000    -1.1917320000     0.3380210000
   14      C      -1.6600770000    -0.5345240000     0.1895510000
   15      C      -0.4197450000    -1.3244910000     0.0862350000
   16      O      -0.4565470000    -2.5659390000     0.1298040000
   17      C       0.8583870000    -0.6132060000    -0.0692760000
   18      C       2.0200000000    -1.3855060000    -0.1652140000
   19      O       2.0544570000    -2.7322960000    -0.1256810000
   20      H       4.1354120000    -2.4336790000    -0.3520180000
   21      H       4.3175100000     1.0899810000    -0.4832040000
   22      H       3.2234270000     3.0019280000    -0.4301370000
   23      H      -2.7396810000     2.6782940000     0.1982560000
   24      H      -4.9300740000     1.5159910000     0.4628480000
   25      H      -5.0115310000    -0.9631580000     0.5509270000
   26      H      -2.8978960000    -2.2737920000     0.3736800000
   27      H       1.1121230000    -3.0323860000    -0.0181860000
 ----------------------------------------------------------------

    8    -914.7253901593      9.80e-06  Convergence criterion met
 Total energy in the final basis set =     -914.7253901593

                    Orbital Energies (a.u.)
 --------------------------------------------------------------

 Alpha MOs
 -- Occupied --
-19.1787 -19.1721 -19.1702 -19.1410 -19.1192 -10.2905 -10.2777 -10.2701
-10.2678 -10.2666 -10.2141 -10.2074 -10.2064 -10.2054 -10.1992 -10.1968
-10.1965 -10.1949 -10.1935  -1.1084  -1.0893  -1.0842  -1.0606  -1.0558
 -0.8930  -0.8784  -0.8140  -0.7781  -0.7734  -0.7680  -0.6984  -0.6791
 -0.6599  -0.6332  -0.6104  -0.5997  -0.5656  -0.5575  -0.5369  -0.5236
 -0.5097  -0.4940  -0.4806  -0.4760  -0.4628  -0.4606  -0.4503  -0.4434
 -0.4425  -0.4352  -0.4340  -0.4080  -0.4055  -0.3996  -0.3949  -0.3925
 -0.3803  -0.3753  -0.3669  -0.3292  -0.2953  -0.2847  -0.2772  -0.2690
 -0.2670  -0.2329

          Ground-State Mulliken Net Atomic Charges

     Atom                 Charge (a.u.)
  ----------------------------------------
      1 O                    -0.271839
      2 C                    -0.380190
      3 C                     0.157094
      4 C                    -0.140495
      5 O                    -0.227472
      6 C                     0.390786
      7 C                    -0.283598
      8 O                    -0.320190
      9 C                    -0.227399
     10 C                     0.166654
     11 C                    -0.498958
     12 C                    -0.491853
     13 C                     0.181893
     14 C                     0.210824
     15 C                    -0.353725
     16 O                    -0.326893
     17 C                     0.918129
     18 C                    -0.235067
     19 O                    -0.400728
     20 H                     0.330978
     21 H                     0.249423
     22 H                     0.327688
     23 H                     0.191035
     24 H                     0.222702
     25 H                     0.222043
     26 H                     0.200392
     27 H                     0.388767
  ----------------------------------------
  Sum of atomic charges =     0.000000

                    Cartesian Multipole Moments
 -----------------------------------------------------------------
    Charge (ESU x 10^10)
                 0.0000
    Dipole Moment (Debye)
         X       0.4290      Y      -1.4758      Z       0.0008
       Tot       1.5369
    Quadrupole Moments (Debye-Ang)
        XX     -77.0710     XY       6.4218     YY    -118.2442
        XZ      -3.6654     YZ      -0.4186     ZZ    -110.1018

 Total job time:  87.49s(wall), 375.93s(cpu)
        *  Thank you very much for using Q-Chem.  Have a nice day.  *
