 Gaussian 16, Revision A.03,
 Gaussian 16:  ES64L-G16RevA.03 25-Dec-2016

 ----------------------------------------------------------------
 #P UB3LYP/6-311++G(d,p) SCRF=(PCM,Solvent=n,n-DiMethylFormamide)
 ----------------------------------------------------------------

 ------------------
 Quinone PCM in DMF
 ------------------
 Symbolic Z-matrix:
 Charge =  0 Multiplicity = 1

                         Standard orientation:
 ---------------------------------------------------------------------
 Center     Atomic      Atomic             Coordinates (Angstroms)
 Number     Number       Type             X           Y           Z
 ---------------------------------------------------------------------
      1          8           0       -4.349838   -0.914799    0.000428
      2          6           0       -3.135477   -0.325660    0.000136
      3          6           0       -3.022692    1.047884    0.000081
      4          6           0       -1.763146    1.672552   -0.000090
      5          8           0       -1.692976    3.025010   -0.000173
      6          6           0       -0.584936    0.906042   -0.000119
      7          6           0        0.756622    1.530896   -0.000001
      8          8           0        0.936346    2.738345   -0.000120
      9          6           0        1.944925    0.610583    0.000042
     10          6           0        3.224625    1.172278    0.000245
     11          6           0        4.348554    0.354639    0.000250
     12          6           0        4.209396   -1.037026    0.000100
     13          6           0        2.943703   -1.606413   -0.000027
     14          6           0        1.807834   -0.786297   -0.000091
     15          6           0        0.467297   -1.399573   -0.000234
     16          8           0        0.338618   -2.635651   -0.000248
     17          6           0       -0.710975   -0.519001   -0.000157
     18          6           0       -1.970778   -1.125541   -0.000074
     19          8           0       -2.184460   -2.456305   -0.000077
     20          1           0       -4.217353   -1.874827    0.000698
     21          1           0       -3.929395    1.644211    0.000204
     22          1           0       -2.585013    3.390067   -0.000491
     23          1           0        3.310923    2.251554    0.000429
     24          1           0        5.337717    0.798665    0.000398
     25          1           0        5.088704   -1.670862    0.000125
     26          1           0        2.809040   -2.680694   -0.000068
     27          1           0       -1.285873   -2.883090   -0.000154
 ---------------------------------------------------------------------

 SCF Done:  E(UB3LYP) =  -914.717843222     A.U. after   16 cycles

 The electronic state is 1-A.
 Alpha  occ. eigenvalues --  -19.18207 -19.17602 -19.17270 -19.14307 -19.11983
 Alpha  occ. eigenvalues --  -10.29240 -10.27860 -10.27274 -10.27058 -10.26887
 Alpha  occ. eigenvalues --  -10.21653 -10.20966 -10.20861 -10.20777 -10.20317
 Alpha  occ. eigenvalues --  -10.19980 -10.19970 -10.19818 -10.19629  -1.11139
 Alpha  occ. eigenvalues --   -1.09317  -1.08697  -1.06273  -1.05631  -0.89538
 Alpha  occ. eigenvalues --   -0.88102  -0.81677  -0.78062  -0.77626  -0.77067
 Alpha  occ. eigenvalues --   -0.70104  -0.68205  -0.66259  -0.63629  -0.61431
 Alpha  occ. eigenvalues --   -0.60236  -0.56839  -0.56044  -0.53985  -0.52623
 Alpha  occ. eigenvalues --   -0.51234  -0.49677  -0.48371  -0.47832  -0.46573
 Alpha  occ. eigenvalues --   -0.46250  -0.45291  -0.44489  -0.44452  -0.43862
 Alpha  occ. eigenvalues --   -0.43622  -0.40980  -0.40779  -0.40256  -0.39723
 Alpha  occ. eigenvalues --   -0.39527  -0.38339  -0.37729  -0.36991  -0.33141
 Alpha  occ. eigenvalues --   -0.29716  -0.28694  -0.27935  -0.26981  -0.26962
 Alpha  occ. eigenvalues --   -0.23509
 Alpha virt. eigenvalues --   -0.11954  -0.06906  -0.03788  -0.01531  -0.01010
 Alpha virt. eigenvalues --   -0.00091  -0.00072   0.01609   0.01853   0.03204
 Alpha virt. eigenvalues --    0.03364   0.03787   0.04010   0.04073   0.04512

  Beta  occ. eigenvalues --  -19.18207 -19.17602 -19.17270 -19.14307 -19.11983
  Beta  occ. eigenvalues --  -10.29240 -10.27860 -10.27274 -10.27058 -10.26887
  Beta  occ. eigenvalues --  -10.21653 -10.20966 -10.20861 -10.20777 -10.20317
  Beta  occ. eigenvalues --  -10.19980 -10.19970 -10.19818 -10.19629  -1.11139
  Beta  occ. eigenvalues --   -1.09317  -1.08697  -1.06273  -1.05631  -0.89538
  Beta  occ. eigenvalues --   -0.88102  -0.81677  -0.78062  -0.77626  -0.77067
  Beta  occ. eigenvalues --   -0.70104  -0.68205  -0.66259  -0.63629  -0.61431
  Beta  occ. eigenvalues --   -0.60236  -0.56839  -0.56044  -0.53985  -0.52623
  Beta  occ. eigenvalues --   -0.51234  -0.49677  -0.48371  -0.47832  -0.46573
  Beta  occ. eigenvalues --   -0.46250  -0.45291  -0.44489  -0.44452  -0.43862
  Beta  occ. eigenvalues --   -0.43622  -0.40980  -0.40779  -0.40256  -0.39723
  Beta  occ. eigenvalues --   -0.39527  -0.38339  -0.37729  -0.36991  -0.33141
  Beta  occ. eigenvalues --   -0.29716  -0.28694  -0.27935  -0.26981  -0.26962
  Beta  occ. eigenvalues --   -0.23509
  Beta virt. eigenvalues --   -0.11954  -0.06906  -0.03788  -0.01531  -0.01010
  Beta virt. eigenvalues --   -0.00091  -0.00072   0.01609   0.01853   0.03204
  Beta virt. eigenvalues --    0.03364   0.03787   0.04010   0.04073   0.04512

 Mulliken charges and spin densities:
               1          2
     1  O   -0.258408  -0.000000
     2  C   -0.387360   0.000000
     3  C    0.164753   0.000000
     4  C   -0.119408   0.000000
     5  O   -0.204592   0.000000
     6  C    0.401209   0.000000
     7  C   -0.308065   0.000000
     8  O   -0.301762   0.000000
     9  C   -0.217115   0.000000
    10  C    0.185148   0.000000
    11  C   -0.485617  -0.000000
    12  C   -0.479968   0.000000
    13  C    0.199230   0.000000
    14  C    0.219969  -0.000000
    15  C   -0.370360  -0.000000
    16  O   -0.314011   0.000000
    17  C    0.910548  -0.000000
    18  C   -0.250179  -0.000000
    19  O   -0.391687   0.000000
    20  H    0.317112   0.000000
    21  H    0.222414   0.000000
    22  H    0.307504  -0.000000
    23  H    0.181357  -0.000000
    24  H    0.207013   0.000000
    25  H    0.206270   0.000000
    26  H    0.188915  -0.000000
    27  H    0.377091  -0.000000
 Sum of Mulliken charges =  -0.00000   0.00000

 Dipole moment (field-independent basis, Debye):
    X=             -0.4593    Y=             -1.3376    Z=              0.0007  Tot=              1.4143
 Quadrupole moment (field-independent basis, Debye-Ang):
   XX=            -81.1638   YY=           -115.5925   ZZ=           -110.4017
   XY=            -11.4927   XZ=              0.0016   YZ=             -0.0031

 Normal termination of Gaussian 16 at Tue Jan 16 05:07:42 2024.
