 Q-Chem 5.4, Q-Chem, Inc., Pleasanton, CA (2021)
 Q-Chem 5.4.0 for Intel X86 EM64T Linux

User input:
--------------------------------------------------------------
$molecule
-1 2
C                  5.7618090000     -5.2832010000      1.2484080000
C                  6.7319010000     -5.1537970000      0.2765100000
C                  6.6141250000     -4.1401580000     -0.6878170000
C                  4.6580120000     -4.4109860000      1.2825960000
C                  4.5310050000     -3.3756280000      0.3042550000
C                  5.5426370000     -3.2532830000     -0.6965980000
C                  3.6590020000     -4.6131700000      2.3553040000
C                  2.5524230000     -3.7023260000      2.3525690000
C                  2.4210360000     -2.7036910000      1.4173140000
C                  3.3634090000     -2.4664550000      0.3560480000
O                  3.7849050000     -5.5317470000      3.2110600000
O                  3.1833470000     -1.5299310000     -0.4726440000
H                  5.8111300000     -6.0504020000      2.0123130000
C                  5.5115850000     -2.1973390000     -1.7802120000
H                  7.5832870000     -5.8282500000      0.2523840000
H                  7.3795360000     -4.0402470000     -1.4530530000
H                  1.8096860000     -3.8373100000      3.1341920000
H                  1.5700710000     -2.0284130000      1.4416620000
H                  5.4960870000     -1.1896940000     -1.3605530000
H                  4.6082100000     -2.2700260000     -2.3883520000
H                  6.3910940000     -2.3063570000     -2.4246970000
$end
$rem
MAX_SCF_CYCLES=200
BASIS  =  6-311++G(d,p)
GUI  =  2
JOB_TYPE  =  SP
METHOD  =  B3LYP
SOLVENT_METHOD = PCM
$end
$pcm
theory = CPCM
$end
$solvent
dielectric 37.219
opticaldielectric 1.43
$end

--------------------------------------------------------------

             Standard Nuclear Orientation (Angstroms)
    I     Atom           X                Y                Z
 ----------------------------------------------------------------
    1      C       5.7618090000    -5.2832010000     1.2484080000
    2      C       6.7319010000    -5.1537970000     0.2765100000
    3      C       6.6141250000    -4.1401580000    -0.6878170000
    4      C       4.6580120000    -4.4109860000     1.2825960000
    5      C       4.5310050000    -3.3756280000     0.3042550000
    6      C       5.5426370000    -3.2532830000    -0.6965980000
    7      C       3.6590020000    -4.6131700000     2.3553040000
    8      C       2.5524230000    -3.7023260000     2.3525690000
    9      C       2.4210360000    -2.7036910000     1.4173140000
   10      C       3.3634090000    -2.4664550000     0.3560480000
   11      O       3.7849050000    -5.5317470000     3.2110600000
   12      O       3.1833470000    -1.5299310000    -0.4726440000
   13      H       5.8111300000    -6.0504020000     2.0123130000
   14      C       5.5115850000    -2.1973390000    -1.7802120000
   15      H       7.5832870000    -5.8282500000     0.2523840000
   16      H       7.3795360000    -4.0402470000    -1.4530530000
   17      H       1.8096860000    -3.8373100000     3.1341920000
   18      H       1.5700710000    -2.0284130000     1.4416620000
   19      H       5.4960870000    -1.1896940000    -1.3605530000
   20      H       4.6082100000    -2.2700260000    -2.3883520000
   21      H       6.3910940000    -2.3063570000    -2.4246970000
 ----------------------------------------------------------------

    8    -574.7353450270      7.80e-06  Convergence criterion met
 Total energy in the final basis set =     -574.7353450270

                    Orbital Energies (a.u.)
 --------------------------------------------------------------

 Alpha MOs
 -- Occupied --
-19.0766 -19.0738 -10.2224 -10.2211 -10.1826 -10.1753 -10.1725 -10.1698
-10.1659 -10.1648 -10.1606 -10.1599 -10.1522  -1.0004  -0.9976  -0.8572
 -0.8024  -0.7683  -0.7372  -0.6890  -0.6642  -0.6108  -0.6039  -0.5412
 -0.5018  -0.4961  -0.4704  -0.4520  -0.4231  -0.4227  -0.4172  -0.4017
 -0.3966  -0.3911  -0.3870  -0.3735  -0.3664  -0.3455  -0.3443  -0.3358
 -0.2771  -0.2502  -0.2471  -0.2433  -0.2348  -0.1529

 Beta MOs
 -- Occupied --
-19.0707 -19.0675 -10.2209 -10.2193 -10.1825 -10.1750 -10.1721 -10.1695
-10.1654 -10.1646 -10.1590 -10.1583 -10.1522  -0.9898  -0.9865  -0.8554
 -0.7968  -0.7671  -0.7351  -0.6848  -0.6575  -0.6076  -0.6018  -0.5387
 -0.4990  -0.4943  -0.4673  -0.4508  -0.4204  -0.4160  -0.4129  -0.4006
 -0.3882  -0.3853  -0.3849  -0.3650  -0.3489  -0.3438  -0.3361  -0.3348
 -0.2488  -0.2446  -0.2402  -0.2378  -0.2292

          Ground-State Mulliken Net Atomic Charges

     Atom                 Charge (a.u.)    Spin (a.u.)
  --------------------------------------------------------
      1 C                     0.382386       0.053496
      2 C                    -0.565255       0.016273
      3 C                    -0.604507       0.028602
      4 C                     0.171024       0.012525
      5 C                     0.196757       0.009733
      6 C                     0.712334       0.018576
      7 C                    -0.297599       0.110137
      8 C                    -0.072551       0.100669
      9 C                    -0.218016       0.131127
     10 C                    -0.618293       0.096756
     11 O                    -0.518758       0.216106
     12 O                    -0.479844       0.227015
     13 H                     0.167319      -0.002661
     14 C                    -0.466232       0.007473
     15 H                     0.206732      -0.001767
     16 H                     0.145649      -0.002855
     17 H                     0.190942      -0.009642
     18 H                     0.192110      -0.011375
     19 H                     0.160814       0.000064
     20 H                     0.160652       0.000065
     21 H                     0.154338      -0.000314
  --------------------------------------------------------
  Sum of atomic charges =    -1.000000

                    Cartesian Multipole Moments
 -----------------------------------------------------------------
    Charge (ESU x 10^10)
                -4.8032
    Dipole Moment (Debye)
         X     -16.7420      Y      17.5488      Z      -7.1880
       Tot      25.2967
    Quadrupole Moments (Debye-Ang)
        XX    -134.6641     XY      62.7043     YY    -164.0967
        XZ     -31.3061     YZ      44.1140     ZZ    -105.8264

 Total job time:  30.86s(wall), 199.06s(cpu)
        *  Thank you very much for using Q-Chem.  Have a nice day.  *
