 Gaussian 16, Revision A.03,
 Gaussian 16:  ES64L-G16RevA.03 25-Dec-2016

 --------------------------------------
 #P UB3LYP/6-311++G(d,p) nosym opt freq
 --------------------------------------

 -------
 Radical
 -------
 Symbolic Z-matrix:
 Charge = -1 Multiplicity = 2

 SCF Done:  E(UB3LYP) =  -1454.57501265     A.U. after   20 cycles
 SCF Done:  E(UB3LYP) =  -1454.58249178     A.U. after   17 cycles
 SCF Done:  E(UB3LYP) =  -1454.58312130     A.U. after   16 cycles
 SCF Done:  E(UB3LYP) =  -1454.58316390     A.U. after   13 cycles
 SCF Done:  E(UB3LYP) =  -1454.58316733     A.U. after   13 cycles
 SCF Done:  E(UB3LYP) =  -1454.58316855     A.U. after   11 cycles
 Optimization completed.
    -- Stationary point found.
 Normal termination of Gaussian 16 at Tue Dec 26 20:17:52 2023.

 ----------------------------------------------------------------------
 #P Geom=AllCheck Guess=TCheck SCRF=Check GenChk UB3LYP/6-311++G(d,p) F
 req
 ----------------------------------------------------------------------

 Structure from the checkpoint file:  "231-rad.chk"
 -------
 Radical
 -------
 Charge = -1 Multiplicity = 2

                          Input orientation:
 ---------------------------------------------------------------------
 Center     Atomic      Atomic             Coordinates (Angstroms)
 Number     Number       Type             X           Y           Z
 ---------------------------------------------------------------------
      1          6           0        5.910384   -5.210952    1.072255
      2          6           0        6.783400   -5.076897    0.007733
      3          6           0        6.553107   -4.090049   -0.969207
      4          6           0        4.786756   -4.371122    1.196659
      5          6           0        4.555306   -3.379110    0.214664
      6          6           0        5.454340   -3.256607   -0.862389
      7          6           0        3.884569   -4.552533    2.349145
      8          6           0        2.759093   -3.642627    2.389772
      9          6           0        2.532385   -2.670746    1.427783
     10          6           0        3.398167   -2.467465    0.285253
     11          8           0        4.091315   -5.429672    3.216024
     12          8           0        3.195896   -1.591126   -0.583492
     13          1           0        6.061213   -5.961078    1.839815
     14          1           0        7.645443   -5.732056   -0.074431
     15          1           0        5.250622   -2.487682   -1.598482
     16         17           0        1.668713   -3.837810    3.753386
     17          1           0        7.237352   -3.983331   -1.805581
     18         17           0        1.146090   -1.596938    1.535394
 ---------------------------------------------------------------------

 SCF Done:  E(UB3LYP) =  -1454.58316855     A.U. after    2 cycles

 Alpha  occ. eigenvalues -- -101.42777-101.42777 -18.95768 -18.95767 -10.11201
 Alpha  occ. eigenvalues --  -10.11200 -10.10985 -10.10930 -10.06873 -10.06824
 Alpha  occ. eigenvalues --  -10.06389 -10.06343 -10.06161 -10.06160  -9.34229
 Alpha  occ. eigenvalues --   -9.34228  -7.10677  -7.10677  -7.09763  -7.09763
 Alpha  occ. eigenvalues --   -7.09648  -7.09648  -0.88862  -0.88542  -0.76874
 Alpha  occ. eigenvalues --   -0.74728  -0.72084  -0.67356  -0.64131  -0.61154
 Alpha  occ. eigenvalues --   -0.55802  -0.50373  -0.49284  -0.44969  -0.40928
 Alpha  occ. eigenvalues --   -0.38810  -0.35554  -0.34801  -0.31642  -0.31356
 Alpha  occ. eigenvalues --   -0.31185  -0.30529  -0.28830  -0.28260  -0.26592
 Alpha  occ. eigenvalues --   -0.25777  -0.25002  -0.23169  -0.22187  -0.20780
 Alpha  occ. eigenvalues --   -0.20014  -0.17722  -0.15355  -0.14552  -0.12886
 Alpha  occ. eigenvalues --   -0.12746  -0.12127  -0.03686
 Alpha virt. eigenvalues --    0.07793   0.07831   0.09102   0.09870   0.10238
 Alpha virt. eigenvalues --    0.11862   0.13024   0.13937   0.14313   0.15025
 Alpha virt. eigenvalues --    0.16070   0.16593   0.17331   0.17365   0.17430

  Beta  occ. eigenvalues -- -101.42770-101.42770 -18.95111 -18.95110 -10.11095
  Beta  occ. eigenvalues --  -10.11094 -10.10798 -10.10741 -10.06843 -10.06793
  Beta  occ. eigenvalues --  -10.06336 -10.06290 -10.06163 -10.06163  -9.34223
  Beta  occ. eigenvalues --   -9.34222  -7.10682  -7.10682  -7.09733  -7.09733
  Beta  occ. eigenvalues --   -7.09645  -7.09645  -0.87771  -0.87408  -0.76527
  Beta  occ. eigenvalues --   -0.74616  -0.71928  -0.67009  -0.63982  -0.60927
  Beta  occ. eigenvalues --   -0.54959  -0.50245  -0.48940  -0.44714  -0.40726
  Beta  occ. eigenvalues --   -0.38581  -0.35303  -0.34689  -0.31603  -0.31019
  Beta  occ. eigenvalues --   -0.30326  -0.30021  -0.28172  -0.27907  -0.25436
  Beta  occ. eigenvalues --   -0.24878  -0.24358  -0.23036  -0.20904  -0.20169
  Beta  occ. eigenvalues --   -0.19942  -0.17683  -0.13940  -0.13326  -0.12130
  Beta  occ. eigenvalues --   -0.11719  -0.11502
  Beta virt. eigenvalues --    0.02973   0.07826   0.08424   0.09864   0.10278
  Beta virt. eigenvalues --    0.10321   0.11877   0.13049   0.13964   0.14370
  Beta virt. eigenvalues --    0.15113   0.16120   0.17233   0.17454   0.17454

 Mulliken charges and spin densities:
               1          2
     1  C   -0.075988   0.021166
     2  C   -0.379852   0.023532
     3  C   -0.379985   0.023533
     4  C    0.608084   0.045804
     5  C    0.608196   0.045819
     6  C   -0.075903   0.021164
     7  C   -1.959221   0.059068
     8  C    0.948201   0.103228
     9  C    0.948005   0.103231
    10  C   -1.959307   0.059061
    11  O   -0.315095   0.244374
    12  O   -0.315103   0.244372
    13  H    0.166275  -0.002094
    14  H    0.129375  -0.002044
    15  H    0.166279  -0.002094
    16  Cl   0.378346   0.006962
    17  H    0.129380  -0.002044
    18  Cl   0.378312   0.006964
 Sum of Mulliken charges =  -1.00000   1.00000

 Dipole moment (field-independent basis, Debye):
    X=            -15.4314    Y=             16.1272    Z=             -7.5515  Tot=             23.5635
 Quadrupole moment (field-independent basis, Debye-Ang):
   XX=           -155.4555   YY=           -169.0550   ZZ=           -127.9049
   XY=             57.6543   XZ=            -24.0530   YZ=             39.2700

  Exact polarizability: 191.262 -51.006 151.862 -50.141 -33.746 174.883
 Approx polarizability: 279.551 -79.283 264.216 -59.166 -86.528 294.891

                      1                      2                      3
                      A                      A                      A
 Frequencies --     64.7849                77.3210               139.7700
 Red. masses --     10.1292                12.6720                 5.1687
 Frc consts  --      0.0250                 0.0446                 0.0595
 IR Inten    --      5.3011                 0.0000                 0.0000

                      4                      5                      6
                      A                      A                      A
 Frequencies --    171.6084               210.0611               216.3844
 Red. masses --      9.0169                30.7356                 9.0850
 Frc consts  --      0.1565                 0.7991                 0.2506
 IR Inten    --      3.2385                 0.3326                 2.8750

                      7                      8                      9
                      A                      A                      A
 Frequencies --    277.9818               289.1464               338.9082
 Red. masses --      7.2408                 9.1006                16.2526
 Frc consts  --      0.3297                 0.4483                 1.0999
 IR Inten    --      0.3468                 0.0157                 0.9544

                     10                     11                     12
                      A                      A                      A
 Frequencies --    349.6267               377.6022               387.2959
 Red. masses --     17.5120                10.5168                 9.3609
 Frc consts  --      1.2612                 0.8835                 0.8273
 IR Inten    --      0.0461                 6.9728                 0.0000

                     13                     14                     15
                      A                      A                      A
 Frequencies --    450.8210               492.4704               516.2613
 Red. masses --      3.4519                13.7275                 5.2855
 Frc consts  --      0.4133                 1.9616                 0.8300
 IR Inten    --      1.5330                 8.0332                 0.0000

                     16                     17                     18
                      A                      A                      A
 Frequencies --    545.5906               645.4426               672.0840
 Red. masses --      8.3071                 7.3810                 6.0979
 Frc consts  --      1.4569                 1.8117                 1.6229
 IR Inten    --      1.2764                22.4221                 0.0000

                     19                     20                     21
                      A                      A                      A
 Frequencies --    699.0739               701.6043               781.0458
 Red. masses --      8.2654                 2.8804                 1.7008
 Frc consts  --      2.3799                 0.8354                 0.6113
 IR Inten    --      0.2765                46.7462                31.7430

                     22                     23                     24
                      A                      A                      A
 Frequencies --    784.1730               810.3398               863.0578
 Red. masses --      5.3794                 8.4773                11.5115
 Frc consts  --      1.9490                 3.2798                 5.0520
 IR Inten    --      0.0000                76.3565                98.2729

                     25                     26                     27
                      A                      A                      A
 Frequencies --    871.6591               877.9877               983.9504
 Red. masses --      7.4745                 1.4333                 1.3659
 Frc consts  --      3.3460                 0.6510                 0.7791
 IR Inten    --      5.6820                 0.0000                 3.2324

                     28                     29                     30
                      A                      A                      A
 Frequencies --    986.8533              1039.3917              1106.7699
 Red. masses --      1.2593                 2.3331                 2.3953
 Frc consts  --      0.7226                 1.4850                 1.7287
 IR Inten    --      0.0001                 8.1074                 3.6924

                     31                     32                     33
                      A                      A                      A
 Frequencies --   1113.8728              1148.1887              1173.4693
 Red. masses --      4.3323                 1.5076                 2.9321
 Frc consts  --      3.1669                 1.1710                 2.3789
 IR Inten    --     33.4992                14.1006                64.4891

                     34                     35                     36
                      A                      A                      A
 Frequencies --   1212.1915              1248.3423              1342.0018
 Red. masses --      2.5110                 1.8566                 3.2576
 Frc consts  --      2.1739                 1.7046                 3.4567
 IR Inten    --     20.1332                56.0453                36.1581

                     37                     38                     39
                      A                      A                      A
 Frequencies --   1357.6718              1446.4039              1467.5167
 Red. masses --     10.0678                 4.9449                 2.9471
 Frc consts  --     10.9339                 6.0951                 3.7395
 IR Inten    --      2.6355                13.2100                43.8266

                     40                     41                     42
                      A                      A                      A
 Frequencies --   1495.7532              1541.0979              1555.6885
 Red. masses --      3.3627                 8.2917                 7.8660
 Frc consts  --      4.4326                11.6025                11.2162
 IR Inten    --     12.2894               519.6705                 4.1941

                     43                     44                     45
                      A                      A                      A
 Frequencies --   1614.1743              1632.1553              3138.0143
 Red. masses --      8.9869                 6.0766                 1.0850
 Frc consts  --     13.7962                 9.5375                 6.2947
 IR Inten    --     24.1827                10.6113                14.4047

                     46                     47                     48
                      A                      A                      A
 Frequencies --   3156.8167              3185.1097              3187.5120
 Red. masses --      1.0915                 1.0914                 1.0930
 Frc consts  --      6.4088                 6.5235                 6.5429
 IR Inten    --     45.9507                 7.5834                24.6723

 - Thermochemistry -
 -------------------
 Temperature   298.150 Kelvin.  Pressure   1.00000 Atm.
 Atom     1 has atomic number  6 and mass  12.00000

 Molecular mass:   225.95883 amu.
 Principal axes and moments of inertia in atomic units:
                           1         2         3
     Eigenvalues --  2031.604773977.699646009.30439
           X            0.82236  -0.16356   0.54496
           Y           -0.29170   0.70114   0.65062
           Z           -0.48851  -0.69401   0.52888
 This molecule is an asymmetric top.
 Rotational symmetry number  1.
 Warning -- assumption of classical behavior for rotation
           may cause significant error
 Rotational temperatures (Kelvin)      0.04263     0.02177     0.01441
 Rotational constants (GHZ):           0.88833     0.45371     0.30032
 Zero-point vibrational energy     291560.1 (Joules/Mol)
                                   69.68455 (Kcal/Mol)
 Warning -- explicit consideration of  16 degrees of freedom as
           vibrations may cause significant error
 Vibrational temperatures:     93.21   111.25   201.10   246.91   302.23
          (Kelvin)            311.33   399.95   416.02   487.61   503.03
                              543.29   557.23   648.63   708.56   742.78
                              784.98   928.65   966.98  1005.81  1009.45
                             1123.75  1128.25  1165.90  1241.75  1254.12
                             1263.23  1415.69  1419.86  1495.45  1592.40
                             1602.61  1651.99  1688.36  1744.07  1796.09
                             1930.84  1953.39  2081.05  2111.43  2152.06
                             2217.30  2238.29  2322.44  2348.31  4514.90
                             4541.96  4582.66  4586.12

 Zero-point correction=                           0.111049 (Hartree/Particle)
 Thermal correction to Energy=                    0.122168
 Thermal correction to Enthalpy=                  0.123112
 Thermal correction to Gibbs Free Energy=         0.072492
 Sum of electronic and zero-point Energies=          -1454.472119
 Sum of electronic and thermal Energies=             -1454.461001
 Sum of electronic and thermal Enthalpies=           -1454.460057
 Sum of electronic and thermal Free Energies=        -1454.510677

                     E (Thermal)             CV                S
                      KCal/Mol        Cal/Mol-Kelvin    Cal/Mol-Kelvin
 Total                   76.661             42.237            106.539
 Electronic               0.000              0.000              1.377
 Translational            0.889              2.981             42.148
 Rotational               0.889              2.981             32.252
 Vibrational             74.884             36.275             30.762
 Vibration     1          0.597              1.971              4.306
 Vibration     2          0.599              1.964              3.958
 Vibration     3          0.615              1.914              2.807
 Vibration     4          0.626              1.877              2.418
 Vibration     5          0.642              1.825              2.043
 Vibration     6          0.645              1.816              1.989
 Vibration     7          0.679              1.714              1.546
 Vibration     8          0.686              1.694              1.479
 Vibration     9          0.719              1.598              1.217
 Vibration    10          0.727              1.576              1.168
 Vibration    11          0.748              1.518              1.049
 Vibration    12          0.756              1.497              1.011
 Vibration    13          0.810              1.359              0.793
 Vibration    14          0.848              1.267              0.677
 Vibration    15          0.871              1.214              0.619
 Vibration    16          0.901              1.149              0.553

 Optimization completed.
    -- Stationary point found.
 Normal termination of Gaussian 16 at Tue Dec 26 20:34:07 2023.
