 Q-Chem 5.4, Q-Chem, Inc., Pleasanton, CA (2021)
 Q-Chem 5.4.0 for Intel X86 EM64T Linux

User input:
--------------------------------------------------------------
$molecule
0 1
O                 -0.1318410000      0.0728710000      2.2362150000
C                 -0.4905000000      0.3568560000      1.1082430000
C                 -1.8341810000      0.0138350000      0.5718600000
C                 -2.7286760000     -0.6655840000      1.4130200000
C                 -3.9825610000     -1.0368410000      0.9471990000
C                 -4.3557680000     -0.7375410000     -0.3653900000
C                 -3.4722810000     -0.0655930000     -1.2082750000
C                 -2.2151760000      0.3116950000     -0.7439810000
C                  0.4833620000      1.1800340000      0.2385430000
O                  0.1206260000      2.2868500000     -0.1149970000
C                  1.8312590000      0.6307720000     -0.0652010000
C                  2.7241500000      1.4330120000     -0.7921560000
C                  3.9818870000      0.9518520000     -1.1292030000
C                  4.3606690000     -0.3376190000     -0.7476590000
C                  3.4789430000     -1.1419000000     -0.0277890000
C                  2.2179430000     -0.6619110000      0.3153280000
H                 -2.4187080000     -0.8900960000      2.4264400000
H                 -4.6713180000     -1.5586790000      1.6016850000
H                 -5.3352770000     -1.0277740000     -0.7289580000
H                 -3.7639420000      0.1696890000     -2.2252500000
H                 -1.5415640000      0.8496880000     -1.3981610000
H                  2.4098530000      2.4288570000     -1.0802850000
H                  4.6693060000      1.5764030000     -1.6881660000
H                  5.3431640000     -0.7132220000     -1.0112460000
H                  3.7749520000     -2.1406810000      0.2713160000
H                  1.5456790000     -1.2849720000      0.8906530000
$end

$rem
BASIS  =  6-311++G(d,p)
GUI  =  2
JOB_TYPE  =  SP
METHOD  =  B3LYP
SCF_CONVERGENCE  = 8
SOLVENT_METHOD = sm12
$end

$smx
solvent dimethylformamide
charges CM5
$end

--------------------------------------------------------------

             Standard Nuclear Orientation (Angstroms)
    I     Atom           X                Y                Z
 ----------------------------------------------------------------
    1      O      -0.1318410000     0.0728710000     2.2362150000
    2      C      -0.4905000000     0.3568560000     1.1082430000
    3      C      -1.8341810000     0.0138350000     0.5718600000
    4      C      -2.7286760000    -0.6655840000     1.4130200000
    5      C      -3.9825610000    -1.0368410000     0.9471990000
    6      C      -4.3557680000    -0.7375410000    -0.3653900000
    7      C      -3.4722810000    -0.0655930000    -1.2082750000
    8      C      -2.2151760000     0.3116950000    -0.7439810000
    9      C       0.4833620000     1.1800340000     0.2385430000
   10      O       0.1206260000     2.2868500000    -0.1149970000
   11      C       1.8312590000     0.6307720000    -0.0652010000
   12      C       2.7241500000     1.4330120000    -0.7921560000
   13      C       3.9818870000     0.9518520000    -1.1292030000
   14      C       4.3606690000    -0.3376190000    -0.7476590000
   15      C       3.4789430000    -1.1419000000    -0.0277890000
   16      C       2.2179430000    -0.6619110000     0.3153280000
   17      H      -2.4187080000    -0.8900960000     2.4264400000
   18      H      -4.6713180000    -1.5586790000     1.6016850000
   19      H      -5.3352770000    -1.0277740000    -0.7289580000
   20      H      -3.7639420000     0.1696890000    -2.2252500000
   21      H      -1.5415640000     0.8496880000    -1.3981610000
   22      H       2.4098530000     2.4288570000    -1.0802850000
   23      H       4.6693060000     1.5764030000    -1.6881660000
   24      H       5.3431640000    -0.7132220000    -1.0112460000
   25      H       3.7749520000    -2.1406810000     0.2713160000
   26      H       1.5456790000    -1.2849720000     0.8906530000
 ----------------------------------------------------------------

   14    -690.1347583633      4.52e-09  Convergence criterion met
 Total energy in the final basis set =     -690.1556596121

                    Orbital Energies (a.u.)
 --------------------------------------------------------------

 Alpha MOs
 -- Occupied --
-19.1387 -19.1386 -10.2845 -10.2843 -10.2036 -10.2035 -10.1987 -10.1986
-10.1957 -10.1956 -10.1948 -10.1948 -10.1909 -10.1909 -10.1909 -10.1909
 -1.0817  -1.0625  -0.8789  -0.8786  -0.7872  -0.7804  -0.7677  -0.7670
 -0.6959  -0.6501  -0.6304  -0.6236  -0.6022  -0.5659  -0.5441  -0.5116
 -0.4988  -0.4806  -0.4748  -0.4668  -0.4600  -0.4583  -0.4451  -0.4414
 -0.4413  -0.4246  -0.4135  -0.3822  -0.3777  -0.3755  -0.3751  -0.3623
 -0.3617  -0.3258  -0.2821  -0.2753  -0.2748  -0.2744  -0.2555

          Ground-State Mulliken Net Atomic Charges

     Atom                 Charge (a.u.)
  ----------------------------------------
      1 O                    -0.246670
      2 C                    -0.707903
      3 C                     0.561782
      4 C                     0.202216
      5 C                    -0.079085
      6 C                     0.312492
      7 C                    -0.172328
      8 C                    -1.151563
      9 C                    -0.710545
     10 O                    -0.246915
     11 C                     0.562182
     12 C                     0.201663
     13 C                    -0.078480
     14 C                     0.312954
     15 C                    -0.172097
     16 C                    -1.150199
     17 H                     0.211130
     18 H                     0.291776
     19 H                     0.307993
     20 H                     0.296288
     21 H                     0.174081
     22 H                     0.211138
     23 H                     0.291829
     24 H                     0.308050
     25 H                     0.296351
     26 H                     0.173858
  ----------------------------------------
  Sum of atomic charges =     0.000000

                    Cartesian Multipole Moments
 -----------------------------------------------------------------
    Charge (ESU x 10^10)
                 0.0000
    Dipole Moment (Debye)
         X       0.0156      Y      -2.9239      Z      -2.7527
       Tot       4.0158
    Quadrupole Moments (Debye-Ang)
        XX     -63.5919     XY       3.1452     YY     -96.1731
        XZ      -3.1718     YZ      -4.2721     ZZ     -95.3697

 Total job time:  441.83s(wall), 3173.51s(cpu)
        *  Thank you very much for using Q-Chem.  Have a nice day.  *
