 Gaussian 16, Revision A.03,
 Gaussian 16:  ES64L-G16RevA.03 25-Dec-2016

 --------------------------------------
 #P UB3LYP/6-311++G(d,p) nosym opt freq
 --------------------------------------

 --------
 Oxidized
 --------
 Symbolic Z-matrix:
 Charge =  0 Multiplicity = 1

 SCF Done:  E(UB3LYP) =  -690.135946177     A.U. after   15 cycles
 SCF Done:  E(UB3LYP) =  -690.135946163     A.U. after    9 cycles
 SCF Done:  E(UB3LYP) =  -690.135946192     A.U. after    9 cycles
 Optimization completed.
    -- Stationary point found.
 Normal termination of Gaussian 16 at Tue Jan  9 20:39:09 2024.

 ----------------------------------------------------------------------
 #P Geom=AllCheck Guess=TCheck SCRF=Check GenChk UB3LYP/6-311++G(d,p) F
 req
 ----------------------------------------------------------------------

 Structure from the checkpoint file:  "346.chk"
 --------
 Oxidized
 --------
 Charge =  0 Multiplicity = 1

                          Input orientation:
 ---------------------------------------------------------------------
 Center     Atomic      Atomic             Coordinates (Angstroms)
 Number     Number       Type             X           Y           Z
 ---------------------------------------------------------------------
      1          8           0       -0.131841    0.072871    2.236215
      2          6           0       -0.490500    0.356856    1.108243
      3          6           0       -1.834181    0.013835    0.571860
      4          6           0       -2.728676   -0.665584    1.413020
      5          6           0       -3.982561   -1.036841    0.947199
      6          6           0       -4.355768   -0.737541   -0.365390
      7          6           0       -3.472281   -0.065593   -1.208275
      8          6           0       -2.215176    0.311695   -0.743981
      9          6           0        0.483362    1.180034    0.238543
     10          8           0        0.120626    2.286850   -0.114997
     11          6           0        1.831259    0.630772   -0.065201
     12          6           0        2.724150    1.433012   -0.792156
     13          6           0        3.981887    0.951852   -1.129203
     14          6           0        4.360669   -0.337619   -0.747659
     15          6           0        3.478943   -1.141900   -0.027789
     16          6           0        2.217943   -0.661911    0.315328
     17          1           0       -2.418708   -0.890096    2.426440
     18          1           0       -4.671318   -1.558679    1.601685
     19          1           0       -5.335277   -1.027774   -0.728958
     20          1           0       -3.763942    0.169689   -2.225250
     21          1           0       -1.541564    0.849688   -1.398161
     22          1           0        2.409853    2.428857   -1.080285
     23          1           0        4.669306    1.576403   -1.688166
     24          1           0        5.343164   -0.713222   -1.011246
     25          1           0        3.774952   -2.140681    0.271316
     26          1           0        1.545679   -1.284972    0.890653
 ---------------------------------------------------------------------

 SCF Done:  E(UB3LYP) =  -690.135946192     A.U. after    1 cycles

 Alpha  occ. eigenvalues --  -19.13407 -19.13406 -10.27984 -10.27963 -10.20285
 Alpha  occ. eigenvalues --  -10.20284 -10.19925 -10.19925 -10.19921 -10.19921
 Alpha  occ. eigenvalues --  -10.19545 -10.19545 -10.19413 -10.19413 -10.19398
 Alpha  occ. eigenvalues --  -10.19398  -1.07676  -1.05723  -0.88041  -0.88024
 Alpha  occ. eigenvalues --   -0.78763  -0.78170  -0.76967  -0.76906  -0.69439
 Alpha  occ. eigenvalues --   -0.65108  -0.63211  -0.62587  -0.60328  -0.56722
 Alpha  occ. eigenvalues --   -0.54544  -0.51282  -0.49942  -0.48003  -0.47495
 Alpha  occ. eigenvalues --   -0.46576  -0.46113  -0.46049  -0.44568  -0.44398
 Alpha  occ. eigenvalues --   -0.43990  -0.42248  -0.41084  -0.38223  -0.38136
 Alpha  occ. eigenvalues --   -0.37877  -0.37465  -0.36454  -0.36442  -0.32012
 Alpha  occ. eigenvalues --   -0.28235  -0.27633  -0.27565  -0.27539  -0.25035
 Alpha virt. eigenvalues --   -0.09501  -0.07271  -0.03146  -0.03040  -0.01142
 Alpha virt. eigenvalues --   -0.00714   0.00215   0.00696   0.01083   0.01459
 Alpha virt. eigenvalues --    0.02623   0.02894   0.03600   0.03818   0.04337

  Beta  occ. eigenvalues --  -19.13407 -19.13406 -10.27984 -10.27963 -10.20285
  Beta  occ. eigenvalues --  -10.20284 -10.19925 -10.19925 -10.19921 -10.19921
  Beta  occ. eigenvalues --  -10.19545 -10.19545 -10.19413 -10.19413 -10.19398
  Beta  occ. eigenvalues --  -10.19398  -1.07676  -1.05723  -0.88041  -0.88024
  Beta  occ. eigenvalues --   -0.78763  -0.78170  -0.76967  -0.76906  -0.69439
  Beta  occ. eigenvalues --   -0.65108  -0.63211  -0.62587  -0.60328  -0.56722
  Beta  occ. eigenvalues --   -0.54544  -0.51282  -0.49942  -0.48003  -0.47495
  Beta  occ. eigenvalues --   -0.46576  -0.46113  -0.46049  -0.44568  -0.44398
  Beta  occ. eigenvalues --   -0.43990  -0.42248  -0.41084  -0.38223  -0.38136
  Beta  occ. eigenvalues --   -0.37877  -0.37465  -0.36454  -0.36442  -0.32012
  Beta  occ. eigenvalues --   -0.28235  -0.27633  -0.27565  -0.27539  -0.25035
  Beta virt. eigenvalues --   -0.09501  -0.07271  -0.03146  -0.03040  -0.01142
  Beta virt. eigenvalues --   -0.00714   0.00215   0.00696   0.01083   0.01459
  Beta virt. eigenvalues --    0.02623   0.02894   0.03600   0.03818   0.04337

 Mulliken charges and spin densities:
               1          2
     1  O   -0.198973   0.000000
     2  C   -0.268351  -0.000000
     3  C    1.276025   0.000000
     4  C    0.463113   0.000000
     5  C   -0.452157   0.000000
     6  C   -0.242251  -0.000000
     7  C   -0.494461  -0.000000
     8  C   -0.965101  -0.000000
     9  C   -0.270228   0.000000
    10  O   -0.198989  -0.000000
    11  C    1.276994  -0.000000
    12  C    0.461656  -0.000000
    13  C   -0.452966   0.000000
    14  C   -0.242275   0.000000
    15  C   -0.495421  -0.000000
    16  C   -0.962774   0.000000
    17  H    0.205335  -0.000000
    18  H    0.176032   0.000000
    19  H    0.160283   0.000000
    20  H    0.188146   0.000000
    21  H    0.153222  -0.000000
    22  H    0.205343  -0.000000
    23  H    0.176040   0.000000
    24  H    0.160271   0.000000
    25  H    0.188171  -0.000000
    26  H    0.153318   0.000000
 Sum of Mulliken charges =   0.00000   0.00000

 Dipole moment (field-independent basis, Debye):
    X=              0.0120    Y=             -2.5010    Z=             -2.3544  Tot=              3.4348
 Quadrupole moment (field-independent basis, Debye-Ang):
   XX=            -70.1567   YY=            -96.1425   ZZ=            -95.4014
   XY=              2.8966   XZ=             -2.9383   YZ=             -4.0899

  Exact polarizability: 233.328   8.065 137.090  -8.042 -20.131 139.545
 Approx polarizability: 322.651   1.682 240.526  -1.254 -45.461 246.211

                      1                      2                      3
                      A                      A                      A
 Frequencies --     24.2219                33.7642                36.4934
 Red. masses --      6.6211                 3.6941                 4.4026
 Frc consts  --      0.0023                 0.0025                 0.0035
 IR Inten    --      2.3714                 0.0507                 0.7059

                      4                      5                      6
                      A                      A                      A
 Frequencies --    128.0626               147.2787               156.1727
 Red. masses --      7.7188                 6.9181                 4.7753
 Frc consts  --      0.0746                 0.0884                 0.0686
 IR Inten    --      1.4211                 2.4338                 0.0050

                      7                      8                      9
                      A                      A                      A
 Frequencies --    158.0656               265.6237               277.8096
 Red. masses --      6.1331                 5.1558                 7.5600
 Frc consts  --      0.0903                 0.2143                 0.3438
 IR Inten    --      0.2671                 0.1331                32.4666

                     10                     11                     12
                      A                      A                      A
 Frequencies --    335.5470               407.5886               409.0252
 Red. masses --     10.0977                 3.0724                 2.8526
 Frc consts  --      0.6699                 0.3007                 0.2812
 IR Inten    --      3.5954                 0.0000                 0.0080

                     13                     14                     15
                      A                      A                      A
 Frequencies --    422.0967               432.5382               460.7470
 Red. masses --      5.0008                 5.2133                 4.8058
 Frc consts  --      0.5249                 0.5747                 0.6011
 IR Inten    --      0.0001                 0.4222                 3.4336

                     16                     17                     18
                      A                      A                      A
 Frequencies --    486.5438               630.2294               630.2518
 Red. masses --      4.6491                 6.4210                 6.4254
 Frc consts  --      0.6484                 1.5026                 1.5038
 IR Inten    --      6.7193                 1.4053                 0.0629

                     19                     20                     21
                      A                      A                      A
 Frequencies --    657.1615               697.0835               697.3058
 Red. masses --      7.6709                 2.1765                 2.7801
 Frc consts  --      1.9518                 0.6231                 0.7964
 IR Inten    --    108.1456                11.0613                15.0764

                     22                     23                     24
                      A                      A                      A
 Frequencies --    704.5860               729.5715               732.5916
 Red. masses --      2.7407                 3.4492                 1.8590
 Frc consts  --      0.8016                 1.0817                 0.5878
 IR Inten    --     51.7760                40.3476                37.5333

                     25                     26                     27
                      A                      A                      A
 Frequencies --    799.5567               817.2612               861.0421
 Red. masses --      2.5620                 3.9100                 1.2506
 Frc consts  --      0.9650                 1.5387                 0.5463
 IR Inten    --     16.1138                48.7738                 0.6895

                     28                     29                     30
                      A                      A                      A
 Frequencies --    861.2845               884.3272               955.3605
 Red. masses --      1.2507                 4.9383                 1.4032
 Frc consts  --      0.5466                 2.2754                 0.7546
 IR Inten    --      0.3626                89.7077                 1.3932

                     31                     32                     33
                      A                      A                      A
 Frequencies --    959.5555               999.1165               999.2646
 Red. masses --      1.5160                 1.3788                 1.3788
 Frc consts  --      0.8224                 0.8109                 0.8112
 IR Inten    --      1.6801                 0.3699                 0.4204

                     34                     35                     36
                      A                      A                      A
 Frequencies --   1013.8426              1013.9870              1015.8881
 Red. masses --      1.3221                 1.3351                 5.9996
 Frc consts  --      0.8006                 0.8088                 3.6481
 IR Inten    --      0.0020                 0.0758                 0.1414

                     37                     38                     39
                      A                      A                      A
 Frequencies --   1016.3679              1040.1284              1047.3322
 Red. masses --      5.7490                 3.8100                 2.1535
 Frc consts  --      3.4990                 2.4286                 1.3918
 IR Inten    --      4.0832                 0.8487                 6.0650

                     40                     41                     42
                      A                      A                      A
 Frequencies --   1064.7639              1106.9949              1107.5304
 Red. masses --      2.5206                 1.5671                 1.5831
 Frc consts  --      1.6837                 1.1314                 1.1441
 IR Inten    --      0.7595                 8.3428                 0.2667

                     43                     44                     45
                      A                      A                      A
 Frequencies --   1183.8991              1184.9644              1195.7735
 Red. masses --      1.1418                 1.1159                 1.3149
 Frc consts  --      0.9429                 0.9231                 1.1078
 IR Inten    --     23.4864                 0.4917               156.1649

                     46                     47                     48
                      A                      A                      A
 Frequencies --   1205.0223              1224.2764              1307.1935
 Red. masses --      1.1485                 2.7379                 4.6618
 Frc consts  --      0.9826                 2.4178                 4.6933
 IR Inten    --      1.4022               176.3406                25.7855

                     49                     50                     51
                      A                      A                      A
 Frequencies --   1337.4589              1342.5566              1356.0126
 Red. masses --      2.9954                 3.6247                 1.7632
 Frc consts  --      3.1569                 3.8494                 1.9102
 IR Inten    --     10.1247                11.4334                 0.0288

                     52                     53                     54
                      A                      A                      A
 Frequencies --   1356.2152              1477.9033              1478.7152
 Red. masses --      1.8267                 2.2112                 2.2467
 Frc consts  --      1.9795                 2.8456                 2.8944
 IR Inten    --      8.5360                34.1850                 0.3538

                     55                     56                     57
                      A                      A                      A
 Frequencies --   1520.1941              1520.3562              1616.9354
 Red. masses --      2.1796                 2.1360                 5.3944
 Frc consts  --      2.9677                 2.9090                 8.3095
 IR Inten    --      0.7445                 0.8880                18.4604

                     58                     59                     60
                      A                      A                      A
 Frequencies --   1617.0281              1635.8704              1636.4617
 Red. masses --      5.3685                 5.4881                 5.4027
 Frc consts  --      8.2706                 8.6531                 8.5246
 IR Inten    --      7.6430                20.8139                69.7941

                     61                     62                     63
                      A                      A                      A
 Frequencies --   1726.0321              1726.8093              3165.9890
 Red. masses --     12.8262                12.3675                 1.0861
 Frc consts  --     22.5136                21.7281                 6.4141
 IR Inten    --    300.5432               128.4451                 0.3100

                     64                     65                     66
                      A                      A                      A
 Frequencies --   3166.0292              3177.6915              3177.7261
 Red. masses --      1.0861                 1.0895                 1.0895
 Frc consts  --      6.4143                 6.4818                 6.4819
 IR Inten    --      0.2803                 9.2539                 9.0396

                     67                     68                     69
                      A                      A                      A
 Frequencies --   3187.0964              3187.1800              3197.3923
 Red. masses --      1.0938                 1.0938                 1.0944
 Frc consts  --      6.5460                 6.5461                 6.5919
 IR Inten    --     21.3875                 4.6114                18.6193

                     70                     71                     72
                      A                      A                      A
 Frequencies --   3197.5595              3205.4527              3205.5323
 Red. masses --      1.0945                 1.0937                 1.0936
 Frc consts  --      6.5932                 6.6208                 6.6210
 IR Inten    --      0.3525                 3.7959                 2.3342

 - Thermochemistry -
 -------------------
 Temperature   298.150 Kelvin.  Pressure   1.00000 Atm.
 Atom     1 has atomic number  8 and mass  15.99491

 Molecular mass:   210.06808 amu.
 Principal axes and moments of inertia in atomic units:
                           1         2         3
     Eigenvalues --  1365.103456559.488006858.69024
           X            0.98912   0.14708  -0.00355
           Y            0.10321  -0.67648   0.72919
           Z           -0.10485   0.72162   0.68430
 This molecule is an asymmetric top.
 Rotational symmetry number  1.
 Warning -- assumption of classical behavior for rotation
           may cause significant error
 Rotational temperatures (Kelvin)      0.06345     0.01320     0.01263
 Rotational constants (GHZ):           1.32205     0.27513     0.26313
 Zero-point vibrational energy     524809.5 (Joules/Mol)
                                  125.43247 (Kcal/Mol)
 Warning -- explicit consideration of  16 degrees of freedom as
           vibrations may cause significant error
 Vibrational temperatures:     34.85    48.58    52.51   184.25   211.90
          (Kelvin)            224.70   227.42   382.17   399.71   482.78
                              586.43   588.50   607.30   622.33   662.91
                              700.03   906.76   906.79   945.51  1002.95
                             1003.27  1013.74  1049.69  1054.04  1150.38
                             1175.86  1238.85  1239.20  1272.35  1374.55
                             1380.59  1437.51  1437.72  1458.69  1458.90
                             1461.64  1462.33  1496.51  1506.88  1531.96
                             1592.72  1593.49  1703.37  1704.90  1720.45
                             1733.76  1761.46  1880.76  1924.31  1931.64
                             1951.00  1951.29  2126.37  2127.54  2187.22
                             2187.45  2326.41  2326.54  2353.65  2354.50
                             2483.38  2484.49  4555.15  4555.21  4571.99
                             4572.04  4585.52  4585.64  4600.33  4600.57
                             4611.93  4612.05

 Zero-point correction=                           0.199889 (Hartree/Particle)
 Thermal correction to Energy=                    0.212787
 Thermal correction to Enthalpy=                  0.213732
 Thermal correction to Gibbs Free Energy=         0.158123
 Sum of electronic and zero-point Energies=           -689.936057
 Sum of electronic and thermal Energies=              -689.923159
 Sum of electronic and thermal Enthalpies=            -689.922215
 Sum of electronic and thermal Free Energies=         -689.977823

                     E (Thermal)             CV                S
                      KCal/Mol        Cal/Mol-Kelvin    Cal/Mol-Kelvin
 Total                  133.526             49.532            117.037
 Electronic               0.000              0.000              0.000
 Translational            0.889              2.981             41.931
 Rotational               0.889              2.981             32.485
 Vibrational            131.749             43.570             42.622
 Vibration     1          0.593              1.985              6.254
 Vibration     2          0.594              1.983              5.595
 Vibration     3          0.594              1.982              5.441
 Vibration     4          0.611              1.925              2.975
 Vibration     5          0.617              1.906              2.707
 Vibration     6          0.620              1.896              2.596
 Vibration     7          0.621              1.894              2.573
 Vibration     8          0.671              1.736              1.625
 Vibration     9          0.679              1.715              1.547
 Vibration    10          0.717              1.605              1.233
 Vibration    11          0.772              1.454              0.935
 Vibration    12          0.773              1.451              0.930
 Vibration    13          0.784              1.422              0.885
 Vibration    14          0.793              1.399              0.850
 Vibration    15          0.819              1.337              0.764
 Vibration    16          0.843              1.280              0.693

 Optimization completed.
    -- Stationary point found.
 Normal termination of Gaussian 16 at Tue Jan  9 21:21:00 2024.
