 Gaussian 16, Revision A.03,
 Gaussian 16:  ES64L-G16RevA.03 25-Dec-2016

 ----------------------------------------------------------------
 #P UB3LYP/6-311++G(d,p) SCRF=(PCM,Solvent=n,n-DiMethylFormamide)
 ----------------------------------------------------------------

 ------------------
 Radical PCM in DMF
 ------------------
 Symbolic Z-matrix:
 Charge = -1 Multiplicity = 2

                         Standard orientation:
 ---------------------------------------------------------------------
 Center     Atomic      Atomic             Coordinates (Angstroms)
 Number     Number       Type             X           Y           Z
 ---------------------------------------------------------------------
      1          6           0        2.533073    1.009588    0.000314
      2          6           0        3.693684    0.247219    0.000902
      3          6           0        3.665614   -1.160037    0.000834
      4          6           0        1.261599    0.345138   -0.000299
      5          6           0        1.245230   -1.084547   -0.000193
      6          6           0        2.454655   -1.811994    0.000297
      7          6           0        0.000022    1.103891   -0.001130
      8          6           0       -1.261591    0.345168   -0.000319
      9          6           0       -1.245189   -1.084523   -0.000310
     10          6           0        0.000013   -1.848904   -0.000548
     11          6           0       -2.533093    1.009565    0.000389
     12          6           0       -3.693681    0.247160    0.000823
     13          6           0       -3.665575   -1.160091    0.000551
     14          6           0       -2.454596   -1.812003    0.000024
     15          8           0        0.000085    2.362445   -0.002585
     16          8           0       -0.000018   -3.107459   -0.000821
     17          6           0        2.695914    2.514307    0.000471
     18          1           0        4.652002    0.759438    0.001469
     19          1           0        4.596175   -1.720391    0.001264
     20          1           0        2.382035   -2.892849    0.000297
     21          6           0       -2.696084    2.514278    0.001024
     22          1           0       -2.381920   -2.892854   -0.000097
     23          1           0       -4.652009    0.759367    0.001470
     24          1           0       -4.596120   -1.720470    0.000849
     25          1           0        3.762561    2.765122    0.002007
     26          1           0        2.217763    2.973187    0.867605
     27          1           0        2.220341    2.973024   -0.868181
     28          1           0       -2.218009    2.972889    0.868347
     29          1           0       -3.762763    2.764945    0.002665
     30          1           0       -2.220568    2.973417   -0.867434
 ---------------------------------------------------------------------

 SCF Done:  E(UB3LYP) =  -767.732989433     A.U. after   19 cycles

 The electronic state is 2-A.
 Alpha  occ. eigenvalues --  -19.06913 -19.06641 -10.22278 -10.21656 -10.18165
 Alpha  occ. eigenvalues --  -10.18164 -10.17217 -10.17216 -10.16807 -10.16807
 Alpha  occ. eigenvalues --  -10.16759 -10.16758 -10.16397 -10.16397 -10.16238
 Alpha  occ. eigenvalues --  -10.16237 -10.15226 -10.15225  -0.99812  -0.99547
 Alpha  occ. eigenvalues --   -0.85756  -0.84940  -0.78279  -0.76770  -0.76456
 Alpha  occ. eigenvalues --   -0.73374  -0.69026  -0.67592  -0.65360  -0.62055
 Alpha  occ. eigenvalues --   -0.61381  -0.56286  -0.54128  -0.52289  -0.51373
 Alpha  occ. eigenvalues --   -0.46723  -0.46036  -0.45867  -0.45454  -0.42778
 Alpha  occ. eigenvalues --   -0.41881  -0.40767  -0.40709  -0.40559  -0.40102
 Alpha  occ. eigenvalues --   -0.39616  -0.39497  -0.37509  -0.37193  -0.36638
 Alpha  occ. eigenvalues --   -0.35541  -0.35041  -0.34291  -0.33827  -0.33317
 Alpha  occ. eigenvalues --   -0.32909  -0.26308  -0.24558  -0.24529  -0.24416
 Alpha  occ. eigenvalues --   -0.23851  -0.22524  -0.13539
 Alpha virt. eigenvalues --   -0.04623  -0.01939  -0.00359   0.00077   0.00450
 Alpha virt. eigenvalues --    0.00844   0.01922   0.02020   0.03006   0.03820
 Alpha virt. eigenvalues --    0.03961   0.04178   0.04939   0.05316   0.05668

  Beta  occ. eigenvalues --  -19.06367 -19.06073 -10.22144 -10.21452 -10.18180
  Beta  occ. eigenvalues --  -10.18179 -10.17134 -10.17133 -10.16775 -10.16775
  Beta  occ. eigenvalues --  -10.16692 -10.16692 -10.16320 -10.16320 -10.16216
  Beta  occ. eigenvalues --  -10.16216 -10.15225 -10.15224  -0.98842  -0.98557
  Beta  occ. eigenvalues --   -0.85502  -0.84825  -0.77890  -0.76682  -0.76271
  Beta  occ. eigenvalues --   -0.73186  -0.68693  -0.67522  -0.64790  -0.61872
  Beta  occ. eigenvalues --   -0.61126  -0.56205  -0.53895  -0.52022  -0.51260
  Beta  occ. eigenvalues --   -0.46463  -0.45976  -0.45769  -0.45286  -0.42050
  Beta  occ. eigenvalues --   -0.41654  -0.40663  -0.40642  -0.40055  -0.40038
  Beta  occ. eigenvalues --   -0.39530  -0.38492  -0.37476  -0.37018  -0.35427
  Beta  occ. eigenvalues --   -0.34735  -0.34588  -0.34221  -0.33719  -0.32772
  Beta  occ. eigenvalues --   -0.32159  -0.24302  -0.24052  -0.23962  -0.23510
  Beta  occ. eigenvalues --   -0.23350  -0.22024
  Beta virt. eigenvalues --   -0.07694  -0.03647  -0.00937  -0.00346   0.00325
  Beta virt. eigenvalues --    0.00450   0.00851   0.01935   0.02016   0.03080
  Beta virt. eigenvalues --    0.03839   0.03957   0.04186   0.05274   0.05346

 Mulliken charges and spin densities:
               1          2
     1  C    0.572859  -0.003979
     2  C   -0.551043   0.058946
     3  C   -0.416894   0.022836
     4  C    0.201827   0.055896
     5  C    0.444505   0.028896
     6  C    0.023806   0.043983
     7  C   -0.889784   0.074705
     8  C    0.201812   0.055900
     9  C    0.444587   0.028903
    10  C   -0.740539   0.107266
    11  C    0.572813  -0.003973
    12  C   -0.551045   0.058937
    13  C   -0.416921   0.022843
    14  C    0.023856   0.043976
    15  O   -0.380979   0.206022
    16  O   -0.460138   0.204475
    17  C   -0.466312   0.007840
    18  H    0.117201  -0.004990
    19  H    0.191143  -0.002159
    20  H    0.156285  -0.002370
    21  C   -0.466417   0.007837
    22  H    0.156289  -0.002369
    23  H    0.117194  -0.004990
    24  H    0.191143  -0.002159
    25  H    0.144050  -0.000364
    26  H    0.159104  -0.000387
    27  H    0.159212  -0.000386
    28  H    0.159114  -0.000386
    29  H    0.144054  -0.000364
    30  H    0.159217  -0.000386
 Sum of Mulliken charges =  -1.00000   1.00000

 Dipole moment (field-independent basis, Debye):
    X=             -0.0003    Y=              3.4712    Z=              0.0082  Tot=              3.4712
 Quadrupole moment (field-independent basis, Debye-Ang):
   XX=           -106.9814   YY=           -141.7098   ZZ=           -112.8327
   XY=             -0.0009   XZ=             -0.0005   YZ=              0.0094

 Normal termination of Gaussian 16 at Sun Jan 14 01:16:55 2024.
