 Gaussian 16, Revision A.03,
 Gaussian 16:  ES64L-G16RevA.03 25-Dec-2016

 --------------------------------------
 #P UB3LYP/6-311++G(d,p) nosym opt freq
 --------------------------------------

 --------
 Oxidized
 --------
 Symbolic Z-matrix:
 Charge =  0 Multiplicity = 1

 SCF Done:  E(UB3LYP) =  -858.877361655     A.U. after   16 cycles
 SCF Done:  E(UB3LYP) =  -858.882372151     A.U. after   14 cycles
 SCF Done:  E(UB3LYP) =  -858.883189588     A.U. after   14 cycles
 SCF Done:  E(UB3LYP) =  -858.883775499     A.U. after   14 cycles
 SCF Done:  E(UB3LYP) =  -858.884510309     A.U. after   13 cycles
 SCF Done:  E(UB3LYP) =  -858.884743312     A.U. after   13 cycles
 SCF Done:  E(UB3LYP) =  -858.884768769     A.U. after   13 cycles
 SCF Done:  E(UB3LYP) =  -858.884883419     A.U. after   12 cycles
 SCF Done:  E(UB3LYP) =  -858.884902428     A.U. after   12 cycles
 SCF Done:  E(UB3LYP) =  -858.884914784     A.U. after   12 cycles
 SCF Done:  E(UB3LYP) =  -858.884920876     A.U. after   11 cycles
 SCF Done:  E(UB3LYP) =  -858.884929035     A.U. after   12 cycles
 SCF Done:  E(UB3LYP) =  -858.884936018     A.U. after   11 cycles
 SCF Done:  E(UB3LYP) =  -858.884938569     A.U. after   11 cycles
 SCF Done:  E(UB3LYP) =  -858.884938935     A.U. after   10 cycles
 SCF Done:  E(UB3LYP) =  -858.884939161     A.U. after    9 cycles
 Optimization completed.
    -- Stationary point found.
 Normal termination of Gaussian 16 at Thu Dec 21 07:09:24 2023.

 ----------------------------------------------------------------------
 #P Geom=AllCheck Guess=TCheck SCRF=Check GenChk UB3LYP/6-311++G(d,p) F
 req
 ----------------------------------------------------------------------

 Structure from the checkpoint file:  "155.chk"
 --------
 Oxidized
 --------
 Charge =  0 Multiplicity = 1

                          Input orientation:
 ---------------------------------------------------------------------
 Center     Atomic      Atomic             Coordinates (Angstroms)
 Number     Number       Type             X           Y           Z
 ---------------------------------------------------------------------
      1          6           0       -2.257454    3.235140    4.111989
      2          6           0       -3.494963    2.670029    4.380941
      3          6           0       -3.923842    1.543858    3.687175
      4          6           0       -3.113173    0.960276    2.704136
      5          6           0       -1.840177    1.526064    2.414079
      6          6           0       -1.436099    2.668174    3.136415
      7          6           0       -0.112907    3.333208    2.900167
      8          6           0       -0.935310    0.951846    1.381239
      9          6           0        0.781681    2.777235    1.889266
     10          6           0        0.389846    1.631139    1.155812
     11          6           0        2.053355    3.372756    1.625435
     12          6           0        2.876383    2.789335    0.634697
     13          6           0        2.465749    1.672166   -0.062994
     14          6           0        1.221870    1.084193    0.190383
     15          8           0        0.179511    4.331508    3.568623
     16          8           0       -1.220876   -0.032227    0.720382
     17          7           0        2.485859    4.472484    2.294857
     18          8           0       -3.494279   -0.130837    2.011490
     19          6           0       -4.760830   -0.723743    2.273382
     20          1           0       -1.905331    4.110560    4.640033
     21          1           0       -4.138900    3.104721    5.137380
     22          1           0       -4.892106    1.120385    3.913431
     23          1           0        3.843414    3.237698    0.430430
     24          1           0        3.118286    1.246347   -0.817404
     25          1           0        0.889122    0.208508   -0.349837
     26          1           0        1.883403    4.876297    3.000776
     27          1           0        3.385950    4.868367    2.086449
     28          1           0       -4.825683   -1.571936    1.594662
     29          1           0       -5.580227   -0.027900    2.065051
     30          1           0       -4.831573   -1.078821    3.306795
 ---------------------------------------------------------------------

 SCF Done:  E(UB3LYP) =  -858.884939161     A.U. after    1 cycles

 Alpha  occ. eigenvalues --  -19.16649 -19.11501 -19.10576 -14.33322 -10.26855
 Alpha  occ. eigenvalues --  -10.26426 -10.26051 -10.24300 -10.23477 -10.20219
 Alpha  occ. eigenvalues --  -10.20059 -10.19666 -10.19614 -10.19286 -10.19282
 Alpha  occ. eigenvalues --  -10.19239 -10.18753 -10.18233 -10.17576  -1.08781
 Alpha  occ. eigenvalues --   -1.04854  -1.04129  -0.94211  -0.88058  -0.86011
 Alpha  occ. eigenvalues --   -0.80436  -0.77883  -0.76576  -0.74995  -0.71767
 Alpha  occ. eigenvalues --   -0.67960  -0.65635  -0.64615  -0.60583  -0.58072
 Alpha  occ. eigenvalues --   -0.57296  -0.55519  -0.53264  -0.50977  -0.50832
 Alpha  occ. eigenvalues --   -0.48931  -0.48851  -0.48550  -0.47025  -0.46604
 Alpha  occ. eigenvalues --   -0.44820  -0.44369  -0.43797  -0.42912  -0.42082
 Alpha  occ. eigenvalues --   -0.40760  -0.39778  -0.39567  -0.38631  -0.37773
 Alpha  occ. eigenvalues --   -0.37549  -0.36732  -0.34847  -0.33833  -0.32642
 Alpha  occ. eigenvalues --   -0.28036  -0.27130  -0.27050  -0.25052  -0.24218
 Alpha  occ. eigenvalues --   -0.22101
 Alpha virt. eigenvalues --   -0.10359  -0.05214  -0.03077  -0.01285  -0.01014
 Alpha virt. eigenvalues --   -0.00483   0.00533   0.00823   0.01603   0.02705
 Alpha virt. eigenvalues --    0.03017   0.03181   0.03715   0.04129   0.04592

  Beta  occ. eigenvalues --  -19.16649 -19.11501 -19.10576 -14.33322 -10.26855
  Beta  occ. eigenvalues --  -10.26426 -10.26051 -10.24300 -10.23477 -10.20219
  Beta  occ. eigenvalues --  -10.20059 -10.19666 -10.19614 -10.19286 -10.19282
  Beta  occ. eigenvalues --  -10.19239 -10.18753 -10.18233 -10.17576  -1.08781
  Beta  occ. eigenvalues --   -1.04854  -1.04129  -0.94211  -0.88058  -0.86011
  Beta  occ. eigenvalues --   -0.80436  -0.77883  -0.76576  -0.74995  -0.71767
  Beta  occ. eigenvalues --   -0.67960  -0.65635  -0.64615  -0.60583  -0.58072
  Beta  occ. eigenvalues --   -0.57296  -0.55519  -0.53264  -0.50977  -0.50832
  Beta  occ. eigenvalues --   -0.48931  -0.48851  -0.48550  -0.47025  -0.46604
  Beta  occ. eigenvalues --   -0.44820  -0.44369  -0.43797  -0.42912  -0.42082
  Beta  occ. eigenvalues --   -0.40760  -0.39778  -0.39567  -0.38631  -0.37773
  Beta  occ. eigenvalues --   -0.37549  -0.36732  -0.34847  -0.33833  -0.32642
  Beta  occ. eigenvalues --   -0.28036  -0.27130  -0.27050  -0.25052  -0.24218
  Beta  occ. eigenvalues --   -0.22101
  Beta virt. eigenvalues --   -0.10359  -0.05214  -0.03077  -0.01285  -0.01014
  Beta virt. eigenvalues --   -0.00483   0.00533   0.00823   0.01603   0.02705
  Beta virt. eigenvalues --    0.03017   0.03181   0.03715   0.04129   0.04592

 Mulliken charges and spin densities:
               1          2
     1  C   -0.183047   0.000000
     2  C   -0.405433  -0.000000
     3  C   -0.188411  -0.000000
     4  C    0.062025   0.000000
     5  C    0.269404   0.000000
     6  C    0.349656   0.000000
     7  C   -0.584075  -0.000000
     8  C   -0.659236  -0.000000
     9  C    0.081662  -0.000000
    10  C    0.679340  -0.000000
    11  C    0.309056   0.000000
    12  C   -0.113634  -0.000000
    13  C   -0.428445   0.000000
    14  C   -0.026173  -0.000000
    15  O   -0.271251   0.000000
    16  O   -0.213232   0.000000
    17  N   -0.429984  -0.000000
    18  O   -0.091365  -0.000000
    19  C   -0.275039  -0.000000
    20  H    0.173571   0.000000
    21  H    0.184745   0.000000
    22  H    0.165453   0.000000
    23  H    0.136688  -0.000000
    24  H    0.177794   0.000000
    25  H    0.175521  -0.000000
    26  H    0.331765   0.000000
    27  H    0.275881   0.000000
    28  H    0.200070  -0.000000
    29  H    0.148373   0.000000
    30  H    0.148320   0.000000
 Sum of Mulliken charges =  -0.00000   0.00000

 Dipole moment (field-independent basis, Debye):
    X=             -0.4508    Y=              0.6551    Z=              0.8263  Tot=              1.1468
 Quadrupole moment (field-independent basis, Debye-Ang):
   XX=            -76.8862   YY=           -107.4199   ZZ=           -106.3077
   XY=             10.3012   XZ=            -13.4124   YZ=             -1.0364

  Exact polarizability: 264.134  48.270 186.567 -59.899  46.404 172.741
 Approx polarizability: 383.378  68.239 333.806 -79.362 109.004 296.494

                      1                      2                      3
                      A                      A                      A
 Frequencies --     19.0994                28.1081                55.4932
 Red. masses --      7.5683                 5.5389                 4.2058
 Frc consts  --      0.0016                 0.0026                 0.0076
 IR Inten    --      2.6333                39.8563                15.3280

                      4                      5                      6
                      A                      A                      A
 Frequencies --     97.3238               121.6943               165.9685
 Red. masses --      3.8398                 2.2946                 4.3920
 Frc consts  --      0.0214                 0.0200                 0.0713
 IR Inten    --      3.6558                37.0754                 3.0434

                      7                      8                      9
                      A                      A                      A
 Frequencies --    175.8637               206.5681               223.4413
 Red. masses --      3.1883                 2.0022                 2.3780
 Frc consts  --      0.0581                 0.0503                 0.0699
 IR Inten    --     10.7338                62.5382                 8.7619

                     10                     11                     12
                      A                      A                      A
 Frequencies --    256.6734               263.1302               285.6677
 Red. masses --      1.8905                 5.0210                 3.0731
 Frc consts  --      0.0734                 0.2048                 0.1478
 IR Inten    --      0.0650                 0.1253                 0.1339

                     13                     14                     15
                      A                      A                      A
 Frequencies --    312.7900               354.3946               376.1074
 Red. masses --      3.9807                 6.5242                10.6693
 Frc consts  --      0.2295                 0.4828                 0.8892
 IR Inten    --      0.9128                 0.1273                 0.5107

                     16                     17                     18
                      A                      A                      A
 Frequencies --    417.2368               431.1798               433.7655
 Red. masses --      4.5799                 9.8892                 5.2000
 Frc consts  --      0.4698                 1.0833                 0.5765
 IR Inten    --      0.6994                26.6386                 0.0812

                     19                     20                     21
                      A                      A                      A
 Frequencies --    469.1056               485.3905               485.9900
 Red. masses --      8.1736                 3.8205                 5.5059
 Frc consts  --      1.0598                 0.5303                 0.7662
 IR Inten    --      3.0083                 4.5368                 0.7530

                     22                     23                     24
                      A                      A                      A
 Frequencies --    541.9691               561.7830               568.2178
 Red. masses --      4.9392                 6.0119                 3.9673
 Frc consts  --      0.8548                 1.1179                 0.7547
 IR Inten    --      5.5364                 1.8306                 2.0428

                     25                     26                     27
                      A                      A                      A
 Frequencies --    601.0576               638.6398               651.8816
 Red. masses --      6.4054                 5.2944                 1.0669
 Frc consts  --      1.3634                 1.2723                 0.2671
 IR Inten    --      5.4760                 0.4066                29.6916

                     28                     29                     30
                      A                      A                      A
 Frequencies --    681.8506               710.3359               722.4356
 Red. masses --      4.1807                 6.8437                 2.5699
 Frc consts  --      1.1452                 2.0346                 0.7903
 IR Inten    --      0.0017                 0.3523                31.8025

                     31                     32                     33
                      A                      A                      A
 Frequencies --    775.4350               777.6093               783.5081
 Red. masses --      1.9150                 6.6674                 4.2192
 Frc consts  --      0.6784                 2.3754                 1.5260
 IR Inten    --     10.5058                17.2670                20.0806

                     34                     35                     36
                      A                      A                      A
 Frequencies --    816.1078               832.9233               855.8542
 Red. masses --      1.7963                 3.8014                 7.0161
 Frc consts  --      0.7049                 1.5538                 3.0279
 IR Inten    --     48.5993                 1.7170                35.3582

                     37                     38                     39
                      A                      A                      A
 Frequencies --    902.7293               911.5092               913.7213
 Red. masses --      6.7582                 1.3938                 1.4328
 Frc consts  --      3.2448                 0.6823                 0.7048
 IR Inten    --     14.8893                 0.0084                 0.5532

                     40                     41                     42
                      A                      A                      A
 Frequencies --    944.3826               995.7490               998.3121
 Red. masses --      5.5171                 1.3197                 1.3172
 Frc consts  --      2.8990                 0.7709                 0.7735
 IR Inten    --      7.1411                 0.3840                 0.5823

                     43                     44                     45
                      A                      A                      A
 Frequencies --   1020.7936              1063.4072              1093.9817
 Red. masses --      3.1456                 2.3790                 3.8799
 Frc consts  --      1.9312                 1.5850                 2.7359
 IR Inten    --    121.1981                 4.5479                54.3394

                     46                     47                     48
                      A                      A                      A
 Frequencies --   1103.3435              1136.4513              1163.9946
 Red. masses --      2.3069                 1.8131                 1.2739
 Frc consts  --      1.6546                 1.3796                 1.0169
 IR Inten    --      6.3222                10.8458                 0.8121

                     49                     50                     51
                      A                      A                      A
 Frequencies --   1190.5122              1192.2542              1206.0266
 Red. masses --      1.3215                 1.2819                 1.7040
 Frc consts  --      1.1035                 1.0736                 1.4603
 IR Inten    --      4.3775                 8.8734                13.0838

                     52                     53                     54
                      A                      A                      A
 Frequencies --   1207.4195              1223.5444              1274.5187
 Red. masses --      1.4375                 2.4224                 3.6808
 Frc consts  --      1.2347                 2.1367                 3.5228
 IR Inten    --      2.7369                68.6393               666.3255

                     55                     56                     57
                      A                      A                      A
 Frequencies --   1300.6715              1318.2295              1350.3616
 Red. masses --      2.8872                 3.8477                 6.7691
 Frc consts  --      2.8778                 3.9394                 7.2724
 IR Inten    --     91.2986               321.2824                13.3240

                     58                     59                     60
                      A                      A                      A
 Frequencies --   1364.5556              1390.7012              1462.7727
 Red. masses --      4.5222                 5.9869                 2.1244
 Frc consts  --      4.9611                 6.8222                 2.6782
 IR Inten    --      9.3398                41.3951                87.3811

                     61                     62                     63
                      A                      A                      A
 Frequencies --   1470.2927              1477.6753              1487.0451
 Red. masses --      1.9329                 2.2838                 2.9627
 Frc consts  --      2.4619                 2.9381                 3.8600
 IR Inten    --     30.6168                19.8629                 2.9791

                     64                     65                     66
                      A                      A                      A
 Frequencies --   1495.9544              1497.4199              1502.6435
 Red. masses --      1.0461                 1.9010                 1.1201
 Frc consts  --      1.3794                 2.5114                 1.4902
 IR Inten    --      9.4744                34.4964                14.9270

                     67                     68                     69
                      A                      A                      A
 Frequencies --   1577.2270              1605.2890              1610.3005
 Red. masses --      2.9169                 3.0963                 5.7111
 Frc consts  --      4.2752                 4.7010                 8.7253
 IR Inten    --    187.3841               151.1339                 9.2691

                     70                     71                     72
                      A                      A                      A
 Frequencies --   1618.8216              1641.4190              1675.0362
 Red. masses --      4.2447                 3.4772                 7.7775
 Frc consts  --      6.5539                 5.5197                12.8569
 IR Inten    --    109.3386               274.0106               145.8793

                     73                     74                     75
                      A                      A                      A
 Frequencies --   1718.4853              3007.2069              3069.1638
 Red. masses --     12.1253                 1.0346                 1.1064
 Frc consts  --     21.0977                 5.5128                 6.1404
 IR Inten    --    203.3964                69.4898                33.4880

                     76                     77                     78
                      A                      A                      A
 Frequencies --   3140.0336              3156.7840              3173.0747
 Red. masses --      1.0991                 1.0874                 1.0892
 Frc consts  --      6.3849                 6.3848                 6.4615
 IR Inten    --     15.2875                10.0515                11.4901

                     79                     80                     81
                      A                      A                      A
 Frequencies --   3177.1256              3213.4526              3213.6048
 Red. masses --      1.0937                 1.0921                 1.0900
 Frc consts  --      6.5043                 6.6446                 6.6324
 IR Inten    --     21.3482                 3.5186                 1.2036

                     82                     83                     84
                      A                      A                      A
 Frequencies --   3216.1182              3517.3021              3704.4050
 Red. masses --      1.0935                 1.0525                 1.0983
 Frc consts  --      6.6640                 7.6717                 8.8800
 IR Inten    --      9.2335                69.4540                83.1563

 - Thermochemistry -
 -------------------
 Temperature   298.150 Kelvin.  Pressure   1.00000 Atm.
 Atom     1 has atomic number  6 and mass  12.00000

 Molecular mass:   253.07389 amu.
 Principal axes and moments of inertia in atomic units:
                           1         2         3
     Eigenvalues --  2452.100306230.772138671.33086
           X            0.90153  -0.10947   0.41865
           Y            0.36050   0.72515  -0.58668
           Z           -0.23936   0.67983   0.69321
 This molecule is an asymmetric top.
 Rotational symmetry number  1.
 Warning -- assumption of classical behavior for rotation
           may cause significant error
 Rotational temperatures (Kelvin)      0.03532     0.01390     0.00999
 Rotational constants (GHZ):           0.73600     0.28965     0.20813
 Zero-point vibrational energy     597417.6 (Joules/Mol)
                                  142.78624 (Kcal/Mol)
 Warning -- explicit consideration of  25 degrees of freedom as
           vibrations may cause significant error
 Vibrational temperatures:     27.48    40.44    79.84   140.03   175.09
          (Kelvin)            238.79   253.03   297.21   321.48   369.30
                              378.59   411.01   450.04   509.89   541.13
                              600.31   620.37   624.09   674.94   698.37
                              699.23   779.77   808.28   817.54   864.79
                              918.86   937.91   981.03  1022.01  1039.42
                             1115.68  1118.81  1127.29  1174.20  1198.39
                             1231.38  1298.83  1311.46  1314.64  1358.76
                             1432.66  1436.35  1468.69  1530.01  1574.00
                             1587.47  1635.10  1674.73  1712.88  1715.39
                             1735.20  1737.21  1760.41  1833.75  1871.38
                             1896.64  1942.87  1963.29  2000.91  2104.60
                             2115.42  2126.05  2139.53  2152.34  2154.45
                             2161.97  2269.28  2309.65  2316.86  2329.12
                             2361.64  2410.00  2472.52  4326.70  4415.84
                             4517.81  4541.91  4565.35  4571.18  4623.44
                             4623.66  4627.28  5060.61  5329.81

 Zero-point correction=                           0.227544 (Hartree/Particle)
 Thermal correction to Energy=                    0.243166
 Thermal correction to Enthalpy=                  0.244110
 Thermal correction to Gibbs Free Energy=         0.183261
 Sum of electronic and zero-point Energies=           -858.657395
 Sum of electronic and thermal Energies=              -858.641773
 Sum of electronic and thermal Enthalpies=            -858.640829
 Sum of electronic and thermal Free Energies=         -858.701678

                     E (Thermal)             CV                S
                      KCal/Mol        Cal/Mol-Kelvin    Cal/Mol-Kelvin
 Total                  152.589             60.877            128.068
 Electronic               0.000              0.000              0.000
 Translational            0.889              2.981             42.486
 Rotational               0.889              2.981             33.249
 Vibrational            150.812             54.916             52.333
 Vibration     1          0.593              1.986              6.726
 Vibration     2          0.593              1.984              5.959
 Vibration     3          0.596              1.975              4.611
 Vibration     4          0.603              1.951              3.507
 Vibration     5          0.609              1.931              3.073
 Vibration     6          0.624              1.884              2.481
 Vibration     7          0.628              1.872              2.372
 Vibration     8          0.641              1.831              2.074
 Vibration     9          0.649              1.805              1.931
 Vibration    10          0.666              1.752              1.684
 Vibration    11          0.670              1.740              1.641
 Vibration    12          0.683              1.700              1.499
 Vibration    13          0.701              1.649              1.348
 Vibration    14          0.730              1.566              1.147
 Vibration    15          0.747              1.521              1.055
 Vibration    16          0.780              1.433              0.901
 Vibration    17          0.792              1.402              0.855
 Vibration    18          0.795              1.397              0.846
 Vibration    19          0.826              1.319              0.740
 Vibration    20          0.841              1.282              0.696
 Vibration    21          0.842              1.281              0.694
 Vibration    22          0.897              1.157              0.561
 Vibration    23          0.917              1.114              0.520
 Vibration    24          0.924              1.100              0.508
 Vibration    25          0.959              1.030              0.448

 Optimization completed.
    -- Stationary point found.
 Normal termination of Gaussian 16 at Thu Dec 21 08:13:22 2023.
