 Q-Chem 5.4, Q-Chem, Inc., Pleasanton, CA (2021)
 Q-Chem 5.4.0 for Intel X86 EM64T Linux

User input:
--------------------------------------------------------------
$molecule
-1 2
C                  3.8911310000      1.2849040000     -1.3017110000
N                  2.5084490000      1.0580270000     -0.9925200000
C                  2.0485900000     -0.0162870000     -0.2777520000
C                  2.9240310000     -1.0018720000      0.1968150000
C                  2.4385830000     -2.0996530000      0.9253670000
C                  1.0924360000     -2.2341800000      1.1911890000
C                  0.1740130000     -1.2645100000      0.7338130000
C                 -1.2435450000     -1.4670950000      1.0519070000
O                 -1.6408590000     -2.4643540000      1.7047510000
C                 -2.1738610000     -0.4493100000      0.5682110000
C                 -3.5537880000     -0.5809180000      0.8374290000
C                 -4.4607990000      0.3618160000      0.3963420000
C                 -4.0097620000      1.4810670000     -0.3378350000
C                 -2.6644600000      1.6289830000     -0.6120080000
C                 -1.7188950000      0.6765450000     -0.1706620000
C                 -0.3050720000      0.8751320000     -0.4855880000
O                  0.0518140000      1.9028310000     -1.1495670000
C                  0.6311630000     -0.1320360000     -0.0112070000
H                  4.3262340000      0.4764980000     -1.9099440000
H                  4.5158680000      1.3849960000     -0.4000580000
H                  3.9736380000      2.2130610000     -1.8711780000
H                  1.7704430000      1.7098740000     -1.2733200000
H                  3.9858710000     -0.9181040000     -0.0002220000
H                  3.1409610000     -2.8489160000      1.2806880000
H                  0.6986010000     -3.0729340000      1.7506760000
H                 -3.8685860000     -1.4503740000      1.4030700000
H                 -5.5188110000      0.2448060000      0.6124030000
H                 -4.7213590000      2.2241470000     -0.6860040000
H                 -2.2920300000      2.4778540000     -1.1730850000
$end
$rem
MAX_SCF_CYCLES=200
BASIS  =  6-311++G(d,p)
GUI  =  2
JOB_TYPE  =  SP
METHOD  =  B3LYP
SOLVENT_METHOD = COSMO
$end
$solvent
dielectric 37.219
opticaldielectric 1.43
$end

--------------------------------------------------------------

             Standard Nuclear Orientation (Angstroms)
    I     Atom           X                Y                Z
 ----------------------------------------------------------------
    1      C       4.1948434004     1.8418085743     0.0059296186
    2      N       2.7992015613     1.5088755367    -0.0089435200
    3      C       2.3163728207     0.2269386894    -0.0036058288
    4      C       3.1812474353    -0.8753193860    -0.0008470983
    5      C       2.6726347278    -2.1840896911     0.0012274249
    6      C       1.3135683834    -2.4160577470     0.0009318225
    7      C       0.4049107671    -1.3356443217    -0.0003674344
    8      C      -1.0274817055    -1.6517865138     0.0006703818
    9      O      -1.4451722910    -2.8367436290     0.0000177374
   10      C      -1.9473916418    -0.5164004806     0.0001690927
   11      C      -3.3405075358    -0.7471072470     0.0002966943
   12      C      -4.2383132692     0.3016629553     0.0004314671
   13      C      -3.7642836889     1.6322526721     0.0005107867
   14      C      -2.4057902509     1.8800086457     0.0004430980
   15      C      -1.4692668975     0.8222083400     0.0000875430
   16      C      -0.0407356785     1.1333490429    -0.0007351473
   17      O       0.3365660941     2.3507398395     0.0012610435
   18      C       0.8855541417     0.0117670577    -0.0020421208
   19      H       4.7311590471     1.4538823381    -0.8742186792
   20      H       4.7129091778     1.4556530402     0.8979972247
   21      H       4.2942024392     2.9293300243     0.0053271372
   22      H       2.0657210453     2.2232656567    -0.0012560924
   23      H       4.2529740249    -0.7180083041    -0.0012754105
   24      H       3.3673118007    -3.0197951004     0.0030006666
   25      H       0.9018879265    -3.4171358936     0.0022467003
   26      H      -3.6729094589    -1.7788582848     0.0004200528
   27      H      -5.3067145915     0.1060058665     0.0005089669
   28      H      -4.4685945549     2.4591178533     0.0005844213
   29      H      -2.0156742588     2.8909008221     0.0004376056
 ----------------------------------------------------------------

   11    -783.7148817296      4.82e-06  Convergence criterion met
 Total energy in the final basis set =     -783.7148817296
    4    -783.7970470862      8.27e-06  Convergence criterion met
 Total energy in the final basis set =     -783.7970470862

                    Orbital Energies (a.u.)
 --------------------------------------------------------------

 Alpha MOs
 -- Occupied --
-19.0812 -19.0776 -14.3106 -10.2288 -10.2237 -10.2146 -10.1899 -10.1726
-10.1725 -10.1719 -10.1714 -10.1712 -10.1711 -10.1691 -10.1690 -10.1689
-10.1587 -10.1541  -1.0072  -1.0039  -0.9287  -0.8584  -0.8391  -0.7823
 -0.7505  -0.7442  -0.7369  -0.6806  -0.6648  -0.6298  -0.6177  -0.5790
 -0.5615  -0.5311  -0.5232  -0.4985  -0.4745  -0.4688  -0.4562  -0.4436
 -0.4385  -0.4371  -0.4230  -0.4196  -0.4183  -0.4068  -0.3971  -0.3834
 -0.3823  -0.3674  -0.3659  -0.3546  -0.3442  -0.3423  -0.3351  -0.2955
 -0.2692  -0.2572  -0.2502  -0.2477  -0.2397  -0.2021  -0.1410

 Beta MOs
 -- Occupied --
-19.0764 -19.0723 -14.3104 -10.2269 -10.2218 -10.2146 -10.1899 -10.1726
-10.1717 -10.1715 -10.1709 -10.1705 -10.1702 -10.1690 -10.1688 -10.1686
-10.1577 -10.1537  -0.9988  -0.9944  -0.9279  -0.8560  -0.8376  -0.7784
 -0.7482  -0.7429  -0.7348  -0.6792  -0.6580  -0.6281  -0.6155  -0.5780
 -0.5595  -0.5287  -0.5218  -0.4973  -0.4718  -0.4674  -0.4550  -0.4429
 -0.4365  -0.4360  -0.4225  -0.4135  -0.4084  -0.4051  -0.3950  -0.3815
 -0.3654  -0.3650  -0.3604  -0.3539  -0.3429  -0.3338  -0.3307  -0.2904
 -0.2506  -0.2500  -0.2457  -0.2425  -0.2351  -0.1944

          Ground-State Mulliken Net Atomic Charges

     Atom                 Charge (a.u.)    Spin (a.u.)
  --------------------------------------------------------
      1 C                    -0.375760      -0.001088
      2 N                    -0.329999       0.010343
      3 C                     0.168002       0.011327
      4 C                    -0.089000       0.085578
      5 C                    -0.501473       0.033944
      6 C                    -0.040870       0.061764
      7 C                     0.536971       0.051975
      8 C                    -0.497629       0.117291
      9 O                    -0.496512       0.195920
     10 C                     0.055474       0.024326
     11 C                     0.020604       0.030011
     12 C                    -0.492029       0.030656
     13 C                    -0.506250       0.043834
     14 C                     0.050209       0.023191
     15 C                    -0.019958       0.019482
     16 C                    -0.221802       0.117047
     17 O                    -0.500078       0.173545
     18 C                     0.026335      -0.007460
     19 H                     0.162575       0.000917
     20 H                     0.163186       0.000956
     21 H                     0.170821      -0.000131
     22 H                     0.415767      -0.002537
     23 H                     0.182235      -0.005895
     24 H                     0.206589      -0.002829
     25 H                     0.161471      -0.003622
     26 H                     0.171987      -0.001720
     27 H                     0.200717      -0.002718
     28 H                     0.202566      -0.003423
     29 H                     0.175852      -0.000685
  --------------------------------------------------------
  Sum of atomic charges =    -1.000000

                    Cartesian Multipole Moments
 -----------------------------------------------------------------
    Charge (ESU x 10^10)
                -4.8032
    Dipole Moment (Debye)
         X       3.8072      Y       3.8235      Z       0.0271
       Tot       5.3958
    Quadrupole Moments (Debye-Ang)
        XX    -101.3945     XY      -7.5001     YY    -135.6292
        XZ       0.0736     YZ       0.0392     ZZ    -113.7055

 Total job time:  106.77s(wall), 804.75s(cpu)
        *  Thank you very much for using Q-Chem.  Have a nice day.  *
