 Q-Chem 5.4, Q-Chem, Inc., Pleasanton, CA (2021)
 Q-Chem 5.4.0 for Intel X86 EM64T Linux

User input:
--------------------------------------------------------------
$molecule
-1 2
C                 -0.9084430000      3.8208760000     -0.6561560000
C                 -2.0018530000      3.0226350000     -0.1533810000
C                 -1.8514750000      1.7255380000      0.2846040000
C                  0.4520010000      3.1693380000     -0.6842630000
C                  0.5547820000      1.7975950000     -0.2001400000
C                 -0.5584770000      1.1242340000      0.2580900000
O                  1.4621130000      3.7837260000     -1.1021850000
O                 -1.0752490000      4.9991790000     -1.0493970000
C                  1.9424280000      1.1944910000     -0.2349560000
C                  2.0886740000     -0.2413200000      0.2750640000
C                  3.5308340000     -0.7576700000      0.2012330000
C                  3.6919380000     -2.1943790000      0.7096430000
C                 -3.0394660000      0.9151250000      0.7581400000
C                 -3.6025960000     -0.0473350000     -0.3056690000
C                 -4.8031150000     -0.8664610000      0.1818640000
C                 -5.3625990000     -1.8194240000     -0.8798430000
H                 -2.9767740000      3.5056670000     -0.1346580000
H                 -0.4657030000      0.1034250000      0.6207810000
H                  2.6170070000      1.8522220000      0.3294050000
H                  2.3175980000      1.2550410000     -1.2654370000
H                  1.4410470000     -0.9121390000     -0.3045800000
H                  1.7409310000     -0.3059400000      1.3144240000
H                  4.1823420000     -0.0911810000      0.7799880000
H                  3.8830060000     -0.6966470000     -0.8360210000
H                  3.3796770000     -2.2798700000      1.7561110000
H                  4.7311710000     -2.5338110000      0.6441840000
H                  3.0778270000     -2.8900190000      0.1275230000
H                 -3.8390940000      1.5956910000      1.0745450000
H                 -2.7607050000      0.3283910000      1.6450060000
H                 -2.8058760000     -0.7260730000     -0.6336610000
H                 -3.8883490000      0.5350240000     -1.1898520000
H                 -5.5964470000     -0.1831910000      0.5112820000
H                 -4.5119120000     -1.4419730000      1.0701980000
H                 -5.6928990000     -1.2693570000     -1.7671200000
H                 -6.2188020000     -2.3890300000     -0.5031110000
H                 -4.6020400000     -2.5372100000     -1.2047380000
$end
$rem
MAX_SCF_CYCLES=200
BASIS  =  6-311++G(d,p)
GUI  =  2
JOB_TYPE  =  SP
METHOD  =  B3LYP
SOLVENT_METHOD = PCM
$end
$pcm
theory = CPCM
$end
$solvent
dielectric 37.219
opticaldielectric 1.43
$end

--------------------------------------------------------------

             Standard Nuclear Orientation (Angstroms)
    I     Atom           X                Y                Z
 ----------------------------------------------------------------
    1      C      -0.9084430000     3.8208760000    -0.6561560000
    2      C      -2.0018530000     3.0226350000    -0.1533810000
    3      C      -1.8514750000     1.7255380000     0.2846040000
    4      C       0.4520010000     3.1693380000    -0.6842630000
    5      C       0.5547820000     1.7975950000    -0.2001400000
    6      C      -0.5584770000     1.1242340000     0.2580900000
    7      O       1.4621130000     3.7837260000    -1.1021850000
    8      O      -1.0752490000     4.9991790000    -1.0493970000
    9      C       1.9424280000     1.1944910000    -0.2349560000
   10      C       2.0886740000    -0.2413200000     0.2750640000
   11      C       3.5308340000    -0.7576700000     0.2012330000
   12      C       3.6919380000    -2.1943790000     0.7096430000
   13      C      -3.0394660000     0.9151250000     0.7581400000
   14      C      -3.6025960000    -0.0473350000    -0.3056690000
   15      C      -4.8031150000    -0.8664610000     0.1818640000
   16      C      -5.3625990000    -1.8194240000    -0.8798430000
   17      H      -2.9767740000     3.5056670000    -0.1346580000
   18      H      -0.4657030000     0.1034250000     0.6207810000
   19      H       2.6170070000     1.8522220000     0.3294050000
   20      H       2.3175980000     1.2550410000    -1.2654370000
   21      H       1.4410470000    -0.9121390000    -0.3045800000
   22      H       1.7409310000    -0.3059400000     1.3144240000
   23      H       4.1823420000    -0.0911810000     0.7799880000
   24      H       3.8830060000    -0.6966470000    -0.8360210000
   25      H       3.3796770000    -2.2798700000     1.7561110000
   26      H       4.7311710000    -2.5338110000     0.6441840000
   27      H       3.0778270000    -2.8900190000     0.1275230000
   28      H      -3.8390940000     1.5956910000     1.0745450000
   29      H      -2.7607050000     0.3283910000     1.6450060000
   30      H      -2.8058760000    -0.7260730000    -0.6336610000
   31      H      -3.8883490000     0.5350240000    -1.1898520000
   32      H      -5.5964470000    -0.1831910000     0.5112820000
   33      H      -4.5119120000    -1.4419730000     1.0701980000
   34      H      -5.6928990000    -1.2693570000    -1.7671200000
   35      H      -6.2188020000    -2.3890300000    -0.5031110000
   36      H      -4.6020400000    -2.5372100000    -1.2047380000
 ----------------------------------------------------------------

    8    -696.3237173384      7.87e-06  Convergence criterion met
 Total energy in the final basis set =     -696.3237173384

                    Orbital Energies (a.u.)
 --------------------------------------------------------------

 Alpha MOs
 -- Occupied --
-19.0772 -19.0737 -10.2122 -10.2110 -10.1710 -10.1619 -10.1612 -10.1583
-10.1578 -10.1569 -10.1568 -10.1567 -10.1547 -10.1515 -10.1508 -10.1449
 -1.0112  -0.9848  -0.8344  -0.7981  -0.7838  -0.7525  -0.7231  -0.6945
 -0.6777  -0.6352  -0.6182  -0.5802  -0.5744  -0.5509  -0.5423  -0.4807
 -0.4657  -0.4652  -0.4566  -0.4312  -0.4261  -0.4197  -0.4165  -0.4075
 -0.4052  -0.4004  -0.3988  -0.3833  -0.3715  -0.3649  -0.3559  -0.3549
 -0.3395  -0.3373  -0.3347  -0.3258  -0.3228  -0.3186  -0.3173  -0.3169
 -0.2981  -0.2572  -0.2207  -0.2171  -0.1610

 Beta MOs
 -- Occupied --
-19.0709 -19.0680 -10.2107 -10.2092 -10.1690 -10.1613 -10.1612 -10.1582
-10.1576 -10.1568 -10.1568 -10.1555 -10.1547 -10.1515 -10.1508 -10.1449
 -1.0006  -0.9735  -0.8300  -0.7974  -0.7828  -0.7510  -0.7210  -0.6926
 -0.6710  -0.6343  -0.6149  -0.5793  -0.5738  -0.5480  -0.5380  -0.4791
 -0.4651  -0.4623  -0.4559  -0.4277  -0.4230  -0.4162  -0.4150  -0.4062
 -0.4018  -0.3984  -0.3841  -0.3808  -0.3691  -0.3637  -0.3534  -0.3488
 -0.3376  -0.3341  -0.3255  -0.3221  -0.3207  -0.3182  -0.3159  -0.3090
 -0.2833  -0.2513  -0.2153  -0.2048

          Ground-State Mulliken Net Atomic Charges

     Atom                 Charge (a.u.)    Spin (a.u.)
  --------------------------------------------------------
      1 C                    -0.236083       0.162368
      2 C                    -0.269366      -0.019225
      3 C                     0.682740       0.094237
      4 C                    -0.156818       0.094763
      5 C                     1.395695       0.075277
      6 C                    -1.171870       0.087090
      7 O                    -0.498452       0.242974
      8 O                    -0.538683       0.211063
      9 C                    -0.082488       0.027241
     10 C                    -0.168531      -0.004128
     11 C                    -0.292343       0.000345
     12 C                    -0.659894      -0.000077
     13 C                    -0.790462       0.032636
     14 C                    -0.283051      -0.021671
     15 C                    -0.224749       0.018446
     16 C                    -0.662255      -0.001567
     17 H                     0.181203      -0.001959
     18 H                     0.174774      -0.009141
     19 H                     0.182611       0.004213
     20 H                     0.179050       0.004171
     21 H                     0.119105      -0.000024
     22 H                     0.118119      -0.000102
     23 H                     0.138774      -0.000192
     24 H                     0.136318      -0.000177
     25 H                     0.144810       0.000001
     26 H                     0.153435      -0.000012
     27 H                     0.144422       0.000014
     28 H                     0.174421       0.000690
     29 H                     0.152486       0.003906
     30 H                     0.113261      -0.002064
     31 H                     0.138962       0.000402
     32 H                     0.131716      -0.000169
     33 H                     0.134211      -0.000136
     34 H                     0.145931      -0.000056
     35 H                     0.147051       0.000650
     36 H                     0.145951       0.000211
  --------------------------------------------------------
  Sum of atomic charges =    -1.000000

                    Cartesian Multipole Moments
 -----------------------------------------------------------------
    Charge (ESU x 10^10)
                -4.8032
    Dipole Moment (Debye)
         X      -0.9118      Y     -22.5038      Z       5.6130
       Tot      23.2112
    Quadrupole Moments (Debye-Ang)
        XX    -109.5816     XY      -0.1679     YY    -208.4242
        XZ       0.7034     YZ      24.9012     ZZ    -110.3471

 Total job time:  65.06s(wall), 453.31s(cpu)
        *  Thank you very much for using Q-Chem.  Have a nice day.  *
