 Q-Chem 5.4, Q-Chem, Inc., Pleasanton, CA (2021)
 Q-Chem 5.4.0 for Intel X86 EM64T Linux

User input:
--------------------------------------------------------------
$molecule
-1 2
C                 -1.0894580000      0.7787010000     -3.0714360000
C                 -1.9200780000      1.0754730000     -1.9162290000
C                  0.3170340000      0.6433310000     -2.7308980000
C                  0.7607990000      0.4796370000     -1.4454480000
C                 -0.2073770000      0.2485320000     -0.3680110000
C                 -1.4886930000      0.9142270000     -0.6262470000
C                  0.0591110000     -0.5496940000      0.7872880000
C                 -0.9090770000     -0.7809580000      1.8646830000
C                  1.3404600000     -1.2153260000      1.0455020000
C                 -0.4653240000     -0.9447410000      3.1501270000
C                  1.7718260000     -1.3766530000      2.3354800000
C                  0.9411690000     -1.0800160000      3.4906890000
O                 -1.5131650000      0.8044650000     -4.2486160000
O                  1.3648440000     -1.1058920000      4.6678810000
C                  2.2264150000      0.7965990000     -1.1640310000
C                  2.4982240000      2.3124590000     -1.2563620000
C                  3.9558310000      2.6750570000     -0.9494920000
C                  4.2354020000      4.1788790000     -1.0398840000
C                  2.1002600000     -1.9624460000     -0.0463920000
C                  1.8477060000     -3.4821160000      0.0370150000
C                  2.5706150000     -4.2664600000     -1.0641090000
C                  2.3260000000     -5.7771800000     -0.9888350000
C                 -2.3746640000     -1.0980330000      1.5832130000
C                 -2.6463880000     -2.6139020000      1.6755540000
C                 -4.1039570000     -2.9765880000      1.3685960000
C                 -4.3834500000     -4.4804240000      1.4590080000
C                 -2.2483520000      1.6615860000      0.4655740000
C                 -1.9956070000      3.1812160000      0.3819260000
C                 -2.7183640000      3.9658190000      1.4829630000
C                 -2.4735490000      5.4764950000      1.4074540000
H                 -2.8799670000      1.5429750000     -2.1204200000
H                  1.0253210000      0.7884920000     -3.5426170000
H                 -1.1736150000     -1.0900360000      3.9618170000
H                  2.7317490000     -1.8440920000      2.5396520000
H                  2.8754780000      0.2802020000     -1.8813630000
H                  2.5220350000      0.4699090000     -0.1690310000
H                  1.8374340000      2.8353810000     -0.5546550000
H                  2.2308860000      2.6732980000     -2.2556440000
H                  4.6156440000      2.1398380000     -1.6445200000
H                  4.2154400000      2.3155950000      0.0535860000
H                  4.0153300000      4.5618220000     -2.0419120000
H                  5.2825540000      4.4082500000     -0.8176610000
H                  3.6152330000      4.7376200000     -0.3314730000
H                  3.1780400000     -1.7810830000      0.0430910000
H                  1.7996530000     -1.6336560000     -1.0391980000
H                  0.7691010000     -3.6672710000     -0.0321730000
H                  2.1596990000     -3.8528510000      1.0195850000
H                  3.6484740000     -4.0687400000     -1.0007930000
H                  2.2504600000     -3.8937020000     -2.0445940000
H                  2.6658240000     -6.1849740000     -0.0310400000
H                  2.8545270000     -6.3112040000     -1.7850810000
H                  1.2601350000     -6.0083800000     -1.0843620000
H                 -2.6702310000     -0.7713730000      0.5881830000
H                 -3.0238160000     -0.5816600000      2.3004790000
H                 -2.3790990000     -2.9747170000      2.6748570000
H                 -1.9855220000     -3.1368050000      0.9739020000
H                 -4.3635230000     -2.6171640000      0.3654940000
H                 -4.7638440000     -2.4413900000      2.0635700000
H                 -3.7632030000     -5.0391480000      0.7506510000
H                 -5.4305750000     -4.7098590000      1.2367210000
H                 -4.1634230000     -4.8633300000      2.4610590000
H                 -1.9477490000      1.3329140000      1.4584170000
H                 -3.3261580000      1.4803480000      0.3761500000
H                 -2.3075970000      3.5518380000     -0.6006870000
H                 -0.9169750000      3.3662390000      0.4510400000
H                 -2.3982150000      3.5931640000      2.4634900000
H                 -3.7962530000      3.7682350000      1.4197240000
H                 -1.4076490000      5.7075660000      1.5029010000
H                 -3.0019700000      6.0107080000      2.2036450000
H                 -2.8133610000      5.8841920000      0.4496140000
$end

$rem
BASIS  =  6-311++G(d,p)
GUI  =  2
JOB_TYPE  =  SP
METHOD  =  B3LYP
SCF_CONVERGENCE  = 8
SOLVENT_METHOD = sm12
$end

$smx
solvent dimethylformamide
charges CM5
$end

--------------------------------------------------------------

             Standard Nuclear Orientation (Angstroms)
    I     Atom           X                Y                Z
 ----------------------------------------------------------------
    1      C      -1.0894580000     0.7787010000    -3.0714360000
    2      C      -1.9200780000     1.0754730000    -1.9162290000
    3      C       0.3170340000     0.6433310000    -2.7308980000
    4      C       0.7607990000     0.4796370000    -1.4454480000
    5      C      -0.2073770000     0.2485320000    -0.3680110000
    6      C      -1.4886930000     0.9142270000    -0.6262470000
    7      C       0.0591110000    -0.5496940000     0.7872880000
    8      C      -0.9090770000    -0.7809580000     1.8646830000
    9      C       1.3404600000    -1.2153260000     1.0455020000
   10      C      -0.4653240000    -0.9447410000     3.1501270000
   11      C       1.7718260000    -1.3766530000     2.3354800000
   12      C       0.9411690000    -1.0800160000     3.4906890000
   13      O      -1.5131650000     0.8044650000    -4.2486160000
   14      O       1.3648440000    -1.1058920000     4.6678810000
   15      C       2.2264150000     0.7965990000    -1.1640310000
   16      C       2.4982240000     2.3124590000    -1.2563620000
   17      C       3.9558310000     2.6750570000    -0.9494920000
   18      C       4.2354020000     4.1788790000    -1.0398840000
   19      C       2.1002600000    -1.9624460000    -0.0463920000
   20      C       1.8477060000    -3.4821160000     0.0370150000
   21      C       2.5706150000    -4.2664600000    -1.0641090000
   22      C       2.3260000000    -5.7771800000    -0.9888350000
   23      C      -2.3746640000    -1.0980330000     1.5832130000
   24      C      -2.6463880000    -2.6139020000     1.6755540000
   25      C      -4.1039570000    -2.9765880000     1.3685960000
   26      C      -4.3834500000    -4.4804240000     1.4590080000
   27      C      -2.2483520000     1.6615860000     0.4655740000
   28      C      -1.9956070000     3.1812160000     0.3819260000
   29      C      -2.7183640000     3.9658190000     1.4829630000
   30      C      -2.4735490000     5.4764950000     1.4074540000
   31      H      -2.8799670000     1.5429750000    -2.1204200000
   32      H       1.0253210000     0.7884920000    -3.5426170000
   33      H      -1.1736150000    -1.0900360000     3.9618170000
   34      H       2.7317490000    -1.8440920000     2.5396520000
   35      H       2.8754780000     0.2802020000    -1.8813630000
   36      H       2.5220350000     0.4699090000    -0.1690310000
   37      H       1.8374340000     2.8353810000    -0.5546550000
   38      H       2.2308860000     2.6732980000    -2.2556440000
   39      H       4.6156440000     2.1398380000    -1.6445200000
   40      H       4.2154400000     2.3155950000     0.0535860000
   41      H       4.0153300000     4.5618220000    -2.0419120000
   42      H       5.2825540000     4.4082500000    -0.8176610000
   43      H       3.6152330000     4.7376200000    -0.3314730000
   44      H       3.1780400000    -1.7810830000     0.0430910000
   45      H       1.7996530000    -1.6336560000    -1.0391980000
   46      H       0.7691010000    -3.6672710000    -0.0321730000
   47      H       2.1596990000    -3.8528510000     1.0195850000
   48      H       3.6484740000    -4.0687400000    -1.0007930000
   49      H       2.2504600000    -3.8937020000    -2.0445940000
   50      H       2.6658240000    -6.1849740000    -0.0310400000
   51      H       2.8545270000    -6.3112040000    -1.7850810000
   52      H       1.2601350000    -6.0083800000    -1.0843620000
   53      H      -2.6702310000    -0.7713730000     0.5881830000
   54      H      -3.0238160000    -0.5816600000     2.3004790000
   55      H      -2.3790990000    -2.9747170000     2.6748570000
   56      H      -1.9855220000    -3.1368050000     0.9739020000
   57      H      -4.3635230000    -2.6171640000     0.3654940000
   58      H      -4.7638440000    -2.4413900000     2.0635700000
   59      H      -3.7632030000    -5.0391480000     0.7506510000
   60      H      -5.4305750000    -4.7098590000     1.2367210000
   61      H      -4.1634230000    -4.8633300000     2.4610590000
   62      H      -1.9477490000     1.3329140000     1.4584170000
   63      H      -3.3261580000     1.4803480000     0.3761500000
   64      H      -2.3075970000     3.5518380000    -0.6006870000
   65      H      -0.9169750000     3.3662390000     0.4510400000
   66      H      -2.3982150000     3.5931640000     2.4634900000
   67      H      -3.7962530000     3.7682350000     1.4197240000
   68      H      -1.4076490000     5.7075660000     1.5029010000
   69      H      -3.0019700000     6.0107080000     2.2036450000
   70      H      -2.8133610000     5.8841920000     0.4496140000
 ----------------------------------------------------------------

   16   -1241.8758838401      8.82e-09  Convergence criterion met
 Total energy in the final basis set =    -1241.9605209441

                    Orbital Energies (a.u.)
 --------------------------------------------------------------

 Alpha MOs
 -- Occupied --
-19.0738 -19.0738 -10.2237 -10.2237 -10.1893 -10.1889 -10.1870 -10.1870
-10.1870 -10.1870 -10.1718 -10.1718 -10.1717 -10.1717 -10.1681 -10.1681
-10.1681 -10.1681 -10.1679 -10.1679 -10.1678 -10.1678 -10.1602 -10.1602
-10.1602 -10.1602 -10.1565 -10.1565 -10.1565 -10.1564  -0.9975  -0.9974
 -0.8696  -0.8419  -0.8186  -0.8099  -0.7975  -0.7948  -0.7721  -0.7655
 -0.7484  -0.7338  -0.7311  -0.7051  -0.7049  -0.6783  -0.6514  -0.6499
 -0.6344  -0.6310  -0.5907  -0.5876  -0.5837  -0.5822  -0.5804  -0.5696
 -0.5550  -0.5523  -0.5133  -0.4969  -0.4826  -0.4759  -0.4743  -0.4647
 -0.4557  -0.4481  -0.4462  -0.4372  -0.4367  -0.4365  -0.4312  -0.4294
 -0.4204  -0.4201  -0.4193  -0.4168  -0.4056  -0.4055  -0.4039  -0.4008
 -0.3990  -0.3875  -0.3870  -0.3863  -0.3760  -0.3754  -0.3680  -0.3661
 -0.3615  -0.3588  -0.3563  -0.3553  -0.3506  -0.3446  -0.3424  -0.3394
 -0.3362  -0.3353  -0.3328  -0.3317  -0.3300  -0.3292  -0.3284  -0.3256
 -0.3205  -0.3116  -0.2805  -0.2418  -0.2404  -0.2307  -0.2292  -0.2266
 -0.1519

 Beta MOs
 -- Occupied --
-19.0695 -19.0695 -10.2234 -10.2234 -10.1873 -10.1870 -10.1866 -10.1865
-10.1865 -10.1864 -10.1718 -10.1718 -10.1718 -10.1718 -10.1681 -10.1681
-10.1680 -10.1680 -10.1679 -10.1679 -10.1678 -10.1678 -10.1602 -10.1602
-10.1602 -10.1602 -10.1555 -10.1555 -10.1555 -10.1555  -0.9901  -0.9901
 -0.8659  -0.8390  -0.8181  -0.8097  -0.7970  -0.7942  -0.7715  -0.7648
 -0.7437  -0.7330  -0.7302  -0.7042  -0.7040  -0.6731  -0.6509  -0.6488
 -0.6336  -0.6294  -0.5903  -0.5875  -0.5834  -0.5820  -0.5778  -0.5679
 -0.5531  -0.5506  -0.5119  -0.4959  -0.4823  -0.4754  -0.4741  -0.4643
 -0.4529  -0.4462  -0.4453  -0.4365  -0.4365  -0.4351  -0.4296  -0.4292
 -0.4200  -0.4198  -0.4184  -0.4159  -0.4052  -0.4030  -0.4028  -0.3960
 -0.3927  -0.3867  -0.3863  -0.3838  -0.3758  -0.3745  -0.3620  -0.3612
 -0.3599  -0.3581  -0.3553  -0.3507  -0.3504  -0.3441  -0.3423  -0.3383
 -0.3352  -0.3350  -0.3327  -0.3316  -0.3298  -0.3290  -0.3281  -0.3252
 -0.3105  -0.3099  -0.2658  -0.2376  -0.2364  -0.2265  -0.2249  -0.2062

          Ground-State Mulliken Net Atomic Charges

     Atom                 Charge (a.u.)    Spin (a.u.)
  --------------------------------------------------------
      1 C                    -2.053099       0.041135
      2 C                    -0.775271       0.081390
      3 C                    -0.781206       0.082222
      4 C                     0.310999       0.019152
      5 C                    -0.434567       0.119572
      6 C                     0.319103       0.019606
      7 C                    -0.434532       0.119552
      8 C                     0.311121       0.019160
      9 C                     0.318819       0.019618
     10 C                    -0.781169       0.082231
     11 C                    -0.775224       0.081368
     12 C                    -2.053113       0.041144
     13 O                    -0.422559       0.152192
     14 O                    -0.422567       0.152198
     15 C                     0.195994      -0.012677
     16 C                    -0.046853       0.004762
     17 C                     0.451041      -0.002837
     18 C                    -0.087989      -0.000428
     19 C                     0.194126      -0.013201
     20 C                    -0.043744       0.005016
     21 C                     0.449380      -0.002873
     22 C                    -0.087919      -0.000411
     23 C                     0.195579      -0.012678
     24 C                    -0.047073       0.004762
     25 C                     0.451125      -0.002837
     26 C                    -0.087970      -0.000429
     27 C                     0.193602      -0.013189
     28 C                    -0.043637       0.005014
     29 C                     0.449431      -0.002873
     30 C                    -0.087966      -0.000411
     31 H                     0.148086      -0.005864
     32 H                     0.147202      -0.005862
     33 H                     0.147204      -0.005862
     34 H                     0.148078      -0.005863
     35 H                     0.307713       0.000067
     36 H                    -0.056386       0.008753
     37 H                    -0.183696       0.001937
     38 H                     0.147309      -0.000829
     39 H                     0.142291       0.000511
     40 H                     0.120065      -0.000722
     41 H                     0.134905       0.000057
     42 H                     0.248468      -0.000029
     43 H                     0.147026      -0.000106
     44 H                     0.306876       0.000147
     45 H                    -0.054366       0.008641
     46 H                    -0.183425       0.001757
     47 H                     0.148007      -0.000806
     48 H                     0.142283       0.000502
     49 H                     0.120404      -0.000705
     50 H                     0.134998       0.000055
     51 H                     0.248247      -0.000027
     52 H                     0.146944      -0.000102
     53 H                    -0.056281       0.008750
     54 H                     0.307658       0.000069
     55 H                     0.147297      -0.000829
     56 H                    -0.183651       0.001939
     57 H                     0.120057      -0.000722
     58 H                     0.142288       0.000511
     59 H                     0.147026      -0.000106
     60 H                     0.248471      -0.000029
     61 H                     0.134904       0.000057
     62 H                    -0.054084       0.008632
     63 H                     0.306800       0.000149
     64 H                     0.147976      -0.000806
     65 H                    -0.183424       0.001760
     66 H                     0.120384      -0.000704
     67 H                     0.142288       0.000502
     68 H                     0.146954      -0.000102
     69 H                     0.248249      -0.000027
     70 H                     0.134996       0.000055
  --------------------------------------------------------
  Sum of atomic charges =    -1.000000

                    Cartesian Multipole Moments
 -----------------------------------------------------------------
    Charge (ESU x 10^10)
                -4.8032
    Dipole Moment (Debye)
         X       0.3562      Y       0.7240      Z      -1.0073
       Tot       1.2906
    Quadrupole Moments (Debye-Ang)
        XX    -200.4692     XY       4.5750     YY    -201.6000
        XZ     -32.5890     YZ      19.2742     ZZ    -289.5285

 Total job time:  9130.02s(wall), 38792.09s(cpu)
        *  Thank you very much for using Q-Chem.  Have a nice day.  *
