 Gaussian 16, Revision A.03,
 Gaussian 16:  ES64L-G16RevA.03 25-Dec-2016

 ----------------------------------------------------------------------
 #P UB3LYP/6-311++G(d,p) nosym opt freq SCRF=(PCM,Solvent=n,n-DiMethylF
 ormamide)
 ----------------------------------------------------------------------

 -------
 Reduced
 -------
 Symbolic Z-matrix:
 Charge = -2 Multiplicity = 1

 SCF Done:  E(UB3LYP) =  -10676.0068945     A.U. after   17 cycles
 SCF Done:  E(UB3LYP) =  -10676.0100684     A.U. after   14 cycles
 SCF Done:  E(UB3LYP) =  -10676.0119872     A.U. after   15 cycles
 SCF Done:  E(UB3LYP) =  -10676.0129084     A.U. after   15 cycles
 SCF Done:  E(UB3LYP) =  -10676.0133933     A.U. after   14 cycles
 SCF Done:  E(UB3LYP) =  -10676.0136585     A.U. after   14 cycles
 SCF Done:  E(UB3LYP) =  -10676.0136851     A.U. after   15 cycles
 SCF Done:  E(UB3LYP) =  -10676.0138157     A.U. after   14 cycles
 SCF Done:  E(UB3LYP) =  -10676.0139069     A.U. after   13 cycles
 SCF Done:  E(UB3LYP) =  -10676.0139374     A.U. after   13 cycles
 SCF Done:  E(UB3LYP) =  -10676.0139450     A.U. after   12 cycles
 SCF Done:  E(UB3LYP) =  -10676.0139457     A.U. after   10 cycles
 Optimization completed.
    -- Stationary point found.
 Normal termination of Gaussian 16 at Sun Feb 11 16:17:12 2024.

 ----------------------------------------------------------------------
 #P Geom=AllCheck Guess=TCheck SCRF=Check GenChk UB3LYP/6-311++G(d,p) F
 req
 ----------------------------------------------------------------------

 Structure from the checkpoint file:  "318-an.chk"
 -------
 Reduced
 -------
 Charge = -2 Multiplicity = 1

                          Input orientation:
 ---------------------------------------------------------------------
 Center     Atomic      Atomic             Coordinates (Angstroms)
 Number     Number       Type             X           Y           Z
 ---------------------------------------------------------------------
      1         35           0       -2.356663    2.143607    0.809917
      2          6           0       -0.973174    0.884893    0.338640
      3          6           0       -1.264491   -0.498705    0.244533
      4         35           0       -3.058306   -1.153583    0.600400
      5          6           0       -0.321410   -1.498551   -0.099618
      6          8           0       -0.594679   -2.742626   -0.176795
      7          6           0        1.071499   -1.031952   -0.383349
      8          8           0        1.967040   -1.882562   -0.703997
      9          6           0        1.304897    0.360915   -0.271170
     10          6           0        0.320354    1.317238    0.080609
     11         35           0        0.775343    3.187917    0.197864
     12         35           0        3.128391    0.914612   -0.642636
 ---------------------------------------------------------------------

 SCF Done:  E(UB3LYP) =  -10676.0139457     A.U. after    1 cycles

 Alpha  occ. eigenvalues -- -482.82190-482.82190-482.80956-482.80947 -62.47472
 Alpha  occ. eigenvalues --  -62.47472 -62.46233 -62.46225 -56.29506 -56.29506
 Alpha  occ. eigenvalues --  -56.29128 -56.29127 -56.29103 -56.29103 -56.28249
 Alpha  occ. eigenvalues --  -56.28241 -56.27901 -56.27893 -56.27871 -56.27863
 Alpha  occ. eigenvalues --  -19.03516 -19.03514 -10.21373 -10.21318 -10.19704
 Alpha  occ. eigenvalues --  -10.19677 -10.19278 -10.19266  -8.68444  -8.68444
 Alpha  occ. eigenvalues --   -8.67195  -8.67187  -6.51573  -6.51573  -6.50317
 Alpha  occ. eigenvalues --   -6.50317  -6.50268  -6.50261  -6.50255  -6.50255
 Alpha  occ. eigenvalues --   -6.49109  -6.49102  -6.49024  -6.49017  -2.62668
 Alpha  occ. eigenvalues --   -2.62667  -2.62318  -2.62318  -2.62273  -2.62273
 Alpha  occ. eigenvalues --   -2.61373  -2.61366  -2.61273  -2.61273  -2.61273
 Alpha  occ. eigenvalues --   -2.61272  -2.61056  -2.61049  -2.60992  -2.60985
 Alpha  occ. eigenvalues --   -2.60070  -2.60069  -2.60062  -2.60062  -0.96978
 Alpha  occ. eigenvalues --   -0.93821  -0.85975  -0.80540  -0.78343  -0.76730
 Alpha  occ. eigenvalues --   -0.74878  -0.66819  -0.66415  -0.54761  -0.54690
 Alpha  occ. eigenvalues --   -0.47936  -0.44406  -0.40095  -0.40060  -0.38186
 Alpha  occ. eigenvalues --   -0.38116  -0.36017  -0.35009  -0.34513  -0.33594
 Alpha  occ. eigenvalues --   -0.30851  -0.29635  -0.29230  -0.29053  -0.27639
 Alpha  occ. eigenvalues --   -0.26894  -0.26173  -0.25543  -0.21682  -0.20292
 Alpha  occ. eigenvalues --   -0.19662  -0.14632
 Alpha virt. eigenvalues --   -0.04895  -0.00158   0.00678   0.01594   0.01660
 Alpha virt. eigenvalues --    0.02475   0.02553   0.03186   0.03499   0.04111
 Alpha virt. eigenvalues --    0.05115   0.05410   0.05597   0.06202   0.06317

  Beta  occ. eigenvalues -- -482.82190-482.82190-482.80956-482.80947 -62.47472
  Beta  occ. eigenvalues --  -62.47472 -62.46233 -62.46225 -56.29506 -56.29506
  Beta  occ. eigenvalues --  -56.29128 -56.29127 -56.29103 -56.29103 -56.28249
  Beta  occ. eigenvalues --  -56.28241 -56.27901 -56.27893 -56.27871 -56.27863
  Beta  occ. eigenvalues --  -19.03516 -19.03514 -10.21373 -10.21318 -10.19704
  Beta  occ. eigenvalues --  -10.19677 -10.19278 -10.19266  -8.68444  -8.68444
  Beta  occ. eigenvalues --   -8.67195  -8.67187  -6.51573  -6.51573  -6.50317
  Beta  occ. eigenvalues --   -6.50317  -6.50268  -6.50261  -6.50255  -6.50255
  Beta  occ. eigenvalues --   -6.49109  -6.49102  -6.49024  -6.49017  -2.62668
  Beta  occ. eigenvalues --   -2.62667  -2.62318  -2.62318  -2.62273  -2.62273
  Beta  occ. eigenvalues --   -2.61373  -2.61366  -2.61273  -2.61273  -2.61273
  Beta  occ. eigenvalues --   -2.61272  -2.61056  -2.61049  -2.60992  -2.60985
  Beta  occ. eigenvalues --   -2.60070  -2.60069  -2.60062  -2.60062  -0.96978
  Beta  occ. eigenvalues --   -0.93821  -0.85975  -0.80540  -0.78343  -0.76730
  Beta  occ. eigenvalues --   -0.74878  -0.66819  -0.66415  -0.54761  -0.54690
  Beta  occ. eigenvalues --   -0.47936  -0.44406  -0.40095  -0.40060  -0.38186
  Beta  occ. eigenvalues --   -0.38116  -0.36017  -0.35009  -0.34513  -0.33594
  Beta  occ. eigenvalues --   -0.30851  -0.29635  -0.29230  -0.29053  -0.27639
  Beta  occ. eigenvalues --   -0.26894  -0.26173  -0.25543  -0.21682  -0.20292
  Beta  occ. eigenvalues --   -0.19662  -0.14632
  Beta virt. eigenvalues --   -0.04895  -0.00158   0.00678   0.01594   0.01660
  Beta virt. eigenvalues --    0.02475   0.02553   0.03186   0.03499   0.04111
  Beta virt. eigenvalues --    0.05115   0.05410   0.05597   0.06202   0.06317

 Mulliken charges and spin densities:
               1          2
     1  Br  -0.183633   0.000000
     2  C   -0.477464  -0.000000
     3  C    0.646258  -0.000000
     4  Br  -0.191096   0.000000
     5  C   -0.204540   0.000000
     6  O   -0.589872  -0.000000
     7  C   -0.204105  -0.000000
     8  O   -0.589380   0.000000
     9  C    0.645872   0.000000
    10  C   -0.477723   0.000000
    11  Br  -0.183501   0.000000
    12  Br  -0.190814  -0.000000
 Sum of Mulliken charges =  -2.00000   0.00000

 Dipole moment (field-independent basis, Debye):
    X=             -3.0283    Y=             10.2192    Z=              1.9440  Tot=             10.8343
 Quadrupole moment (field-independent basis, Debye-Ang):
   XX=           -162.0976   YY=           -174.6205   ZZ=           -129.9000
   XY=              2.6168   XZ=              8.7993   YZ=             -6.2663

  Exact polarizability: 316.651  10.316 307.559 -40.725  17.098 153.826
 Approx polarizability: 335.815   4.169 345.569 -42.057  21.147 171.404

                      1                      2                      3
                      A                      A                      A
 Frequencies --     27.3005                38.5057                86.7431
 Red. masses --     25.6980                59.6086                17.1036
 Frc consts  --      0.0113                 0.0521                 0.0758
 IR Inten    --     10.3335                 0.0134                 0.0256

                      4                      5                      6
                      A                      A                      A
 Frequencies --    136.0173               139.4021               145.8738
 Red. masses --     68.7363                50.0468                73.5384
 Frc consts  --      0.7492                 0.5730                 0.9220
 IR Inten    --      2.5498                 4.8245                 0.4181

                      7                      8                      9
                      A                      A                      A
 Frequencies --    146.7717               194.7814               212.8747
 Red. masses --     13.2853                65.8330                68.2893
 Frc consts  --      0.1686                 1.4716                 1.8233
 IR Inten    --      0.0583                 2.6483                 0.4036

                     10                     11                     12
                      A                      A                      A
 Frequencies --    247.7465               260.9917               277.3515
 Red. masses --     19.2088                12.2955                12.5451
 Frc consts  --      0.6947                 0.4935                 0.5686
 IR Inten    --      7.0163                 0.0024                 3.6665

                     13                     14                     15
                      A                      A                      A
 Frequencies --    317.0343               391.1892               421.4419
 Red. masses --     19.1995                15.8113                15.0746
 Frc consts  --      1.1370                 1.4256                 1.5775
 IR Inten    --      1.9631                 0.5815                 0.2673

                     16                     17                     18
                      A                      A                      A
 Frequencies --    489.8228               564.8864               581.5795
 Red. masses --     12.0093                12.2875                13.2830
 Frc consts  --      1.6976                 2.3101                 2.6471
 IR Inten    --      0.0812                20.9498               136.9379

                     19                     20                     21
                      A                      A                      A
 Frequencies --    692.6016               705.8436               760.1557
 Red. masses --     12.6294                12.6725                12.2295
 Frc consts  --      3.5694                 3.7199                 4.1636
 IR Inten    --     74.4559                83.8168                 0.0386

                     22                     23                     24
                      A                      A                      A
 Frequencies --    870.0523               891.3251              1192.7195
 Red. masses --     12.7876                12.3309                12.0279
 Frc consts  --      5.7034                 5.7719                10.0813
 IR Inten    --      1.2850               143.0358                62.6996

                     25                     26                     27
                      A                      A                      A
 Frequencies --   1211.6387              1264.4807              1384.4448
 Red. masses --     12.3185                12.3301                12.5025
 Frc consts  --     10.6550                11.6156                14.1189
 IR Inten    --     15.4266               157.1350                20.9755

                     28                     29                     30
                      A                      A                      A
 Frequencies --   1447.9938              1462.5763              1493.6656
 Red. masses --     12.1542                12.3586                12.6084
 Frc consts  --     15.0145                15.5760                16.5736
 IR Inten    --    625.9938               401.9738              1739.0700

 - Thermochemistry -
 -------------------
 Temperature   298.150 Kelvin.  Pressure   1.00000 Atm.
 Atom     1 has atomic number 35 and mass  78.91834

 Molecular mass:   419.66317 amu.
 Principal axes and moments of inertia in atomic units:
                           1         2         3
     Eigenvalues --  4474.724758271.31052**********
           X            0.93189  -0.27934   0.23139
           Y            0.31117   0.94346  -0.11422
           Z           -0.18640   0.17844   0.96613
 This molecule is an asymmetric top.
 Rotational symmetry number  1.
 Warning -- assumption of classical behavior for rotation
           may cause significant error
 Rotational temperatures (Kelvin)      0.01936     0.01047     0.00680
 Rotational constants (GHZ):           0.40332     0.21819     0.14159
 Zero-point vibrational energy     108009.7 (Joules/Mol)
                                   25.81494 (Kcal/Mol)
 Warning -- explicit consideration of  18 degrees of freedom as
           vibrations may cause significant error
 Vibrational temperatures:     39.28    55.40   124.80   195.70   200.57
          (Kelvin)            209.88   211.17   280.25   306.28   356.45
                              375.51   399.05   456.14   562.83   606.36
                              704.75   812.75   836.76   996.50  1015.55
                             1093.69  1251.81  1282.42  1716.06  1743.28
                             1819.31  1991.91  2083.34  2104.32  2149.05

 Zero-point correction=                           0.041139 (Hartree/Particle)
 Thermal correction to Energy=                    0.053716
 Thermal correction to Enthalpy=                  0.054660
 Thermal correction to Gibbs Free Energy=        -0.002389
 Sum of electronic and zero-point Energies=         -10675.972807
 Sum of electronic and thermal Energies=            -10675.960230
 Sum of electronic and thermal Enthalpies=          -10675.959285
 Sum of electronic and thermal Free Energies=       -10676.016335

                     E (Thermal)             CV                S
                      KCal/Mol        Cal/Mol-Kelvin    Cal/Mol-Kelvin
 Total                   33.707             40.801            120.070
 Electronic               0.000              0.000              0.000
 Translational            0.889              2.981             43.993
 Rotational               0.889              2.981             34.511
 Vibrational             31.930             34.839             41.566
 Vibration     1          0.593              1.984              6.017
 Vibration     2          0.594              1.981              5.335
 Vibration     3          0.601              1.958              3.732
 Vibration     4          0.614              1.917              2.859
 Vibration     5          0.615              1.914              2.812
 Vibration     6          0.617              1.907              2.725
 Vibration     7          0.617              1.906              2.714
 Vibration     8          0.635              1.847              2.182
 Vibration     9          0.644              1.821              2.019
 Vibration    10          0.661              1.767              1.747
 Vibration    11          0.669              1.744              1.655
 Vibration    12          0.678              1.715              1.550
 Vibration    13          0.704              1.641              1.325
 Vibration    14          0.759              1.489              0.996
 Vibration    15          0.784              1.424              0.887
 Vibration    16          0.846              1.273              0.684
 Vibration    17          0.921              1.107              0.514
 Vibration    18          0.938              1.071              0.482

                           ! Non-Optimized Parameters !
 Normal termination of Gaussian 16 at Sun Feb 11 16:38:18 2024.
