 Q-Chem 5.4, Q-Chem, Inc., Pleasanton, CA (2021)
 Q-Chem 5.4.0 for Intel X86 EM64T Linux

User input:
--------------------------------------------------------------
$molecule
-1 2
C                 -1.5612120000      1.9039960000     -4.7410860000
C                 -1.5101650000      0.5445320000     -4.9704560000
C                 -1.2289750000     -0.3395530000     -3.9059060000
C                 -1.3374190000      2.4304840000     -3.4486600000
C                 -1.0560940000      1.5434180000     -2.3768470000
C                 -1.0058450000      0.1571620000     -2.6371350000
C                 -1.3960460000      3.8627950000     -3.2328540000
C                 -0.8081110000      2.0202290000     -1.0115700000
C                 -1.1772220000      4.3564310000     -1.8884170000
C                 -0.8964990000      3.4694440000     -0.7929980000
C                 -1.2619740000      5.7674060000     -1.6577800000
C                 -1.0834820000      6.2802550000     -0.3804960000
C                 -0.8184170000      5.4144580000      0.6861890000
C                 -0.7257960000      4.0538380000      0.4851050000
O                 -1.6426650000      4.6593210000     -4.2055380000
O                 -0.5341920000      1.2039010000     -0.0986370000
H                 -1.7726130000      2.6053260000     -5.5393460000
H                 -1.6842890000      0.1536170000     -5.9683600000
H                 -1.1868170000     -1.4093200000     -4.0868860000
H                 -0.7840770000     -0.4982520000     -1.8034230000
H                 -0.6844600000      5.7989810000      1.6909150000
O                 -1.5214610000      6.6156370000     -2.6707150000
O                 -0.5589980000      3.2613790000      1.6302350000
C                  0.6483120000      2.6748770000      1.8558340000
C                  0.5062240000      1.5865210000      2.8862550000
O                  1.6755950000      3.0083620000      1.3251770000
H                 -1.1547390000      7.3512960000     -0.2324430000
H                 -1.6191010000      6.0221610000     -3.4862650000
H                  0.0503900000      0.7319540000      2.3809320000
H                 -0.1558380000      1.8994500000      3.6961310000
H                  1.4868480000      1.3127940000      3.2733840000
$end
$rem
MAX_SCF_CYCLES=200
BASIS  =  6-311++G(d,p)
GUI  =  2
JOB_TYPE  =  SP
METHOD  =  B3LYP
SOLVENT_METHOD = PCM
$end
$pcm
theory = CPCM
$end
$solvent
dielectric 37.219
opticaldielectric 1.43
$end

--------------------------------------------------------------

             Standard Nuclear Orientation (Angstroms)
    I     Atom           X                Y                Z
 ----------------------------------------------------------------
    1      C      -1.5612120000     1.9039960000    -4.7410860000
    2      C      -1.5101650000     0.5445320000    -4.9704560000
    3      C      -1.2289750000    -0.3395530000    -3.9059060000
    4      C      -1.3374190000     2.4304840000    -3.4486600000
    5      C      -1.0560940000     1.5434180000    -2.3768470000
    6      C      -1.0058450000     0.1571620000    -2.6371350000
    7      C      -1.3960460000     3.8627950000    -3.2328540000
    8      C      -0.8081110000     2.0202290000    -1.0115700000
    9      C      -1.1772220000     4.3564310000    -1.8884170000
   10      C      -0.8964990000     3.4694440000    -0.7929980000
   11      C      -1.2619740000     5.7674060000    -1.6577800000
   12      C      -1.0834820000     6.2802550000    -0.3804960000
   13      C      -0.8184170000     5.4144580000     0.6861890000
   14      C      -0.7257960000     4.0538380000     0.4851050000
   15      O      -1.6426650000     4.6593210000    -4.2055380000
   16      O      -0.5341920000     1.2039010000    -0.0986370000
   17      H      -1.7726130000     2.6053260000    -5.5393460000
   18      H      -1.6842890000     0.1536170000    -5.9683600000
   19      H      -1.1868170000    -1.4093200000    -4.0868860000
   20      H      -0.7840770000    -0.4982520000    -1.8034230000
   21      H      -0.6844600000     5.7989810000     1.6909150000
   22      O      -1.5214610000     6.6156370000    -2.6707150000
   23      O      -0.5589980000     3.2613790000     1.6302350000
   24      C       0.6483120000     2.6748770000     1.8558340000
   25      C       0.5062240000     1.5865210000     2.8862550000
   26      O       1.6755950000     3.0083620000     1.3251770000
   27      H      -1.1547390000     7.3512960000    -0.2324430000
   28      H      -1.6191010000     6.0221610000    -3.4862650000
   29      H       0.0503900000     0.7319540000     2.3809320000
   30      H      -0.1558380000     1.8994500000     3.6961310000
   31      H       1.4868480000     1.3127940000     3.2733840000
 ----------------------------------------------------------------

    8    -992.3061215231      6.74e-06  Convergence criterion met
 Total energy in the final basis set =     -992.3061215231

                    Orbital Energies (a.u.)
 --------------------------------------------------------------

 Alpha MOs
 -- Occupied --
-19.1717 -19.1338 -19.1204 -19.0959 -19.0817 -10.3115 -10.2400 -10.2382
-10.2364 -10.2350 -10.1896 -10.1852 -10.1796 -10.1792 -10.1783 -10.1759
-10.1754 -10.1742 -10.1730 -10.1713 -10.1703  -1.1157  -1.0600  -1.0360
 -1.0119  -1.0100  -0.8688  -0.8551  -0.7951  -0.7715  -0.7555  -0.7484
 -0.7304  -0.6812  -0.6483  -0.6356  -0.6259  -0.5791  -0.5635  -0.5458
 -0.5289  -0.5129  -0.4981  -0.4880  -0.4824  -0.4710  -0.4620  -0.4603
 -0.4395  -0.4335  -0.4282  -0.4268  -0.4173  -0.4138  -0.4105  -0.4037
 -0.3996  -0.3891  -0.3807  -0.3777  -0.3644  -0.3580  -0.3551  -0.3419
 -0.3338  -0.3226  -0.2912  -0.2770  -0.2630  -0.2614  -0.2558  -0.2442
 -0.2327  -0.1499

 Beta MOs
 -- Occupied --
-19.1716 -19.1335 -19.1204 -19.0913 -19.0767 -10.3114 -10.2398 -10.2358
-10.2348 -10.2346 -10.1887 -10.1851 -10.1790 -10.1787 -10.1775 -10.1755
-10.1750 -10.1740 -10.1730 -10.1703 -10.1703  -1.1155  -1.0585  -1.0358
 -1.0040  -1.0013  -0.8661  -0.8538  -0.7913  -0.7701  -0.7535  -0.7467
 -0.7289  -0.6745  -0.6468  -0.6330  -0.6246  -0.5777  -0.5621  -0.5431
 -0.5277  -0.5115  -0.4976  -0.4871  -0.4805  -0.4698  -0.4603  -0.4596
 -0.4342  -0.4291  -0.4270  -0.4240  -0.4156  -0.4117  -0.4085  -0.3987
 -0.3954  -0.3839  -0.3781  -0.3663  -0.3623  -0.3565  -0.3475  -0.3407
 -0.3268  -0.3205  -0.2910  -0.2594  -0.2591  -0.2545  -0.2506  -0.2396
 -0.2239

          Ground-State Mulliken Net Atomic Charges

     Atom                 Charge (a.u.)    Spin (a.u.)
  --------------------------------------------------------
      1 C                    -0.083663       0.042330
      2 C                    -0.525846       0.021798
      3 C                    -0.426774       0.043513
      4 C                     0.111877      -0.008106
      5 C                    -0.065425       0.026573
      6 C                    -0.003664       0.027407
      7 C                    -0.309338       0.144865
      8 C                    -0.207494       0.080352
      9 C                     0.782375      -0.005803
     10 C                     0.588724       0.058389
     11 C                    -0.379332       0.030566
     12 C                    -0.198698       0.072265
     13 C                     0.089581       0.044089
     14 C                    -0.418021       0.060934
     15 O                    -0.495200       0.171363
     16 O                    -0.434014       0.199477
     17 H                     0.179564      -0.001378
     18 H                     0.200926      -0.002176
     19 H                     0.205819      -0.003345
     20 H                     0.166070      -0.001013
     21 H                     0.224334      -0.004039
     22 O                    -0.409637       0.010122
     23 O                    -0.016373      -0.000080
     24 C                     0.076194      -0.000040
     25 C                    -0.495018       0.002337
     26 O                    -0.309123      -0.000569
     27 H                     0.218082      -0.005895
     28 H                     0.374764      -0.003496
     29 H                     0.205118      -0.000623
     30 H                     0.183978       0.000406
     31 H                     0.170214      -0.000223
  --------------------------------------------------------
  Sum of atomic charges =    -1.000000

                    Cartesian Multipole Moments
 -----------------------------------------------------------------
    Charge (ESU x 10^10)
                -4.8032
    Dipole Moment (Debye)
         X       2.6038      Y     -17.9167      Z       9.1344
       Tot      20.2787
    Quadrupole Moments (Debye-Ang)
        XX    -139.8475     XY      14.2104     YY    -202.6139
        XZ     -13.6086     YZ      48.2507     ZZ    -146.3460

 Total job time:  208.04s(wall), 525.63s(cpu)
        *  Thank you very much for using Q-Chem.  Have a nice day.  *
