 Gaussian 16, Revision A.03,
 Gaussian 16:  ES64L-G16RevA.03 25-Dec-2016

 ----------------------------------------------------------------
 #P UB3LYP/6-311++G(d,p) SCRF=(PCM,Solvent=n,n-DiMethylFormamide)
 ----------------------------------------------------------------

 ------------------
 Radical PCM in DMF
 ------------------
 Symbolic Z-matrix:
 Charge = -1 Multiplicity = 2

                         Standard orientation:
 ---------------------------------------------------------------------
 Center     Atomic      Atomic             Coordinates (Angstroms)
 Number     Number       Type             X           Y           Z
 ---------------------------------------------------------------------
      1          6           0       -3.921761    0.323138   -0.527995
      2          6           0       -4.636457   -0.860062   -0.588729
      3          6           0       -4.001870   -2.080665   -0.283570
      4          6           0       -2.560322    0.331600   -0.164009
      5          6           0       -1.922282   -0.896773    0.142969
      6          6           0       -2.665791   -2.091910    0.075587
      7          6           0       -1.826915    1.605255   -0.108035
      8          6           0       -0.429158    1.536750    0.272493
      9          6           0        0.192814    0.331474    0.582037
     10          6           0       -0.504441   -0.936414    0.526934
     11          8           0       -2.403216    2.695590   -0.381593
     12          8           0        0.069677   -2.029767    0.795150
     13          1           0       -5.685392   -0.849448   -0.871148
     14          6           0        1.650591    0.261411    0.978284
     15          1           0       -4.561886   -3.010351   -0.330734
     16          6           0        0.314147    2.851934    0.326457
     17          6           0        2.586726   -0.066352   -0.201774
     18          6           0        4.058240   -0.185845    0.209314
     19          6           0        4.999965   -0.520698   -0.953150
     20          6           0        6.468942   -0.643558   -0.534316
     21          1           0       -4.383186    1.277009   -0.756839
     22          1           0       -2.150089   -3.014964    0.315069
     23          1           0        1.760742   -0.532462    1.723654
     24          1           0        1.970180    1.201078    1.440844
     25          1           0       -0.328130    3.638486   -0.070461
     26          1           0        1.243480    2.825084   -0.252981
     27          1           0        0.585453    3.124023    1.354976
     28          1           0        2.484711    0.705851   -0.975001
     29          1           0        2.252572   -1.007915   -0.649008
     30          1           0        4.152197   -0.959964    0.982548
     31          1           0        4.385766    0.753374    0.677477
     32          1           0        4.905534    0.250850   -1.727667
     33          1           0        4.673919   -1.458554   -1.418980
     34          1           0        6.833441    0.290852   -0.093902
     35          1           0        7.114252   -0.883401   -1.385835
     36          1           0        6.600169   -1.431851    0.214551
 ---------------------------------------------------------------------

 SCF Done:  E(UB3LYP) =  -771.358389052     A.U. after   18 cycles

 The electronic state is 2-A.
 Alpha  occ. eigenvalues --  -19.07022 -19.06947 -10.21473 -10.21370 -10.17051
 Alpha  occ. eigenvalues --  -10.17002 -10.16807 -10.16756 -10.16673 -10.16670
 Alpha  occ. eigenvalues --  -10.16502 -10.16145 -10.15967 -10.15654 -10.15566
 Alpha  occ. eigenvalues --  -10.15422 -10.15398 -10.15043  -0.99502  -0.99218
 Alpha  occ. eigenvalues --   -0.85416  -0.81701  -0.79286  -0.75815  -0.74646
 Alpha  occ. eigenvalues --   -0.74121  -0.70203  -0.66717  -0.65020  -0.61275
 Alpha  occ. eigenvalues --   -0.59220  -0.57602  -0.57027  -0.54695  -0.51130
 Alpha  occ. eigenvalues --   -0.48647  -0.47015  -0.46078  -0.44798  -0.43221
 Alpha  occ. eigenvalues --   -0.42362  -0.42304  -0.41862  -0.40910  -0.40744
 Alpha  occ. eigenvalues --   -0.40085  -0.39349  -0.38407  -0.37839  -0.37111
 Alpha  occ. eigenvalues --   -0.36885  -0.36092  -0.35212  -0.34622  -0.33990
 Alpha  occ. eigenvalues --   -0.33462  -0.32642  -0.32330  -0.31660  -0.31491
 Alpha  occ. eigenvalues --   -0.26385  -0.25364  -0.24125  -0.23658  -0.22930
 Alpha  occ. eigenvalues --   -0.14637
 Alpha virt. eigenvalues --   -0.02987  -0.01133  -0.00407   0.00161   0.00719
 Alpha virt. eigenvalues --    0.01328   0.01489   0.02082   0.02859   0.03382
 Alpha virt. eigenvalues --    0.03433   0.04187   0.04583   0.05049   0.05185

  Beta  occ. eigenvalues --  -19.06406 -19.06344 -10.21298 -10.21197 -10.17016
  Beta  occ. eigenvalues --  -10.16967 -10.16754 -10.16710 -10.16665 -10.16657
  Beta  occ. eigenvalues --  -10.16369 -10.16012 -10.15967 -10.15652 -10.15553
  Beta  occ. eigenvalues --  -10.15432 -10.15398 -10.15055  -0.98433  -0.98132
  Beta  occ. eigenvalues --   -0.85211  -0.81387  -0.79163  -0.75650  -0.74467
  Beta  occ. eigenvalues --   -0.73976  -0.69934  -0.66574  -0.64377  -0.61167
  Beta  occ. eigenvalues --   -0.59091  -0.57435  -0.56923  -0.54430  -0.50932
  Beta  occ. eigenvalues --   -0.48419  -0.46962  -0.45836  -0.44708  -0.43018
  Beta  occ. eigenvalues --   -0.42251  -0.41859  -0.41696  -0.40673  -0.40186
  Beta  occ. eigenvalues --   -0.39843  -0.38651  -0.38285  -0.37667  -0.37030
  Beta  occ. eigenvalues --   -0.36003  -0.35450  -0.34569  -0.33850  -0.33362
  Beta  occ. eigenvalues --   -0.33299  -0.32559  -0.32236  -0.31613  -0.31277
  Beta  occ. eigenvalues --   -0.24711  -0.24235  -0.23559  -0.22668  -0.22357
  Beta virt. eigenvalues --   -0.08067  -0.02281  -0.00427  -0.00022   0.00175
  Beta virt. eigenvalues --    0.00727   0.01340   0.01500   0.02089   0.02879
  Beta virt. eigenvalues --    0.03398   0.03455   0.04225   0.04609   0.05128

 Mulliken charges and spin densities:
               1          2
     1  C    0.188792   0.032859
     2  C   -0.452388   0.026329
     3  C   -0.435297   0.027560
     4  C    0.248999   0.013138
     5  C   -0.167348   0.019344
     6  C    0.086948   0.034287
     7  C   -0.815986   0.098277
     8  C    0.957238   0.092304
     9  C    1.082862   0.083386
    10  C   -1.019009   0.102709
    11  O   -0.481393   0.226002
    12  O   -0.462610   0.224985
    13  H    0.176832  -0.002303
    14  C   -0.377720   0.012674
    15  H    0.175908  -0.002217
    16  C   -0.520132  -0.002460
    17  C   -0.576909   0.002053
    18  C   -0.175747   0.005017
    19  C   -0.178024  -0.000410
    20  C   -0.661514   0.000127
    21  H    0.165126  -0.002209
    22  H    0.165661  -0.002425
    23  H    0.200890   0.003184
    24  H    0.170667   0.000551
    25  H    0.179622  -0.001617
    26  H    0.158437   0.004356
    27  H    0.173111   0.006096
    28  H    0.120849  -0.000642
    29  H    0.170714  -0.000974
    30  H    0.110641   0.000238
    31  H    0.105954  -0.000280
    32  H    0.131225   0.000122
    33  H    0.128735  -0.000086
    34  H    0.140436  -0.000005
    35  H    0.143707   0.000039
    36  H    0.140721  -0.000009
 Sum of Mulliken charges =  -1.00000   1.00000

 Dipole moment (field-independent basis, Debye):
    X=              6.4377    Y=             -1.1660    Z=             -0.8704  Tot=              6.6000
 Quadrupole moment (field-independent basis, Debye-Ang):
   XX=           -128.7197   YY=           -139.7017   ZZ=           -117.4248
   XY=             17.7533   XZ=             -1.6189   YZ=              6.6926

 Normal termination of Gaussian 16 at Sun Jan 21 08:26:00 2024.
