 Gaussian 16, Revision A.03,
 Gaussian 16:  ES64L-G16RevA.03 25-Dec-2016

 ----------------------------------------------------------------------
 #P UB3LYP/6-311++G(d,p) nosym opt freq SCRF=(PCM,Solvent=n,n-DiMethylF
 ormamide)
 ----------------------------------------------------------------------

 -------
 Radical
 -------
 Symbolic Z-matrix:
 Charge = -1 Multiplicity = 2

 SCF Done:  E(UB3LYP) =  -718.878363067     A.U. after   18 cycles
 SCF Done:  E(UB3LYP) =  -718.878548635     A.U. after   13 cycles
 SCF Done:  E(UB3LYP) =  -718.878582434     A.U. after   13 cycles
 SCF Done:  E(UB3LYP) =  -718.878581223     A.U. after   12 cycles
 SCF Done:  E(UB3LYP) =  -718.878587823     A.U. after   11 cycles
 SCF Done:  E(UB3LYP) =  -718.878588864     A.U. after   11 cycles
 Optimization completed.
    -- Stationary point found.
 Normal termination of Gaussian 16 at Sat Feb 10 11:05:49 2024.

 ----------------------------------------------------------------------
 #P Geom=AllCheck Guess=TCheck SCRF=Check GenChk UB3LYP/6-311++G(d,p) F
 req
 ----------------------------------------------------------------------

 Structure from the checkpoint file:  "075-rad.chk"
 -------
 Radical
 -------
 Charge = -1 Multiplicity = 2

                          Input orientation:
 ---------------------------------------------------------------------
 Center     Atomic      Atomic             Coordinates (Angstroms)
 Number     Number       Type             X           Y           Z
 ---------------------------------------------------------------------
      1          6           0        1.566754    1.090679   -1.563715
      2          6           0        0.156120    0.889400   -1.335847
      3          6           0       -0.320868    0.173436   -0.262889
      4          6           0        0.571982   -0.430024    0.717079
      5          6           0        1.985161   -0.218148    0.474460
      6          6           0        2.455407    0.492835   -0.590647
      7          8           0        1.994428    1.752040   -2.558771
      8          8           0        0.159457   -1.091261    1.710283
      9          6           0       -1.797208    0.000249   -0.079100
     10          9           0       -2.523258    0.604551   -1.057165
     11          9           0       -2.188490   -1.304274   -0.085541
     12          9           0       -2.255205    0.522357    1.092608
     13          1           0       -0.525307    1.330633   -2.053238
     14          1           0        2.667121   -0.660045    1.194121
     15          1           0        3.522045    0.630894   -0.739039
 ---------------------------------------------------------------------

 SCF Done:  E(UB3LYP) =  -718.878588864     A.U. after    1 cycles

 Alpha  occ. eigenvalues --  -24.71331 -24.70888 -24.70887 -19.08733 -19.08728
 Alpha  occ. eigenvalues --  -10.42788 -10.23708 -10.22951 -10.19392 -10.18330
 Alpha  occ. eigenvalues --  -10.17464 -10.17387  -1.31446  -1.22754  -1.22435
 Alpha  occ. eigenvalues --   -1.01067  -1.00496  -0.84478  -0.78261  -0.71945
 Alpha  occ. eigenvalues --   -0.68560  -0.62956  -0.60790  -0.59429  -0.58368
 Alpha  occ. eigenvalues --   -0.53531  -0.48581  -0.47596  -0.47549  -0.47185
 Alpha  occ. eigenvalues --   -0.44991  -0.43872  -0.42843  -0.41537  -0.41418
 Alpha  occ. eigenvalues --   -0.41259  -0.40888  -0.38420  -0.38276  -0.37226
 Alpha  occ. eigenvalues --   -0.29621  -0.27606  -0.25301  -0.24913  -0.17630
 Alpha virt. eigenvalues --   -0.03087   0.00281   0.01178   0.01583   0.02160
 Alpha virt. eigenvalues --    0.04427   0.04572   0.05062   0.05993   0.07466
 Alpha virt. eigenvalues --    0.07677   0.08223   0.08366   0.10429   0.10988

  Beta  occ. eigenvalues --  -24.71334 -24.70877 -24.70876 -19.08054 -19.07952
  Beta  occ. eigenvalues --  -10.42793 -10.23603 -10.22838 -10.19283 -10.18132
  Beta  occ. eigenvalues --  -10.17390 -10.17294  -1.31433  -1.22749  -1.22409
  Beta  occ. eigenvalues --   -0.99899  -0.99124  -0.83871  -0.77999  -0.71482
  Beta  occ. eigenvalues --   -0.67810  -0.62667  -0.60608  -0.59386  -0.58171
  Beta  occ. eigenvalues --   -0.53201  -0.48384  -0.47513  -0.47181  -0.47126
  Beta  occ. eigenvalues --   -0.44761  -0.43671  -0.42704  -0.41431  -0.40977
  Beta  occ. eigenvalues --   -0.40570  -0.39564  -0.37979  -0.37000  -0.35322
  Beta  occ. eigenvalues --   -0.27018  -0.25783  -0.24625  -0.24239
  Beta virt. eigenvalues --   -0.10236  -0.01582   0.00313   0.01601   0.02197
  Beta virt. eigenvalues --    0.02936   0.04461   0.04616   0.05652   0.06068
  Beta virt. eigenvalues --    0.07589   0.07715   0.08236   0.08541   0.10472

 Mulliken charges and spin densities:
               1          2
     1  C   -0.530615   0.101193
     2  C   -0.373927   0.118625
     3  C    0.341347   0.076953
     4  C   -0.425967   0.064065
     5  C   -0.011684   0.076718
     6  C    0.202610   0.055501
     7  O   -0.487132   0.274061
     8  O   -0.472710   0.243541
     9  C    0.586565   0.008421
    10  F   -0.185360  -0.001372
    11  F   -0.114484   0.002122
    12  F   -0.114477   0.002137
    13  H    0.189468  -0.011043
    14  H    0.197390  -0.006628
    15  H    0.198975  -0.004294
 Sum of Mulliken charges =  -1.00000   1.00000

 Dipole moment (field-independent basis, Debye):
    X=             -1.1728    Y=             -1.1521    Z=              1.5959  Tot=              2.2912
 Quadrupole moment (field-independent basis, Debye-Ang):
   XX=            -82.0848   YY=            -81.8442   ZZ=            -94.6173
   XY=             -9.3081   XZ=             13.6974   YZ=             15.6950

  Exact polarizability: 149.810  19.103 118.751 -25.109 -64.147 173.633
 Approx polarizability: 158.630  23.232 137.102 -31.528 -76.359 202.241

                      1                      2                      3
                      A                      A                      A
 Frequencies --     52.6648                99.4560               144.7522
 Red. masses --     15.0311                 6.2372                11.0581
 Frc consts  --      0.0246                 0.0363                 0.1365
 IR Inten    --      1.1882                 7.4621                13.5858

                      4                      5                      6
                      A                      A                      A
 Frequencies --    171.0110               281.8306               287.0362
 Red. masses --     13.4862                 7.7304                14.4560
 Frc consts  --      0.2324                 0.3618                 0.7017
 IR Inten    --      0.3598                 0.8011                 0.9371

                      7                      8                      9
                      A                      A                      A
 Frequencies --    339.6142               343.5745               420.4376
 Red. masses --     16.9665                 4.8128                 9.3111
 Frc consts  --      1.1530                 0.3347                 0.9697
 IR Inten    --      4.3241                 0.2447                22.2944

                     10                     11                     12
                      A                      A                      A
 Frequencies --    452.4109               481.5046               507.7223
 Red. masses --      4.8780                11.4903                 9.6351
 Frc consts  --      0.5883                 1.5696                 1.4634
 IR Inten    --      0.5878                 0.6553                 2.7529

                     13                     14                     15
                      A                      A                      A
 Frequencies --    540.7240               576.1630               643.0256
 Red. masses --      4.5091                 7.3802                 4.3012
 Frc consts  --      0.7768                 1.4435                 1.0478
 IR Inten    --      6.9179                 7.3693                 7.0186

                     16                     17                     18
                      A                      A                      A
 Frequencies --    660.0721               729.2183               752.7500
 Red. masses --      7.6581                12.7939                 3.3759
 Frc consts  --      1.9659                 4.0084                 1.1270
 IR Inten    --     17.0445                13.5754                 0.0585

                     19                     20                     21
                      A                      A                      A
 Frequencies --    820.1410               832.1754               890.0426
 Red. masses --      5.9548                 1.9401                 5.6307
 Frc consts  --      2.3599                 0.7916                 2.6281
 IR Inten    --    124.2466                22.8956                55.0849

                     22                     23                     24
                      A                      A                      A
 Frequencies --    892.1109               972.1771              1004.8621
 Red. masses --      1.6251                 1.2790                 4.1499
 Frc consts  --      0.7620                 0.7122                 2.4689
 IR Inten    --     94.5486                 1.7365               139.3184

                     25                     26                     27
                      A                      A                      A
 Frequencies --   1041.5275              1068.6693              1116.6421
 Red. masses --     11.3971                 6.1549                 1.7913
 Frc consts  --      7.2843                 4.1415                 1.3159
 IR Inten    --    448.1612               331.2527                30.1438

                     28                     29                     30
                      A                      A                      A
 Frequencies --   1200.0053              1253.9122              1267.6136
 Red. masses --      2.3364                 1.6392                 4.3651
 Frc consts  --      1.9822                 1.5185                 4.1325
 IR Inten    --    227.3945               196.5452               117.6339

                     31                     32                     33
                      A                      A                      A
 Frequencies --   1364.2359              1438.8031              1484.0031
 Red. masses --      2.3014                 5.7563                10.5157
 Frc consts  --      2.5236                 7.0210                13.6445
 IR Inten    --     47.7523               153.4044                47.3631

                     34                     35                     36
                      A                      A                      A
 Frequencies --   1511.4011              1522.6769              1650.9799
 Red. masses --      4.6343                 6.8361                 7.0356
 Frc consts  --      6.2372                 9.3384                11.2989
 IR Inten    --    518.2180               850.0659                23.0497

                     37                     38                     39
                      A                      A                      A
 Frequencies --   3152.9557              3171.0997              3188.9911
 Red. masses --      1.0864                 1.0957                 1.0903
 Frc consts  --      6.3635                 6.4919                 6.5331
 IR Inten    --     23.5135                23.6531                 6.7349

 - Thermochemistry -
 -------------------
 Temperature   298.150 Kelvin.  Pressure   1.00000 Atm.
 Atom     1 has atomic number  6 and mass  12.00000

 Molecular mass:   176.00851 amu.
 Principal axes and moments of inertia in atomic units:
                           1         2         3
     Eigenvalues --  1163.837102463.192733306.18786
           X            0.90411   0.42617  -0.03120
           Y            0.25604  -0.48182   0.83803
           Z           -0.34211   0.76566   0.54473
 This molecule is an asymmetric top.
 Rotational symmetry number  1.
 Warning -- assumption of classical behavior for rotation
           may cause significant error
 Rotational temperatures (Kelvin)      0.07442     0.03516     0.02620
 Rotational constants (GHZ):           1.55068     0.73268     0.54587
 Zero-point vibrational energy     229258.3 (Joules/Mol)
                                   54.79405 (Kcal/Mol)
 Warning -- explicit consideration of  14 degrees of freedom as
           vibrations may cause significant error
 Vibrational temperatures:     75.77   143.10   208.27   246.05   405.49
          (Kelvin)            412.98   488.63   494.33   604.92   650.92
                              692.78   730.50   777.98   828.97   925.17
                              949.70  1049.18  1083.04  1180.00  1197.31
                             1280.57  1283.55  1398.75  1445.77  1498.53
                             1537.58  1606.60  1726.54  1804.10  1823.81
                             1962.83  2070.12  2135.15  2174.57  2190.79
                             2375.39  4536.40  4562.51  4588.25

 Zero-point correction=                           0.087320 (Hartree/Particle)
 Thermal correction to Energy=                    0.096928
 Thermal correction to Enthalpy=                  0.097872
 Thermal correction to Gibbs Free Energy=         0.050944
 Sum of electronic and zero-point Energies=           -718.791269
 Sum of electronic and thermal Energies=              -718.781661
 Sum of electronic and thermal Enthalpies=            -718.780717
 Sum of electronic and thermal Free Energies=         -718.827645

                     E (Thermal)             CV                S
                      KCal/Mol        Cal/Mol-Kelvin    Cal/Mol-Kelvin
 Total                   60.823             36.116             98.768
 Electronic               0.000              0.000              1.377
 Translational            0.889              2.981             41.403
 Rotational               0.889              2.981             30.628
 Vibrational             59.046             30.155             25.359
 Vibration     1          0.596              1.977              4.715
 Vibration     2          0.604              1.949              3.465
 Vibration     3          0.616              1.908              2.740
 Vibration     4          0.626              1.878              2.424
 Vibration     5          0.681              1.707              1.523
 Vibration     6          0.684              1.698              1.491
 Vibration     7          0.720              1.596              1.214
 Vibration     8          0.722              1.588              1.196
 Vibration     9          0.783              1.426              0.890
 Vibration    10          0.811              1.356              0.789
 Vibration    11          0.838              1.291              0.706
 Vibration    12          0.863              1.233              0.639
 Vibration    13          0.896              1.160              0.564
 Vibration    14          0.933              1.083              0.493

 Optimization completed.
    -- Stationary point found.
 Normal termination of Gaussian 16 at Sat Feb 10 11:17:13 2024.
