 Gaussian 16, Revision A.03,
 Gaussian 16:  ES64L-G16RevA.03 25-Dec-2016

 ----------------------------------------------------------------
 #P UB3LYP/6-311++G(d,p) SCRF=(PCM,Solvent=n,n-DiMethylFormamide)
 ----------------------------------------------------------------

 ------------------
 Radical PCM in DMF
 ------------------
 Symbolic Z-matrix:
 Charge = -1 Multiplicity = 2

                         Standard orientation:
 ---------------------------------------------------------------------
 Center     Atomic      Atomic             Coordinates (Angstroms)
 Number     Number       Type             X           Y           Z
 ---------------------------------------------------------------------
      1          6           0       -2.509883   -1.643297    0.111406
      2          6           0       -3.828019   -1.226497    0.131759
      3          6           0       -4.135742    0.147379    0.056627
      4          6           0       -1.451817   -0.713846    0.015841
      5          6           0       -1.764846    0.671345   -0.060551
      6          6           0       -3.112940    1.074807   -0.037708
      7          6           0       -0.068522   -1.206438   -0.000795
      8          6           0        0.951354   -0.174348   -0.103123
      9          6           0        0.645952    1.171292   -0.174055
     10          6           0       -0.697319    1.680811   -0.161034
     11          8           0        0.209920   -2.431585    0.066330
     12          8           0       -0.949140    2.913546   -0.228230
     13          1           0       -2.247200   -2.693573    0.168141
     14          1           0       -3.314629    2.138630   -0.097274
     15          8           0        2.229147   -0.678297   -0.137375
     16          1           0       -4.627964   -1.957934    0.205859
     17          1           0       -5.171312    0.474742    0.072602
     18          1           0        1.418936    1.926890   -0.242552
     19          6           0        3.355043    0.196913   -0.157994
     20          6           0        4.511953   -0.629828   -0.711462
     21          6           0        3.651930    0.742533    1.241313
     22          1           0        3.158871    1.030524   -0.843763
     23          1           0        5.424175   -0.027286   -0.765940
     24          1           0        4.271583   -0.997044   -1.711592
     25          1           0        4.699023   -1.493953   -0.067938
     26          1           0        4.507731    1.425486    1.214009
     27          1           0        3.885594   -0.083583    1.919489
     28          1           0        2.792910    1.282836    1.641806
 ---------------------------------------------------------------------

 SCF Done:  E(UB3LYP) =  -728.624436096     A.U. after   20 cycles

 The electronic state is 2-A.
 Alpha  occ. eigenvalues --  -19.14768 -19.07598 -19.07240 -10.22833 -10.22782
 Alpha  occ. eigenvalues --  -10.22244 -10.22048 -10.17254 -10.17203 -10.17113
 Alpha  occ. eigenvalues --  -10.17050 -10.16894 -10.16846 -10.15950 -10.15911
 Alpha  occ. eigenvalues --  -10.15583  -1.06418  -0.99831  -0.99627  -0.85658
 Alpha  occ. eigenvalues --   -0.80926  -0.78019  -0.74914  -0.73353  -0.69209
 Alpha  occ. eigenvalues --   -0.67770  -0.62694  -0.61757  -0.57720  -0.56129
 Alpha  occ. eigenvalues --   -0.52404  -0.51237  -0.49154  -0.46242  -0.46010
 Alpha  occ. eigenvalues --   -0.44458  -0.43620  -0.42322  -0.41841  -0.41259
 Alpha  occ. eigenvalues --   -0.40545  -0.39777  -0.39196  -0.38819  -0.38096
 Alpha  occ. eigenvalues --   -0.37185  -0.36405  -0.35151  -0.35063  -0.33843
 Alpha  occ. eigenvalues --   -0.32499  -0.31862  -0.26452  -0.25590  -0.24472
 Alpha  occ. eigenvalues --   -0.23785  -0.23437  -0.14782
 Alpha virt. eigenvalues --   -0.03211  -0.01029  -0.00364   0.00357   0.01332
 Alpha virt. eigenvalues --    0.01926   0.02167   0.02379   0.04016   0.04174
 Alpha virt. eigenvalues --    0.04471   0.04722   0.05118   0.05444   0.05984

  Beta  occ. eigenvalues --  -19.14682 -19.06930 -19.06708 -10.22837 -10.22616
  Beta  occ. eigenvalues --  -10.22105 -10.21827 -10.17220 -10.17187 -10.17051
  Beta  occ. eigenvalues --  -10.16969 -10.16902 -10.16817 -10.15950 -10.15906
  Beta  occ. eigenvalues --  -10.15528  -1.06204  -0.98799  -0.98561  -0.85440
  Beta  occ. eigenvalues --   -0.80587  -0.77829  -0.74715  -0.73180  -0.69193
  Beta  occ. eigenvalues --   -0.66951  -0.62464  -0.61589  -0.57516  -0.55896
  Beta  occ. eigenvalues --   -0.52251  -0.51047  -0.48898  -0.45991  -0.45844
  Beta  occ. eigenvalues --   -0.44258  -0.43430  -0.42251  -0.41145  -0.40577
  Beta  occ. eigenvalues --   -0.39972  -0.39556  -0.39098  -0.38718  -0.37408
  Beta  occ. eigenvalues --   -0.36494  -0.35143  -0.34904  -0.34495  -0.33738
  Beta  occ. eigenvalues --   -0.32164  -0.30943  -0.24923  -0.24510  -0.23897
  Beta  occ. eigenvalues --   -0.23243  -0.22526
  Beta virt. eigenvalues --   -0.08219  -0.02474  -0.00379   0.00096   0.00384
  Beta virt. eigenvalues --    0.01350   0.01963   0.02186   0.02390   0.04025
  Beta virt. eigenvalues --    0.04197   0.04496   0.05024   0.05157   0.05850

 Mulliken charges and spin densities:
               1          2
     1  C    0.170468   0.064733
     2  C   -0.442154   0.008461
     3  C   -0.367935   0.053380
     4  C    0.144365   0.000146
     5  C    0.498605   0.060565
     6  C    0.120995   0.007089
     7  C   -0.424891   0.131232
     8  C   -0.415710   0.133406
     9  C    0.013109   0.012776
    10  C   -0.285795   0.078421
    11  O   -0.492884   0.252671
    12  O   -0.493031   0.190480
    13  H    0.160152  -0.003554
    14  H    0.157378  -0.000794
    15  O   -0.057548   0.017909
    16  H    0.181270  -0.001333
    17  H    0.181571  -0.003787
    18  H    0.222240  -0.006162
    19  C   -0.007848   0.002131
    20  C   -0.511264   0.000304
    21  C   -0.399081   0.001576
    22  H    0.131519   0.000166
    23  H    0.160395  -0.000056
    24  H    0.154779   0.000136
    25  H    0.147854   0.000009
    26  H    0.149231   0.001146
    27  H    0.165395   0.000132
    28  H    0.138817  -0.001186
 Sum of Mulliken charges =  -1.00000   1.00000

 Dipole moment (field-independent basis, Debye):
    X=              3.4262    Y=              0.1023    Z=              0.4105  Tot=              3.4522
 Quadrupole moment (field-independent basis, Debye-Ang):
   XX=            -90.1408   YY=           -135.3078   ZZ=           -100.2511
   XY=             13.3565   XZ=             -1.0489   YZ=              1.6773

 Normal termination of Gaussian 16 at Sun Jan 21 08:31:56 2024.
