 Gaussian 16, Revision A.03,
 Gaussian 16:  ES64L-G16RevA.03 25-Dec-2016

 --------------------------------------
 #P UB3LYP/6-311++G(d,p) nosym opt freq
 --------------------------------------

 -------
 Radical
 -------
 Symbolic Z-matrix:
 Charge = -1 Multiplicity = 2

 SCF Done:  E(UB3LYP) =  -728.540860330     A.U. after   24 cycles
 Optimization completed.
    -- Stationary point found.
 Normal termination of Gaussian 16 at Mon Jan  8 01:28:19 2024.

 ----------------------------------------------------------------------
 #P Geom=AllCheck Guess=TCheck SCRF=Check GenChk UB3LYP/6-311++G(d,p) F
 req
 ----------------------------------------------------------------------

 Structure from the checkpoint file:  "267-rad.chk"
 -------
 Radical
 -------
 Charge = -1 Multiplicity = 2

                          Input orientation:
 ---------------------------------------------------------------------
 Center     Atomic      Atomic             Coordinates (Angstroms)
 Number     Number       Type             X           Y           Z
 ---------------------------------------------------------------------
      1          6           0       -1.237997    2.733409   -0.518129
      2          6           0       -2.515182    2.207374   -0.457276
      3          6           0       -2.716212    0.892919    0.011411
      4          6           0       -0.116631    1.975766   -0.116842
      5          6           0       -0.322112    0.650412    0.356226
      6          6           0       -1.630026    0.133540    0.409769
      7          6           0        1.219564    2.578950   -0.201563
      8          6           0        2.310718    1.722020    0.235338
      9          6           0        2.109993    0.433429    0.691726
     10          6           0        0.814761   -0.181064    0.786225
     11          8           0        1.402851    3.751450   -0.619501
     12          8           0        0.658565   -1.358272    1.207351
     13          1           0       -1.057053    3.741034   -0.874854
     14          1           0       -1.749362   -0.880442    0.775209
     15          8           0        3.539988    2.331285    0.160608
     16          1           0       -3.365168    2.806991   -0.770944
     17          1           0       -3.719618    0.479737    0.059207
     18          1           0        2.935408   -0.193345    1.006320
     19          6           0        4.728938    1.609716    0.476509
     20          6           0        5.781569    2.666605    0.797790
     21          6           0        5.150359    0.709319   -0.687790
     22          1           0        4.559820    0.998340    1.371656
     23          1           0        6.734151    2.194443    1.058219
     24          1           0        5.454146    3.285852    1.635771
     25          1           0        5.936706    3.318516   -0.066372
     26          1           0        6.054815    0.147402   -0.431324
     27          1           0        5.356934    1.319290   -1.572239
     28          1           0        4.362282   -0.002363   -0.938152
 ---------------------------------------------------------------------

 SCF Done:  E(UB3LYP) =  -728.540860330     A.U. after    1 cycles

 Alpha  occ. eigenvalues --  -19.02707 -18.93663 -18.93419 -10.12926 -10.09825
 Alpha  occ. eigenvalues --  -10.08732 -10.08459 -10.07106 -10.06713 -10.05154
 Alpha  occ. eigenvalues --  -10.05049 -10.04418 -10.04356 -10.04286 -10.04095
 Alpha  occ. eigenvalues --  -10.02775  -0.94414  -0.85950  -0.85725  -0.72953
 Alpha  occ. eigenvalues --   -0.69771  -0.66420  -0.62260  -0.61061  -0.59915
 Alpha  occ. eigenvalues --   -0.55199  -0.51019  -0.49289  -0.46446  -0.43605
 Alpha  occ. eigenvalues --   -0.40910  -0.38898  -0.36900  -0.35711  -0.34064
 Alpha  occ. eigenvalues --   -0.33189  -0.31944  -0.30166  -0.29885  -0.29741
 Alpha  occ. eigenvalues --   -0.28943  -0.28342  -0.27114  -0.26930  -0.26447
 Alpha  occ. eigenvalues --   -0.25837  -0.24089  -0.22945  -0.22856  -0.21674
 Alpha  occ. eigenvalues --   -0.20397  -0.19970  -0.13336  -0.12815  -0.10831
 Alpha  occ. eigenvalues --   -0.10432  -0.09889  -0.01276
 Alpha virt. eigenvalues --    0.07110   0.08636   0.09204   0.09484   0.10053
 Alpha virt. eigenvalues --    0.10592   0.11033   0.11490   0.12499   0.12670
 Alpha virt. eigenvalues --    0.13261   0.13485   0.14281   0.15687   0.15891

  Beta  occ. eigenvalues --  -19.02637 -18.92933 -18.92838 -10.12930 -10.09650
  Beta  occ. eigenvalues --  -10.08627 -10.08298 -10.07106 -10.06708 -10.05130
  Beta  occ. eigenvalues --  -10.04983 -10.04445 -10.04342 -10.04232 -10.03996
  Beta  occ. eigenvalues --  -10.02710  -0.94243  -0.84869  -0.84551  -0.72741
  Beta  occ. eigenvalues --   -0.69630  -0.66038  -0.62087  -0.60897  -0.59873
  Beta  occ. eigenvalues --   -0.54518  -0.50725  -0.49136  -0.46237  -0.43416
  Beta  occ. eigenvalues --   -0.40726  -0.38748  -0.36695  -0.35589  -0.33898
  Beta  occ. eigenvalues --   -0.33028  -0.31835  -0.30147  -0.29822  -0.29551
  Beta  occ. eigenvalues --   -0.28570  -0.27747  -0.26884  -0.26430  -0.25945
  Beta  occ. eigenvalues --   -0.25521  -0.22943  -0.22801  -0.21581  -0.21285
  Beta  occ. eigenvalues --   -0.20109  -0.18612  -0.12182  -0.11231  -0.09812
  Beta  occ. eigenvalues --   -0.09638  -0.09275
  Beta virt. eigenvalues --    0.05350   0.07112   0.08629   0.09255   0.09859
  Beta virt. eigenvalues --    0.10254   0.10586   0.11042   0.12470   0.12599
  Beta virt. eigenvalues --    0.12729   0.13266   0.13495   0.14287   0.15706

 Mulliken charges and spin densities:
               1          2
     1  C    0.136948   0.051307
     2  C   -0.386679   0.015149
     3  C   -0.294267   0.053860
     4  C    0.250550   0.018480
     5  C    0.606012   0.070855
     6  C    0.083834   0.000427
     7  C   -0.589804   0.084404
     8  C   -0.343921   0.139298
     9  C    0.087552   0.026534
    10  C   -0.507873   0.050588
    11  O   -0.388679   0.277962
    12  O   -0.397455   0.210991
    13  H    0.151217  -0.003147
    14  H    0.147954  -0.000739
    15  O    0.001638   0.012247
    16  H    0.120638  -0.001812
    17  H    0.121162  -0.004068
    18  H    0.188708  -0.007066
    19  C    0.005583   0.004224
    20  C   -0.528337   0.000551
    21  C   -0.387187  -0.001396
    22  H    0.103787  -0.000672
    23  H    0.124856  -0.000134
    24  H    0.149952   0.000197
    25  H    0.139348   0.000086
    26  H    0.107079   0.002159
    27  H    0.151946   0.000634
    28  H    0.145435  -0.000919
 Sum of Mulliken charges =  -1.00000   1.00000

 Dipole moment (field-independent basis, Debye):
    X=             -3.1064    Y=             -6.5458    Z=             -0.9681  Tot=              7.3099
 Quadrupole moment (field-independent basis, Debye-Ang):
   XX=           -105.9523   YY=           -139.2678   ZZ=           -104.4425
   XY=            -10.9244   XZ=              1.6428   YZ=              8.7757

  Exact polarizability: 268.736   7.465 194.775  10.464 -29.893 119.059
 Approx polarizability: 360.434  18.761 355.318  12.309 -70.329 189.422

                      1                      2                      3
                      A                      A                      A
 Frequencies --     31.0405                66.4574                90.0211
 Red. masses --      4.1171                 3.2482                 5.6062
 Frc consts  --      0.0023                 0.0085                 0.0268
 IR Inten    --      3.6762                 0.5548                 4.4990

                      4                      5                      6
                      A                      A                      A
 Frequencies --    122.4437               135.1047               177.5653
 Red. masses --      3.5804                 4.4964                 7.6931
 Frc consts  --      0.0316                 0.0484                 0.1429
 IR Inten    --      3.2912                 0.0942                 2.6635

                      7                      8                      9
                      A                      A                      A
 Frequencies --    204.6813               233.9210               236.6095
 Red. masses --      1.0307                 4.5484                 1.2462
 Frc consts  --      0.0254                 0.1466                 0.0411
 IR Inten    --      0.1462                 0.6728                 0.7305

                     10                     11                     12
                      A                      A                      A
 Frequencies --    252.9334               270.9400               339.7871
 Red. masses --      3.2657                 5.1931                 3.8175
 Frc consts  --      0.1231                 0.2246                 0.2597
 IR Inten    --      1.6271                 1.1351                 1.0121

                     13                     14                     15
                      A                      A                      A
 Frequencies --    367.3961               392.8296               403.2166
 Red. masses --     10.2655                 3.7495                 3.3649
 Frc consts  --      0.8164                 0.3409                 0.3223
 IR Inten    --      7.3400                 0.0210                 0.1439

                     16                     17                     18
                      A                      A                      A
 Frequencies --    441.8874               460.6012               471.7437
 Red. masses --      3.6461                 3.6204                 7.4158
 Frc consts  --      0.4195                 0.4525                 0.9723
 IR Inten    --      1.1872                 2.3580                 2.7981

                     19                     20                     21
                      A                      A                      A
 Frequencies --    488.8890               512.8938               571.7172
 Red. masses --      5.5337                 3.9095                 5.9166
 Frc consts  --      0.7793                 0.6059                 1.1394
 IR Inten    --      2.0838                 4.4263                 0.2461

                     22                     23                     24
                      A                      A                      A
 Frequencies --    655.7301               658.1376               698.9892
 Red. masses --      3.2762                 5.8862                 5.8481
 Frc consts  --      0.8300                 1.5022                 1.6835
 IR Inten    --      1.5187                 9.3839                 3.5257

                     25                     26                     27
                      A                      A                      A
 Frequencies --    712.4702               723.8107               767.3201
 Red. masses --      2.9447                 6.2185                 1.8817
 Frc consts  --      0.8807                 1.9195                 0.6528
 IR Inten    --     25.3392                 6.5703                41.6429

                     28                     29                     30
                      A                      A                      A
 Frequencies --    779.6669               822.7643               830.6549
 Red. masses --      3.4839                 3.2669                 1.7744
 Frc consts  --      1.2478                 1.3030                 0.7213
 IR Inten    --     10.8548                 2.5153                17.7664

                     31                     32                     33
                      A                      A                      A
 Frequencies --    851.8128               863.9256               917.0484
 Red. masses --      3.2484                 1.4097                 2.8321
 Frc consts  --      1.3887                 0.6199                 1.4033
 IR Inten    --     10.4813                 0.0101                11.0280

                     34                     35                     36
                      A                      A                      A
 Frequencies --    931.2985               948.1818               975.6102
 Red. masses --      1.3409                 1.3432                 1.3343
 Frc consts  --      0.6852                 0.7115                 0.7482
 IR Inten    --      0.3071                 0.6382                 2.1284

                     37                     38                     39
                      A                      A                      A
 Frequencies --    977.4654              1022.3631              1045.7316
 Red. masses --      1.2743                 3.9070                 2.1311
 Frc consts  --      0.7174                 2.4060                 1.3731
 IR Inten    --      0.6178               113.0470                 6.6219

                     40                     41                     42
                      A                      A                      A
 Frequencies --   1099.3611              1139.3404              1145.6677
 Red. masses --      2.5670                 1.6538                 1.9636
 Frc consts  --      1.8279                 1.2649                 1.5185
 IR Inten    --      5.7722                19.8330                35.0266

                     43                     44                     45
                      A                      A                      A
 Frequencies --   1153.7231              1156.7941              1185.1195
 Red. masses --      2.2393                 1.6699                 2.2353
 Frc consts  --      1.7562                 1.3166                 1.8497
 IR Inten    --    106.0470                17.1297               101.7000

                     46                     47                     48
                      A                      A                      A
 Frequencies --   1201.1639              1224.7082              1246.0200
 Red. masses --      2.8601                 2.7675                 1.9273
 Frc consts  --      2.4313                 2.4457                 1.7630
 IR Inten    --    343.1478                13.6976                69.8032

                     49                     50                     51
                      A                      A                      A
 Frequencies --   1295.5589              1354.5122              1364.5592
 Red. masses --      1.9197                 9.2374                 1.3056
 Frc consts  --      1.8985                 9.9855                 1.4323
 IR Inten    --     24.7398                28.8310                37.9206

                     52                     53                     54
                      A                      A                      A
 Frequencies --   1373.2752              1393.2322              1401.9570
 Red. masses --      1.3220                 1.3658                 1.9241
 Frc consts  --      1.4689                 1.5620                 2.2282
 IR Inten    --     34.2819                22.0979                69.4861

                     55                     56                     57
                      A                      A                      A
 Frequencies --   1412.7216              1460.0691              1470.7528
 Red. masses --      1.5497                 3.7720                 2.4163
 Frc consts  --      1.8223                 4.7377                 3.0795
 IR Inten    --      3.0826               153.9912                14.1677

                     58                     59                     60
                      A                      A                      A
 Frequencies --   1476.2596              1487.0865              1491.6312
 Red. masses --      1.0708                 1.0590                 1.0507
 Frc consts  --      1.3750                 1.3798                 1.3773
 IR Inten    --      1.9560                 1.0890                 0.9744

                     61                     62                     63
                      A                      A                      A
 Frequencies --   1510.2356              1513.6796              1533.5182
 Red. masses --      1.2213                 3.8229                 6.3171
 Frc consts  --      1.6412                 5.1607                 8.7528
 IR Inten    --     13.9895                44.1485               387.0074

                     64                     65                     66
                      A                      A                      A
 Frequencies --   1549.9399              1616.3171              1626.8268
 Red. masses --      5.2036                 7.6312                 6.2530
 Frc consts  --      7.3651                11.7461                 9.7503
 IR Inten    --    214.1228                23.7310                48.9482

                     67                     68                     69
                      A                      A                      A
 Frequencies --   3000.8018              3017.0687              3024.2591
 Red. masses --      1.0832                 1.0374                 1.0359
 Frc consts  --      5.7469                 5.5635                 5.5823
 IR Inten    --     18.5752                24.0621                71.4556

                     70                     71                     72
                      A                      A                      A
 Frequencies --   3077.8747              3088.7965              3101.3596
 Red. masses --      1.1006                 1.1006                 1.1017
 Frc consts  --      6.1432                 6.1866                 6.2436
 IR Inten    --     11.1576                61.4254                32.0308

                     73                     74                     75
                      A                      A                      A
 Frequencies --   3112.2803              3130.0267              3149.7047
 Red. masses --      1.0993                 1.0845                 1.0910
 Frc consts  --      6.2737                 6.2599                 6.3772
 IR Inten    --     20.0397                17.4423                52.4096

                     76                     77                     78
                      A                      A                      A
 Frequencies --   3177.6695              3179.1524              3181.4434
 Red. masses --      1.0911                 1.0882                 1.0924
 Frc consts  --      6.4913                 6.4800                 6.5146
 IR Inten    --     20.2437                23.9467                19.9632

 - Thermochemistry -
 -------------------
 Temperature   298.150 Kelvin.  Pressure   1.00000 Atm.
 Atom     1 has atomic number  6 and mass  12.00000

 Molecular mass:   216.07864 amu.
 Principal axes and moments of inertia in atomic units:
                           1         2         3
     Eigenvalues --  1646.935905430.720346794.67907
           X            0.99423  -0.08847  -0.06063
           Y            0.10268   0.94843   0.29989
           Z            0.03097  -0.30439   0.95204
 This molecule is an asymmetric top.
 Rotational symmetry number  1.
 Warning -- assumption of classical behavior for rotation
           may cause significant error
 Rotational temperatures (Kelvin)      0.05259     0.01595     0.01275
 Rotational constants (GHZ):           1.09582     0.33232     0.26561
 Zero-point vibrational energy     571696.1 (Joules/Mol)
                                  136.63865 (Kcal/Mol)
 Warning -- explicit consideration of  21 degrees of freedom as
           vibrations may cause significant error
 Vibrational temperatures:     44.66    95.62   129.52   176.17   194.39
          (Kelvin)            255.48   294.49   336.56   340.43   363.91
                              389.82   488.88   528.60   565.19   580.14
                              635.78   662.70   678.73   703.40   737.94
                              822.57   943.45   946.91  1005.69  1025.09
                             1041.40  1104.00  1121.77  1183.77  1195.13
                             1225.57  1243.00  1319.43  1339.93  1364.22
                             1403.69  1406.35  1470.95  1504.57  1581.74
                             1639.26  1648.36  1659.95  1664.37  1705.12
                             1728.21  1762.08  1792.74  1864.02  1948.84
                             1963.30  1975.84  2004.55  2017.10  2032.59
                             2100.71  2116.09  2124.01  2139.59  2146.12
                             2172.89  2177.85  2206.39  2230.02  2325.52
                             2340.64  4317.48  4340.89  4351.23  4428.38
                             4444.09  4462.16  4477.88  4503.41  4531.72
                             4571.96  4574.09  4577.39

 Zero-point correction=                           0.217748 (Hartree/Particle)
 Thermal correction to Energy=                    0.231808
 Thermal correction to Enthalpy=                  0.232752
 Thermal correction to Gibbs Free Energy=         0.175991
 Sum of electronic and zero-point Energies=           -728.323113
 Sum of electronic and thermal Energies=              -728.309052
 Sum of electronic and thermal Enthalpies=            -728.308108
 Sum of electronic and thermal Free Energies=         -728.364870

                     E (Thermal)             CV                S
                      KCal/Mol        Cal/Mol-Kelvin    Cal/Mol-Kelvin
 Total                  145.462             54.652            119.465
 Electronic               0.000              0.000              1.377
 Translational            0.889              2.981             42.015
 Rotational               0.889              2.981             32.474
 Vibrational            143.684             48.691             43.599
 Vibration     1          0.594              1.983              5.762
 Vibration     2          0.598              1.970              4.256
 Vibration     3          0.602              1.956              3.660
 Vibration     4          0.610              1.930              3.061
 Vibration     5          0.613              1.918              2.872
 Vibration     6          0.628              1.870              2.354
 Vibration     7          0.640              1.833              2.091
 Vibration     8          0.654              1.789              1.849
 Vibration     9          0.655              1.785              1.828
 Vibration    10          0.664              1.758              1.710
 Vibration    11          0.675              1.727              1.590
 Vibration    12          0.720              1.596              1.213
 Vibration    13          0.740              1.539              1.091
 Vibration    14          0.760              1.486              0.989
 Vibration    15          0.769              1.463              0.951
 Vibration    16          0.802              1.379              0.821
 Vibration    17          0.818              1.337              0.764
 Vibration    18          0.829              1.313              0.733
 Vibration    19          0.845              1.275              0.686
 Vibration    20          0.868              1.221              0.627
 Vibration    21          0.928              1.092              0.501

 Optimization completed.
    -- Stationary point found.
 Normal termination of Gaussian 16 at Mon Jan  8 02:24:19 2024.
