 Q-Chem 5.4, Q-Chem, Inc., Pleasanton, CA (2021)
 Q-Chem 5.4.0 for Intel X86 EM64T Linux

User input:
--------------------------------------------------------------
$molecule
0 1
C                 -1.3550040000     -2.0310740000      1.1258560000
C                 -1.4205820000     -1.9980520000     -0.3553350000
C                 -0.7926880000     -1.0490490000     -1.0599480000
C                 -0.0029990000      0.0114680000     -0.3811510000
C                  0.0630520000     -0.0204280000      1.0975050000
C                 -0.5628820000     -0.9678910000      1.8145850000
O                 -1.9302300000     -2.8995130000      1.7635390000
O                  0.5690660000      0.8761970000     -1.0250620000
C                 -0.5326280000     -1.0524730000      3.3130530000
O                  0.2474040000      0.0111570000      3.8253370000
C                  0.4028940000      0.1158610000      5.1849390000
C                 -0.1597230000     -0.7628290000      6.1126810000
C                  1.1855530000      1.1904690000      5.6206540000
C                  1.4023380000      1.3821570000      6.9783970000
C                  0.0683320000     -0.5556140000      7.4759320000
C                  0.8448160000      0.5097440000      7.9167760000
H                 -2.0048560000     -2.7861370000     -0.8174120000
H                 -0.8245070000     -1.0021090000     -2.1428180000
H                  0.6428520000      0.7604370000      1.5734260000
H                 -0.1196090000     -2.0241670000      3.6124520000
H                 -1.5591820000     -1.0100740000      3.6987550000
H                 -0.7679600000     -1.5999980000      5.7976270000
H                  1.6114690000      1.8587630000      4.8819740000
H                  2.0102610000      2.2176380000      7.3069090000
H                 -0.3710600000     -1.2411440000      8.1918900000
H                  1.0158020000      0.6619470000      8.9757100000
$end
$rem
MAX_SCF_CYCLES=200
BASIS  =  6-311++G(d,p)
GUI  =  2
JOB_TYPE  =  SP
METHOD  =  B3LYP
SOLVENT_METHOD = PCM
$end
$pcm
theory = CPCM
$end
$solvent
dielectric 37.219
opticaldielectric 1.43
$end

--------------------------------------------------------------

             Standard Nuclear Orientation (Angstroms)
    I     Atom           X                Y                Z
 ----------------------------------------------------------------
    1      C      -1.3550040000    -2.0310740000     1.1258560000
    2      C      -1.4205820000    -1.9980520000    -0.3553350000
    3      C      -0.7926880000    -1.0490490000    -1.0599480000
    4      C      -0.0029990000     0.0114680000    -0.3811510000
    5      C       0.0630520000    -0.0204280000     1.0975050000
    6      C      -0.5628820000    -0.9678910000     1.8145850000
    7      O      -1.9302300000    -2.8995130000     1.7635390000
    8      O       0.5690660000     0.8761970000    -1.0250620000
    9      C      -0.5326280000    -1.0524730000     3.3130530000
   10      O       0.2474040000     0.0111570000     3.8253370000
   11      C       0.4028940000     0.1158610000     5.1849390000
   12      C      -0.1597230000    -0.7628290000     6.1126810000
   13      C       1.1855530000     1.1904690000     5.6206540000
   14      C       1.4023380000     1.3821570000     6.9783970000
   15      C       0.0683320000    -0.5556140000     7.4759320000
   16      C       0.8448160000     0.5097440000     7.9167760000
   17      H      -2.0048560000    -2.7861370000    -0.8174120000
   18      H      -0.8245070000    -1.0021090000    -2.1428180000
   19      H       0.6428520000     0.7604370000     1.5734260000
   20      H      -0.1196090000    -2.0241670000     3.6124520000
   21      H      -1.5591820000    -1.0100740000     3.6987550000
   22      H      -0.7679600000    -1.5999980000     5.7976270000
   23      H       1.6114690000     1.8587630000     4.8819740000
   24      H       2.0102610000     2.2176380000     7.3069090000
   25      H      -0.3710600000    -1.2411440000     8.1918900000
   26      H       1.0158020000     0.6619470000     8.9757100000
 ----------------------------------------------------------------

    9    -727.2466356389      3.41e-06  Convergence criterion met
 Total energy in the final basis set =     -727.2466356389

                    Orbital Energies (a.u.)
 --------------------------------------------------------------

 Alpha MOs
 -- Occupied --
-19.1681 -19.1490 -19.1456 -10.2939 -10.2897 -10.2463 -10.2451 -10.2252
-10.2133 -10.2125 -10.2076 -10.1817 -10.1813 -10.1797 -10.1774 -10.1735
 -1.0858  -1.0792  -1.0752  -0.8737  -0.8612  -0.8134  -0.7631  -0.7553
 -0.7275  -0.6973  -0.6423  -0.6227  -0.6022  -0.5946  -0.5543  -0.5210
 -0.5168  -0.4975  -0.4959  -0.4889  -0.4800  -0.4576  -0.4526  -0.4502
 -0.4410  -0.4336  -0.4263  -0.4258  -0.4069  -0.3936  -0.3795  -0.3689
 -0.3420  -0.3388  -0.3156  -0.2973  -0.2968  -0.2846  -0.2656  -0.2377

          Ground-State Mulliken Net Atomic Charges

     Atom                 Charge (a.u.)
  ----------------------------------------
      1 C                    -1.195821
      2 C                     0.281587
      3 C                     0.116549
      4 C                    -0.366418
      5 C                    -0.504549
      6 C                     0.844616
      7 O                    -0.266161
      8 O                    -0.299902
      9 C                    -0.138530
     10 O                    -0.123803
     11 C                     0.467644
     12 C                    -0.039146
     13 C                    -0.101927
     14 C                    -0.264896
     15 C                    -0.329857
     16 C                    -0.403985
     17 H                     0.259131
     18 H                     0.265553
     19 H                     0.242618
     20 H                     0.265650
     21 H                     0.265661
     22 H                     0.195054
     23 H                     0.198480
     24 H                     0.218270
     25 H                     0.228070
     26 H                     0.186115
  ----------------------------------------
  Sum of atomic charges =     0.000000

                    Cartesian Multipole Moments
 -----------------------------------------------------------------
    Charge (ESU x 10^10)
                -0.0000
    Dipole Moment (Debye)
         X      -1.0839      Y      -1.6051      Z       0.8096
       Tot       2.0992
    Quadrupole Moments (Debye-Ang)
        XX     -95.7874     XY      -0.8967     YY     -97.1364
        XZ       4.9184     YZ       5.7043     ZZ     -80.9743

 Total job time:  53.76s(wall), 277.57s(cpu)
        *  Thank you very much for using Q-Chem.  Have a nice day.  *
