 Q-Chem 5.4, Q-Chem, Inc., Pleasanton, CA (2021)
 Q-Chem 5.4.0 for Intel X86 EM64T Linux

User input:
--------------------------------------------------------------
$molecule
0 1
C                  1.4497420000      3.3956140000     -0.4136740000
C                  0.6438400000      3.1125740000     -1.5115150000
C                 -0.0529160000      1.9036260000     -1.5797000000
C                  1.5599880000      2.4716280000      0.6283700000
C                  0.8576760000      1.2553440000      0.5596010000
C                  0.0545920000      0.9764180000     -0.5487350000
C                  2.4346710000      2.7977830000      1.7940810000
C                  2.4739640000      1.7891680000      2.8943090000
C                  1.8142770000      0.6262890000      2.8291550000
C                  0.9679810000      0.2600220000      1.6598760000
O                  3.0937070000      3.8186880000      1.8403180000
O                  0.3996600000     -0.8169900000      1.6356100000
S                  3.3726530000      2.1677560000      4.4477410000
O                  2.8649050000      3.4463740000      4.9423860000
O                  3.2642020000      0.9487580000      5.2575340000
C                  5.0994290000      2.3539400000      3.9781690000
C                  5.5904640000      3.6210850000      3.6717630000
C                  5.9162070000      1.2237670000      3.9758640000
C                  6.9376410000      3.7519110000      3.3449850000
C                  7.7674650000      2.6307550000      3.3259470000
C                  7.2597190000      1.3701260000      3.6400890000
H                  1.9984120000      4.3266210000     -0.3439350000
H                  0.5569770000      3.8334970000     -2.3162370000
H                 -0.6789400000      1.6870200000     -2.4375840000
H                 -0.4755570000      0.0325150000     -0.5821050000
H                  1.8647740000     -0.0943990000      3.6384580000
H                  4.9271160000      4.4747960000      3.6895400000
H                  5.5088050000      0.2593370000      4.2517380000
H                  7.3387460000      4.7303840000      3.1083060000
H                  8.8152140000      2.7404220000      3.0697740000
H                  7.9102270000      0.5034210000      3.6367610000
$end
$rem
MAX_SCF_CYCLES=200
BASIS  =  6-311++G(d,p)
GUI  =  2
JOB_TYPE  =  SP
METHOD  =  B3LYP
SOLVENT_METHOD = COSMO
$end
$solvent
dielectric 37.219
opticaldielectric 1.43
$end

--------------------------------------------------------------

             Standard Nuclear Orientation (Angstroms)
    I     Atom           X                Y                Z
 ----------------------------------------------------------------
    1      C       2.8233204372    -2.0103357696     0.4245238392
    2      C       4.1607968244    -2.1895371977     0.0870504355
    3      C       4.8895388074    -1.1416518193    -0.4808797895
    4      C       2.2058711098    -0.7772501182     0.2008810186
    5      C       2.9401742657     0.2774052400    -0.3699245875
    6      C       4.2814288980     0.0877706475    -0.7108454671
    7      C       0.7678910790    -0.6117108181     0.5684945946
    8      C       0.1799558056     0.7426540338     0.3462834964
    9      C       0.8724700672     1.7467789909    -0.2049665542
   10      C       2.2953216561     1.5951210548    -0.6173681076
   11      O       0.1044588149    -1.5312174576     1.0079015805
   12      O       2.8812634732     2.5309884251    -1.1315245994
   13      S      -1.5217477761     1.1052379559     0.9266795600
   14      O      -1.5833695186     0.7456569390     2.3423949095
   15      O      -1.7906769556     2.4784706045     0.4846482996
   16      C      -2.5995606518     0.0131930046    -0.0128282518
   17      C      -2.9443350760    -1.2276647231     0.5182641648
   18      C      -3.0995125679     0.4589830412    -1.2358335459
   19      C      -3.8078586538    -2.0451827460    -0.2061504166
   20      C      -4.3087406649    -1.6210251097    -1.4370722676
   21      C      -3.9564928026    -0.3732417728    -1.9514989970
   22      H       2.2420837941    -2.8112741121     0.8642260878
   23      H       4.6380888991    -3.1461127468     0.2659586362
   24      H       5.9312305641    -1.2862339212    -0.7431076772
   25      H       4.8273810850     0.9129186161    -1.1515170362
   26      H       0.4206503940     2.7202258950    -0.3636252885
   27      H      -2.5404443006    -1.5363297405     1.4726054093
   28      H      -2.8371552029     1.4431502010    -1.6029734278
   29      H      -4.0911242089    -3.0119526036     0.1931342556
   30      H      -4.9800311073    -2.2634667447    -1.9957021194
   31      H      -4.3577332116    -0.0417558557    -2.9020107074
 ----------------------------------------------------------------

    9   -1314.9969850087      8.51e-06  Convergence criterion met
 Total energy in the final basis set =    -1314.9969850087
    5   -1315.0213227592      3.15e-06  Convergence criterion met
 Total energy in the final basis set =    -1315.0213227592

                    Orbital Energies (a.u.)
 --------------------------------------------------------------

 Alpha MOs
 -- Occupied --
-89.0771 -19.1510 -19.1502 -19.1438 -19.1421 -10.3054 -10.3000 -10.2523
-10.2363 -10.2267 -10.2174 -10.2157 -10.2044 -10.2031 -10.2031 -10.2027
-10.2016 -10.2010 -10.1959 -10.1938 -10.1934  -8.1409  -6.1037  -6.1028
 -6.1019  -1.1389  -1.0865  -1.0833  -1.0360  -0.8998  -0.8878  -0.8636
 -0.7981  -0.7854  -0.7853  -0.7728  -0.7295  -0.6948  -0.6621  -0.6492
 -0.6318  -0.6111  -0.5962  -0.5645  -0.5558  -0.5403  -0.5300  -0.5043
 -0.4990  -0.4930  -0.4790  -0.4722  -0.4699  -0.4658  -0.4626  -0.4592
 -0.4559  -0.4473  -0.4430  -0.4349  -0.3980  -0.3907  -0.3897  -0.3872
 -0.3753  -0.3690  -0.3676  -0.3560  -0.3418  -0.3296  -0.3287  -0.3050
 -0.2932  -0.2881  -0.2843  -0.2820  -0.2775

          Ground-State Mulliken Net Atomic Charges

     Atom                 Charge (a.u.)
  ----------------------------------------
      1 C                     0.243906
      2 C                    -0.428852
      3 C                    -0.332756
      4 C                     0.002984
      5 C                     0.478744
      6 C                     0.123253
      7 C                    -0.362011
      8 C                    -0.166567
      9 C                    -0.123718
     10 C                    -0.528945
     11 O                    -0.209615
     12 O                    -0.273394
     13 S                     0.586373
     14 O                    -0.174884
     15 O                    -0.198460
     16 C                     0.539954
     17 C                    -0.282727
     18 C                     0.010644
     19 C                    -0.443004
     20 C                    -0.333607
     21 C                    -0.555999
     22 H                     0.203757
     23 H                     0.232959
     24 H                     0.236081
     25 H                     0.197494
     26 H                     0.308755
     27 H                     0.288476
     28 H                     0.268948
     29 H                     0.241001
     30 H                     0.216964
     31 H                     0.234243
  ----------------------------------------
  Sum of atomic charges =     0.000001

                    Cartesian Multipole Moments
 -----------------------------------------------------------------
    Charge (ESU x 10^10)
                -0.0000
    Dipole Moment (Debye)
         X       2.7142      Y      -6.4556      Z      -4.8928
       Tot       8.5430
    Quadrupole Moments (Debye-Ang)
        XX     -97.2237     XY      -2.1747     YY    -132.3953
        XZ      15.6465     YZ      -0.9046     ZZ    -134.2400

 Total job time:  90.81s(wall), 692.89s(cpu)
        *  Thank you very much for using Q-Chem.  Have a nice day.  *
