 Gaussian 16, Revision A.03,
 Gaussian 16:  ES64L-G16RevA.03 25-Dec-2016

 ----------------------------------------------------------------------
 #P UB3LYP/6-311++G(d,p) nosym opt freq SCRF=(PCM,Solvent=n,n-DiMethylF
 ormamide)
 ----------------------------------------------------------------------

 -------
 Radical
 -------
 Symbolic Z-matrix:
 Charge = -1 Multiplicity = 2

 SCF Done:  E(UB3LYP) =  -614.065985786     A.U. after   17 cycles
 SCF Done:  E(UB3LYP) =  -614.066250654     A.U. after   14 cycles
 SCF Done:  E(UB3LYP) =  -614.066282048     A.U. after   12 cycles
 SCF Done:  E(UB3LYP) =  -614.066282514     A.U. after   11 cycles
 SCF Done:  E(UB3LYP) =  -614.066283243     A.U. after    9 cycles
 Optimization completed.
    -- Stationary point found.
 Normal termination of Gaussian 16 at Sun Feb 11 01:08:10 2024.

 ----------------------------------------------------------------------
 #P Geom=AllCheck Guess=TCheck SCRF=Check GenChk UB3LYP/6-311++G(d,p) F
 req
 ----------------------------------------------------------------------

 Structure from the checkpoint file:  "246-rad.chk"
 -------
 Radical
 -------
 Charge = -1 Multiplicity = 2

                          Input orientation:
 ---------------------------------------------------------------------
 Center     Atomic      Atomic             Coordinates (Angstroms)
 Number     Number       Type             X           Y           Z
 ---------------------------------------------------------------------
      1          6           0       -2.793695   -0.879785   -0.966888
      2          6           0       -1.448452   -0.408686   -0.469934
      3          6           0       -0.298059   -1.121669   -0.774547
      4          6           0        0.979021   -0.723624   -0.335085
      5          6           0        2.169050   -1.518548   -0.685157
      6          8           0        2.085354   -2.575905   -1.382030
      7          6           0        3.421057   -1.024960   -0.190706
      8          6           0        3.528698    0.121518    0.569223
      9          6           0        2.397873    0.923283    0.935289
     10          8           0        2.510925    1.975413    1.636009
     11          6           0        1.089529    0.453358    0.447590
     12          6           0       -0.082699    1.170818    0.752993
     13          6           0       -1.337649    0.771433    0.317284
     14          6           0       -2.562929    1.577366    0.674693
     15          1           0       -2.694752   -1.796324   -1.550993
     16          1           0       -3.481664   -1.080082   -0.138553
     17          1           0       -3.275682   -0.126766   -1.599554
     18          1           0       -0.367289   -2.023190   -1.373508
     19          1           0        4.308313   -1.599363   -0.441080
     20          1           0        4.501239    0.454673    0.919914
     21          1           0        0.018094    2.068260    1.353437
     22          1           0       -3.285914    0.981128    1.241621
     23          1           0       -2.295853    2.445856    1.279187
     24          1           0       -3.084517    1.935797   -0.219205
 ---------------------------------------------------------------------

 SCF Done:  E(UB3LYP) =  -614.066283243     A.U. after    1 cycles

 Alpha  occ. eigenvalues --  -19.07389 -19.07389 -10.21902 -10.21900 -10.17916
 Alpha  occ. eigenvalues --  -10.17872 -10.16927 -10.16881 -10.16438 -10.16430
 Alpha  occ. eigenvalues --  -10.16298 -10.16297 -10.16052 -10.15992  -0.99429
 Alpha  occ. eigenvalues --   -0.99172  -0.86077  -0.80936  -0.76305  -0.76124
 Alpha  occ. eigenvalues --   -0.70518  -0.67878  -0.66322  -0.60125  -0.58879
 Alpha  occ. eigenvalues --   -0.55705  -0.49131  -0.48511  -0.47483  -0.43796
 Alpha  occ. eigenvalues --   -0.43402  -0.42522  -0.42480  -0.40829  -0.40774
 Alpha  occ. eigenvalues --   -0.39808  -0.38722  -0.38335  -0.38134  -0.37287
 Alpha  occ. eigenvalues --   -0.37218  -0.34008  -0.33459  -0.33061  -0.27445
 Alpha  occ. eigenvalues --   -0.24935  -0.24167  -0.23860  -0.23610  -0.15302
 Alpha virt. eigenvalues --   -0.02926  -0.01274  -0.00435   0.00676   0.01205
 Alpha virt. eigenvalues --    0.02457   0.02788   0.03357   0.04041   0.04870
 Alpha virt. eigenvalues --    0.04919   0.05347   0.05755   0.05796   0.06621

  Beta  occ. eigenvalues --  -19.06752 -19.06751 -10.21746 -10.21745 -10.17893
  Beta  occ. eigenvalues --  -10.17848 -10.16894 -10.16847 -10.16425 -10.16417
  Beta  occ. eigenvalues --  -10.16300 -10.16299 -10.15884 -10.15823  -0.98317
  Beta  occ. eigenvalues --   -0.98030  -0.85933  -0.80435  -0.76198  -0.75889
  Beta  occ. eigenvalues --   -0.70254  -0.67750  -0.65435  -0.60041  -0.58591
  Beta  occ. eigenvalues --   -0.55395  -0.49007  -0.48264  -0.47108  -0.43664
  Beta  occ. eigenvalues --   -0.43284  -0.42455  -0.42279  -0.40192  -0.39767
  Beta  occ. eigenvalues --   -0.39321  -0.38612  -0.38235  -0.37975  -0.37003
  Beta  occ. eigenvalues --   -0.34620  -0.33873  -0.32961  -0.32616  -0.24501
  Beta  occ. eigenvalues --   -0.24292  -0.23569  -0.23310  -0.23029
  Beta virt. eigenvalues --   -0.08498  -0.02177  -0.00428  -0.00190   0.00699
  Beta virt. eigenvalues --    0.01218   0.02474   0.02812   0.03452   0.04050
  Beta virt. eigenvalues --    0.04880   0.05453   0.05785   0.05906   0.06337

 Mulliken charges and spin densities:
               1          2
     1  C   -0.509802  -0.000842
     2  C    0.592953   0.016508
     3  C   -0.316994   0.039929
     4  C    0.049512   0.010415
     5  C   -0.675226   0.078759
     6  O   -0.498640   0.229572
     7  C    0.068099   0.137706
     8  C    0.069623   0.137578
     9  C   -0.674369   0.078760
    10  O   -0.498957   0.229491
    11  C    0.050683   0.010453
    12  C   -0.314683   0.039868
    13  C    0.591567   0.016579
    14  C   -0.509690  -0.000851
    15  H    0.167701   0.000034
    16  H    0.158006   0.001095
    17  H    0.158272   0.001104
    18  H    0.126611  -0.002854
    19  H    0.177705  -0.011351
    20  H    0.177689  -0.011333
    21  H    0.125974  -0.002860
    22  H    0.158231   0.001105
    23  H    0.167741   0.000035
    24  H    0.157991   0.001101
 Sum of Mulliken charges =  -1.00000   1.00000

 Dipole moment (field-independent basis, Debye):
    X=            -12.2787    Y=              1.6043    Z=             -0.6780  Tot=             12.4016
 Quadrupole moment (field-independent basis, Debye-Ang):
   XX=           -105.1690   YY=           -113.5839   ZZ=            -99.0796
   XY=             -0.1364   XZ=             -2.5279   YZ=            -16.7142

  Exact polarizability: 306.475 -12.104 251.681  18.052  83.941 177.383
 Approx polarizability: 316.055  -9.028 290.441  19.028  98.479 204.013

                      1                      2                      3
                      A                      A                      A
 Frequencies --     78.8934                93.3919               131.7148
 Red. masses --      3.9447                 4.7373                 4.3643
 Frc consts  --      0.0145                 0.0243                 0.0446
 IR Inten    --      0.0844                17.0739                 3.0880

                      4                      5                      6
                      A                      A                      A
 Frequencies --    141.5686               182.5421               198.6390
 Red. masses --      1.0444                 1.1161                 5.3112
 Frc consts  --      0.0123                 0.0219                 0.1235
 IR Inten    --      0.0026                 0.6082                 3.3351

                      7                      8                      9
                      A                      A                      A
 Frequencies --    235.4504               294.5930               316.3677
 Red. masses --      3.5546                 2.7399                 3.8492
 Frc consts  --      0.1161                 0.1401                 0.2270
 IR Inten    --      0.0051                 6.6926                 4.4686

                     10                     11                     12
                      A                      A                      A
 Frequencies --    336.5369               340.7170               367.2196
 Red. masses --      4.7204                 7.0233                 4.6624
 Frc consts  --      0.3150                 0.4804                 0.3704
 IR Inten    --      0.0336                17.4287                 5.7844

                     13                     14                     15
                      A                      A                      A
 Frequencies --    440.2029               457.8993               493.6374
 Red. masses --      2.8778                10.5827                 3.8947
 Frc consts  --      0.3286                 1.3073                 0.5592
 IR Inten    --     10.4114                 5.6958                 0.7634

                     16                     17                     18
                      A                      A                      A
 Frequencies --    519.6919               554.7638               604.7313
 Red. masses --      7.7322                 4.7903                 5.4689
 Frc consts  --      1.2304                 0.8686                 1.1783
 IR Inten    --      5.7185                 0.0003                 1.8435

                     19                     20                     21
                      A                      A                      A
 Frequencies --    632.9461               639.3857               688.3779
 Red. masses --      2.2480                 3.7795                 3.7011
 Frc consts  --      0.5306                 0.9103                 1.0333
 IR Inten    --      2.6037                 0.3121                 0.0030

                     22                     23                     24
                      A                      A                      A
 Frequencies --    730.2959               772.5493               784.8556
 Red. masses --      6.9589                 3.7643                 5.3163
 Frc consts  --      2.1867                 1.3237                 1.9295
 IR Inten    --      0.2911                 4.9743                 1.4347

                     25                     26                     27
                      A                      A                      A
 Frequencies --    785.5170               822.3806               913.3720
 Red. masses --      6.8795                 1.9050                 1.3978
 Frc consts  --      2.5010                 0.7591                 0.6870
 IR Inten    --     91.9966                96.3393                 7.0749

                     28                     29                     30
                      A                      A                      A
 Frequencies --    919.9613               932.5046              1002.0492
 Red. masses --      1.3775                 1.2883                 3.6900
 Frc consts  --      0.6869                 0.6600                 2.1830
 IR Inten    --     13.9545                 0.0081                15.8662

                     31                     32                     33
                      A                      A                      A
 Frequencies --   1006.4741              1032.8425              1045.2398
 Red. masses --      1.4356                 1.6427                 1.4498
 Frc consts  --      0.8568                 1.0324                 0.9332
 IR Inten    --     37.0399                 0.3485                11.9723

                     34                     35                     36
                      A                      A                      A
 Frequencies --   1066.4182              1071.7438              1150.0965
 Red. masses --      1.6075                 1.9107                 1.4227
 Frc consts  --      1.0771                 1.2931                 1.1087
 IR Inten    --      0.0062                24.9256                 8.6882

                     37                     38                     39
                      A                      A                      A
 Frequencies --   1180.9045              1225.5891              1245.1324
 Red. masses --      4.1648                 2.3663                 1.7763
 Frc consts  --      3.4220                 2.0942                 1.6225
 IR Inten    --      6.4590                 3.5055               133.2380

                     40                     41                     42
                      A                      A                      A
 Frequencies --   1258.9592              1272.7504              1350.0457
 Red. masses --      5.6893                 1.8484                 7.2554
 Frc consts  --      5.3129                 1.7641                 7.7912
 IR Inten    --      0.8353                28.1561                 3.1252

                     43                     44                     45
                      A                      A                      A
 Frequencies --   1393.3575              1405.5986              1412.3863
 Red. masses --      2.2336                 1.3710                 1.2302
 Frc consts  --      2.5550                 1.5959                 1.4459
 IR Inten    --      3.0191                45.1808                 0.5148

                     46                     47                     48
                      A                      A                      A
 Frequencies --   1437.8786              1463.6258              1469.1860
 Red. masses --      5.6554                 6.5726                 1.0445
 Frc consts  --      6.8890                 8.2956                 1.3284
 IR Inten    --    613.8204                10.9233                 0.0136

                     49                     50                     51
                      A                      A                      A
 Frequencies --   1481.1217              1481.3984              1484.5125
 Red. masses --      1.2238                 1.0640                 1.2833
 Frc consts  --      1.5818                 1.3757                 1.6663
 IR Inten    --    158.7483                42.6357                48.9242

                     52                     53                     54
                      A                      A                      A
 Frequencies --   1488.2471              1516.0771              1539.0013
 Red. masses --      3.0723                 4.0084                 4.4528
 Frc consts  --      4.0093                 5.4282                 6.2139
 IR Inten    --     78.8373              1090.5604                17.0922

                     55                     56                     57
                      A                      A                      A
 Frequencies --   1615.4578              1644.0917              3014.8852
 Red. masses --      7.5302                 6.6056                 1.0387
 Frc consts  --     11.5785                10.5200                 5.5628
 IR Inten    --     17.0870                 0.6122                10.8663

                     58                     59                     60
                      A                      A                      A
 Frequencies --   3015.4135              3056.7371              3058.1630
 Red. masses --      1.0380                 1.0996                 1.0997
 Frc consts  --      5.5608                 6.0535                 6.0597
 IR Inten    --    125.6453                61.7728                 0.0367

                     61                     62                     63
                      A                      A                      A
 Frequencies --   3101.3482              3102.4854              3141.8535
 Red. masses --      1.0996                 1.0992                 1.0857
 Frc consts  --      6.2314                 6.2338                 6.3142
 IR Inten    --     65.8492                 3.4977                40.1584

                     64                     65                     66
                      A                      A                      A
 Frequencies --   3160.6603              3168.1125              3173.7037
 Red. masses --      1.0941                 1.0894                 1.0890
 Frc consts  --      6.4397                 6.4422                 6.4627
 IR Inten    --     46.6127                17.7209                13.0628

 - Thermochemistry -
 -------------------
 Temperature   298.150 Kelvin.  Pressure   1.00000 Atm.
 Atom     1 has atomic number  6 and mass  12.00000

 Molecular mass:   186.06808 amu.
 Principal axes and moments of inertia in atomic units:
                           1         2         3
     Eigenvalues --  1656.364933074.170054708.31628
           X            0.99016   0.07816  -0.11609
           Y           -0.12911   0.83032  -0.54213
           Z            0.05402   0.55178   0.83224
 This molecule is an asymmetric top.
 Rotational symmetry number  1.
 Warning -- assumption of classical behavior for rotation
           may cause significant error
 Rotational temperatures (Kelvin)      0.05229     0.02817     0.01840
 Rotational constants (GHZ):           1.08958     0.58707     0.38331
 Zero-point vibrational energy     485350.4 (Joules/Mol)
                                  116.00154 (Kcal/Mol)
 Warning -- explicit consideration of  18 degrees of freedom as
           vibrations may cause significant error
 Vibrational temperatures:    113.51   134.37   189.51   203.69   262.64
          (Kelvin)            285.80   338.76   423.85   455.18   484.20
                              490.22   528.35   633.35   658.82   710.23
                              747.72   798.18   870.07   910.67   919.93
                              990.42  1050.73  1111.53  1129.23  1130.18
                             1183.22  1314.14  1323.62  1341.67  1441.73
                             1448.09  1486.03  1503.87  1534.34  1542.00
                             1654.73  1699.06  1763.35  1791.47  1811.36
                             1831.20  1942.41  2004.73  2022.34  2032.11
                             2068.79  2105.83  2113.83  2131.00  2131.40
                             2135.88  2141.26  2181.30  2214.28  2324.28
                             2365.48  4337.75  4338.51  4397.96  4400.01
                             4462.15  4463.78  4520.43  4547.49  4558.21
                             4566.25

 Zero-point correction=                           0.184860 (Hartree/Particle)
 Thermal correction to Energy=                    0.196783
 Thermal correction to Enthalpy=                  0.197727
 Thermal correction to Gibbs Free Energy=         0.146559
 Sum of electronic and zero-point Energies=           -613.881423
 Sum of electronic and thermal Energies=              -613.869501
 Sum of electronic and thermal Enthalpies=            -613.868556
 Sum of electronic and thermal Free Energies=         -613.919724

                     E (Thermal)             CV                S
                      KCal/Mol        Cal/Mol-Kelvin    Cal/Mol-Kelvin
 Total                  123.483             46.663            107.692
 Electronic               0.000              0.000              1.377
 Translational            0.889              2.981             41.569
 Rotational               0.889              2.981             31.550
 Vibrational            121.705             40.701             33.196
 Vibration     1          0.600              1.963              3.918
 Vibration     2          0.602              1.954              3.588
 Vibration     3          0.612              1.922              2.921
 Vibration     4          0.615              1.912              2.783
 Vibration     5          0.630              1.864              2.302
 Vibration     6          0.637              1.842              2.146
 Vibration     7          0.655              1.787              1.837
 Vibration     8          0.689              1.684              1.447
 Vibration     9          0.703              1.642              1.329
 Vibration    10          0.717              1.603              1.229
 Vibration    11          0.720              1.594              1.209
 Vibration    12          0.740              1.540              1.091
 Vibration    13          0.800              1.382              0.826
 Vibration    14          0.816              1.343              0.772
 Vibration    15          0.849              1.264              0.674
 Vibration    16          0.875              1.206              0.611
 Vibration    17          0.910              1.129              0.534
 Vibration    18          0.963              1.022              0.442

 Optimization completed.
    -- Stationary point found.
 Normal termination of Gaussian 16 at Sun Feb 11 01:38:27 2024.
