 Q-Chem 5.4, Q-Chem, Inc., Pleasanton, CA (2021)
 Q-Chem 5.4.0 for Intel X86 EM64T Linux

User input:
--------------------------------------------------------------
$molecule
-1 2
C                 -0.8231970000      3.7973130000     -0.1353050000
C                 -1.8667150000      3.1188100000      0.4671340000
C                 -1.6933920000      1.7834710000      0.8836150000
C                  0.4265290000      3.1735590000     -0.3432130000
C                  0.5997840000      1.8234600000      0.0737090000
C                 -0.4746050000      1.1545590000      0.6851580000
C                  1.5125850000      3.9072520000     -0.9755860000
C                  2.7663980000      3.1907430000     -1.1340160000
C                  2.9298810000      1.8559220000     -0.7683540000
C                  1.8805490000      1.1117320000     -0.1240470000
O                  1.4027790000      5.1001430000     -1.3934670000
O                  2.0281490000     -0.0824480000      0.2571930000
N                  3.8095910000      3.9234030000     -1.6650250000
H                 -0.9314150000      4.8249540000     -0.4635650000
H                 -2.8208580000      3.6152720000      0.6209410000
H                 -2.5126810000      1.2504500000      1.3573390000
H                 -0.3101710000      0.1277980000      0.9926570000
H                  3.5015720000      4.7597250000     -2.1441320000
H                  4.5468060000      3.3695190000     -2.0764150000
N                  4.2163110000      1.2552780000     -1.0425050000
C                  5.0219480000      1.0346490000      0.1593280000
C                  4.1554800000      0.0646660000     -1.8920570000
H                  5.0983080000      1.9712860000      0.7169190000
H                  6.0346480000      0.7279220000     -0.1323080000
H                  4.5951210000      0.2646300000      0.8188910000
H                  3.5800090000      0.2966330000     -2.7920740000
H                  3.6874040000     -0.7938630000     -1.3923340000
H                  5.1736120000     -0.2072800000     -2.1993960000
$end

$rem
BASIS  =  6-311++G(d,p)
GUI  =  2
JOB_TYPE  =  SP
METHOD  =  B3LYP
SCF_CONVERGENCE  = 8
SOLVENT_METHOD = sm12
$end

$smx
solvent dimethylformamide
charges CM5
$end

--------------------------------------------------------------

             Standard Nuclear Orientation (Angstroms)
    I     Atom           X                Y                Z
 ----------------------------------------------------------------
    1      C      -0.8231970000     3.7973130000    -0.1353050000
    2      C      -1.8667150000     3.1188100000     0.4671340000
    3      C      -1.6933920000     1.7834710000     0.8836150000
    4      C       0.4265290000     3.1735590000    -0.3432130000
    5      C       0.5997840000     1.8234600000     0.0737090000
    6      C      -0.4746050000     1.1545590000     0.6851580000
    7      C       1.5125850000     3.9072520000    -0.9755860000
    8      C       2.7663980000     3.1907430000    -1.1340160000
    9      C       2.9298810000     1.8559220000    -0.7683540000
   10      C       1.8805490000     1.1117320000    -0.1240470000
   11      O       1.4027790000     5.1001430000    -1.3934670000
   12      O       2.0281490000    -0.0824480000     0.2571930000
   13      N       3.8095910000     3.9234030000    -1.6650250000
   14      H      -0.9314150000     4.8249540000    -0.4635650000
   15      H      -2.8208580000     3.6152720000     0.6209410000
   16      H      -2.5126810000     1.2504500000     1.3573390000
   17      H      -0.3101710000     0.1277980000     0.9926570000
   18      H       3.5015720000     4.7597250000    -2.1441320000
   19      H       4.5468060000     3.3695190000    -2.0764150000
   20      N       4.2163110000     1.2552780000    -1.0425050000
   21      C       5.0219480000     1.0346490000     0.1593280000
   22      C       4.1554800000     0.0646660000    -1.8920570000
   23      H       5.0983080000     1.9712860000     0.7169190000
   24      H       6.0346480000     0.7279220000    -0.1323080000
   25      H       4.5951210000     0.2646300000     0.8188910000
   26      H       3.5800090000     0.2966330000    -2.7920740000
   27      H       3.6874040000    -0.7938630000    -1.3923340000
   28      H       5.1736120000    -0.2072800000    -2.1993960000
 ----------------------------------------------------------------

   18    -724.7118035429      6.25e-09  Convergence criterion met
 Total energy in the final basis set =     -724.7974005345

                    Orbital Energies (a.u.)
 --------------------------------------------------------------

 Alpha MOs
 -- Occupied --
-19.0779 -19.0683 -14.3159 -14.3109 -10.2212 -10.2190 -10.2077 -10.1878
-10.1855 -10.1822 -10.1809 -10.1794 -10.1777 -10.1768 -10.1766 -10.1759
 -1.0018  -0.9945  -0.9303  -0.8999  -0.8613  -0.7916  -0.7556  -0.7336
 -0.7060  -0.6785  -0.6449  -0.6148  -0.5908  -0.5665  -0.5433  -0.5140
 -0.4920  -0.4764  -0.4627  -0.4558  -0.4530  -0.4394  -0.4283  -0.4242
 -0.4184  -0.4062  -0.3975  -0.3927  -0.3751  -0.3735  -0.3684  -0.3606
 -0.3553  -0.3420  -0.3234  -0.2669  -0.2621  -0.2539  -0.2430  -0.2213
 -0.2130  -0.1479

 Beta MOs
 -- Occupied --
-19.0708 -19.0633 -14.3151 -14.3109 -10.2201 -10.2166 -10.2064 -10.1877
-10.1855 -10.1820 -10.1808 -10.1785 -10.1773 -10.1769 -10.1764 -10.1747
 -0.9904  -0.9856  -0.9286  -0.8980  -0.8593  -0.7874  -0.7536  -0.7321
 -0.7059  -0.6707  -0.6426  -0.6126  -0.5892  -0.5640  -0.5420  -0.5118
 -0.4913  -0.4732  -0.4618  -0.4543  -0.4521  -0.4384  -0.4277  -0.4220
 -0.4069  -0.3999  -0.3943  -0.3895  -0.3725  -0.3685  -0.3625  -0.3571
 -0.3439  -0.3402  -0.3073  -0.2552  -0.2501  -0.2480  -0.2372  -0.2152
 -0.2074

          Ground-State Mulliken Net Atomic Charges

     Atom                 Charge (a.u.)    Spin (a.u.)
  --------------------------------------------------------
      1 C                    -0.064200       0.070225
      2 C                     0.956173       0.002425
      3 C                     0.839587       0.078343
      4 C                    -0.488630       0.013530
      5 C                    -1.230954       0.077633
      6 C                    -0.029230       0.003378
      7 C                    -1.252250       0.148570
      8 C                     0.083587       0.070012
      9 C                    -0.777293       0.007674
     10 C                    -1.752124       0.042061
     11 O                    -0.367865       0.265951
     12 O                    -0.233414       0.185983
     13 N                    -0.212161       0.044608
     14 H                     0.143778      -0.004674
     15 H                     0.355586      -0.000585
     16 H                     0.345906      -0.005531
     17 H                     0.149035       0.000198
     18 H                     0.313232      -0.001946
     19 H                     0.350459      -0.000576
     20 N                     0.434054      -0.007185
     21 C                     0.144064       0.004641
     22 C                     0.248597       0.003023
     23 H                     0.108796       0.001477
     24 H                     0.265320       0.000691
     25 H                     0.150285      -0.001052
     26 H                     0.125292       0.001012
     27 H                     0.144957      -0.000192
     28 H                     0.249413       0.000307
  --------------------------------------------------------
  Sum of atomic charges =    -1.000000

                    Cartesian Multipole Moments
 -----------------------------------------------------------------
    Charge (ESU x 10^10)
                -4.8032
    Dipole Moment (Debye)
         X      -6.9259      Y     -11.9985      Z       1.4988
       Tot      13.9348
    Quadrupole Moments (Debye-Ang)
        XX    -112.6016     XY     -14.4607     YY    -157.7580
        XZ      -0.7207     YZ      10.7684     ZZ    -102.3329

 Total job time:  770.33s(wall), 5359.38s(cpu)
        *  Thank you very much for using Q-Chem.  Have a nice day.  *
