 Gaussian 16, Revision A.03,
 Gaussian 16:  ES64L-G16RevA.03 25-Dec-2016

 ----------------------------------------------------------------
 #P UB3LYP/6-311++G(d,p) SCRF=(PCM,Solvent=n,n-DiMethylFormamide)
 ----------------------------------------------------------------

 -------
 Reduced
 -------
 Symbolic Z-matrix:
 Charge = -2 Multiplicity = 1

                         Standard orientation:
 ---------------------------------------------------------------------
 Center     Atomic      Atomic             Coordinates (Angstroms)
 Number     Number       Type             X           Y           Z
 ---------------------------------------------------------------------
      1          6           0        8.266961    3.379093    0.840274
      2          6           0        7.696255    4.630936    0.958204
      3          6           0        6.341127    4.825636    0.601372
      4          6           0        7.518888    2.271853    0.369992
      5          6           0        6.143015    2.465630    0.009330
      6          6           0        5.594144    3.755974    0.134131
      7          6           0        8.118902    0.976894    0.232657
      8          6           0        7.255013   -0.065388   -0.228240
      9          6           0        5.895622    0.060589   -0.533828
     10          6           0        5.295854    1.372313   -0.495497
     11          8           0        9.351341    0.677813    0.480239
     12          8           0        4.104885    1.626839   -0.884550
     13          8           0        7.900247   -1.266468   -0.360653
     14          1           0        9.305291    3.204580    1.102134
     15          1           0        8.287545    5.467513    1.323136
     16          1           0        5.889282    5.809889    0.692571
     17          1           0        4.555080    3.876305   -0.152594
     18          1           0        8.810085   -1.013125   -0.068116
     19          6           0        5.187028   -2.381061   -0.074295
     20          6           0        5.292594   -2.219562    1.308209
     21          6           0        5.032467   -3.677563   -0.577960
     22          6           0        4.978662   -4.781092    0.270714
     23          6           0        5.080972   -4.606191    1.651929
     24          6           0        5.239832   -3.319339    2.164497
     25          1           0        5.433200   -1.221399    1.706820
     26          1           0        4.946508   -3.812448   -1.651675
     27          1           0        4.861204   -5.778308   -0.144094
     28          1           0        5.330032   -3.169622    3.236272
     29          1           0        5.044965   -5.462949    2.318240
     30          6           0        5.187217   -1.201094   -1.052772
     31          1           0        5.788088   -1.547092   -1.905424
     32          7           0        3.812428   -1.023821   -1.599204
     33          6           0        2.726810   -1.001598   -0.609504
     34          6           0        1.405820   -0.661172   -1.301417
     35          6           0        0.199883   -0.691487   -0.355623
     36          6           0       -1.131299   -0.373440   -1.047964
     37          6           0       -2.348124   -0.430071   -0.116098
     38          6           0       -3.679819   -0.135184   -0.817473
     39          1           0        3.813739   -0.081402   -1.989375
     40          1           0        2.908426   -0.262425    0.184067
     41          1           0        2.646227   -1.989321   -0.143671
     42          1           0        1.247979   -1.367517   -2.126908
     43          1           0        1.494771    0.336779   -1.747108
     44          1           0        0.362331    0.022994    0.461232
     45          1           0        0.130894   -1.682370    0.114318
     46          1           0       -1.282209   -1.077283   -1.877809
     47          1           0       -1.070544    0.623268   -1.504081
     48          1           0       -2.206671    0.282298    0.707265
     49          1           0       -2.399203   -1.423591    0.349389
     50          1           0       -3.812082   -0.840547   -1.648844
     51          1           0       -3.635078    0.862886   -1.272905
     52          6           0       -4.901317   -0.214432    0.106519
     53          6           0       -6.232795    0.062552   -0.602383
     54          6           0       -7.457242   -0.032961    0.316080
     55          6           0       -8.788429    0.230982   -0.398263
     56          6           0      -10.014462    0.125812    0.516981
     57          6           0      -11.345462    0.381948   -0.200504
     58          6           0      -12.571110    0.271418    0.714877
     59          6           0      -13.901989    0.523568   -0.003931
     60          6           0      -15.126722    0.409756    0.912701
     61          6           0      -16.455443    0.660349    0.193838
     62          1           0       -4.776517    0.497132    0.933326
     63          1           0       -4.939605   -1.210110    0.568130
     64          1           0       -6.351321   -0.644263   -1.434406
     65          1           0       -6.199251    1.061321   -1.057266
     66          1           0       -7.344252    0.678403    1.144807
     67          1           0       -7.486377   -1.029970    0.775356
     68          1           0       -8.898010   -0.477887   -1.229691
     69          1           0       -8.762491    1.229715   -0.853761
     70          1           0       -9.908519    0.837376    1.346535
     71          1           0      -10.038208   -0.871958    0.974933
     72          1           0      -11.450661   -0.328335   -1.031252
     73          1           0      -11.324394    1.380317   -0.657059
     74          1           0      -12.467990    0.983093    1.544687
     75          1           0      -12.591338   -0.726720    1.172126
     76          1           0      -14.006865   -0.186961   -0.834213
     77          1           0      -13.885435    1.521802   -0.460479
     78          1           0      -15.022804    1.119873    1.742949
     79          1           0      -15.143201   -0.587938    1.369595
     80          1           0      -16.490391    1.665219   -0.242122
     81          1           0      -17.306332    0.570843    0.878010
     82          1           0      -16.611788   -0.058795   -0.618230
 ---------------------------------------------------------------------

 SCF Done:  E(UB3LYP) =  -1565.73532343     A.U. after   17 cycles

 The electronic state is 1-A.
 Alpha  occ. eigenvalues --  -19.10771 -19.02243 -19.01242 -14.27028 -10.18527
 Alpha  occ. eigenvalues --  -10.17429 -10.17242 -10.16916 -10.16888 -10.16800
 Alpha  occ. eigenvalues --  -10.16743 -10.16351 -10.16332 -10.16091 -10.16072
 Alpha  occ. eigenvalues --  -10.15824 -10.15806 -10.15793 -10.15777 -10.15762
 Alpha  occ. eigenvalues --  -10.15746 -10.15745 -10.15725 -10.15699 -10.15661
 Alpha  occ. eigenvalues --  -10.15599 -10.15519 -10.15461 -10.15392 -10.14830
 Alpha  occ. eigenvalues --  -10.14662 -10.14195 -10.14192 -10.14120 -10.13268
 Alpha  occ. eigenvalues --  -10.12890 -10.12539  -1.02477  -0.93951  -0.93120
 Alpha  occ. eigenvalues --   -0.88267  -0.84663  -0.82242  -0.81217  -0.80456
 Alpha  occ. eigenvalues --   -0.79291  -0.77873  -0.76866  -0.75470  -0.74669
 Alpha  occ. eigenvalues --   -0.73921  -0.73033  -0.71896  -0.71050  -0.70028
 Alpha  occ. eigenvalues --   -0.67609  -0.65381  -0.63581  -0.62433  -0.61018
 Alpha  occ. eigenvalues --   -0.60004  -0.59053  -0.58536  -0.57625  -0.57436
 Alpha  occ. eigenvalues --   -0.57206  -0.56969  -0.56710  -0.56518  -0.55289
 Alpha  occ. eigenvalues --   -0.53240  -0.50471  -0.49955  -0.48530  -0.48071
 Alpha  occ. eigenvalues --   -0.47670  -0.46804  -0.45746  -0.45509  -0.44997
 Alpha  occ. eigenvalues --   -0.44326  -0.44013  -0.43496  -0.43235  -0.42769
 Alpha  occ. eigenvalues --   -0.42421  -0.42122  -0.41862  -0.41705  -0.41348
 Alpha  occ. eigenvalues --   -0.41089  -0.40438  -0.40076  -0.39814  -0.39445
 Alpha  occ. eigenvalues --   -0.38748  -0.38093  -0.37937  -0.37750  -0.37032
 Alpha  occ. eigenvalues --   -0.36648  -0.36429  -0.36014  -0.35838  -0.35351
 Alpha  occ. eigenvalues --   -0.35289  -0.34733  -0.34283  -0.34156  -0.33932
 Alpha  occ. eigenvalues --   -0.33580  -0.33331  -0.33101  -0.32918  -0.32501
 Alpha  occ. eigenvalues --   -0.32339  -0.32088  -0.31973  -0.31852  -0.31793
 Alpha  occ. eigenvalues --   -0.31722  -0.31649  -0.31581  -0.31300  -0.31079
 Alpha  occ. eigenvalues --   -0.30629  -0.29990  -0.29576  -0.28786  -0.25027
 Alpha  occ. eigenvalues --   -0.24082  -0.22772  -0.22269  -0.21849  -0.21054
 Alpha  occ. eigenvalues --   -0.19048  -0.18303  -0.10350
 Alpha virt. eigenvalues --   -0.01084  -0.00702  -0.00415  -0.00315  -0.00140
 Alpha virt. eigenvalues --    0.00183   0.00402   0.00596   0.00858   0.01035
 Alpha virt. eigenvalues --    0.01129   0.01537   0.01617   0.01680   0.01939

  Beta  occ. eigenvalues --  -19.10771 -19.02243 -19.01242 -14.27028 -10.18527
  Beta  occ. eigenvalues --  -10.17429 -10.17242 -10.16916 -10.16888 -10.16800
  Beta  occ. eigenvalues --  -10.16743 -10.16351 -10.16332 -10.16091 -10.16072
  Beta  occ. eigenvalues --  -10.15824 -10.15806 -10.15793 -10.15777 -10.15762
  Beta  occ. eigenvalues --  -10.15746 -10.15745 -10.15725 -10.15699 -10.15661
  Beta  occ. eigenvalues --  -10.15599 -10.15519 -10.15461 -10.15392 -10.14830
  Beta  occ. eigenvalues --  -10.14662 -10.14195 -10.14192 -10.14120 -10.13268
  Beta  occ. eigenvalues --  -10.12890 -10.12539  -1.02477  -0.93951  -0.93120
  Beta  occ. eigenvalues --   -0.88267  -0.84663  -0.82242  -0.81217  -0.80456
  Beta  occ. eigenvalues --   -0.79291  -0.77873  -0.76866  -0.75470  -0.74669
  Beta  occ. eigenvalues --   -0.73921  -0.73033  -0.71896  -0.71050  -0.70028
  Beta  occ. eigenvalues --   -0.67609  -0.65381  -0.63581  -0.62433  -0.61018
  Beta  occ. eigenvalues --   -0.60004  -0.59053  -0.58536  -0.57625  -0.57436
  Beta  occ. eigenvalues --   -0.57206  -0.56969  -0.56710  -0.56518  -0.55289
  Beta  occ. eigenvalues --   -0.53240  -0.50471  -0.49955  -0.48530  -0.48071
  Beta  occ. eigenvalues --   -0.47670  -0.46804  -0.45746  -0.45509  -0.44997
  Beta  occ. eigenvalues --   -0.44326  -0.44013  -0.43496  -0.43235  -0.42769
  Beta  occ. eigenvalues --   -0.42421  -0.42122  -0.41862  -0.41705  -0.41348
  Beta  occ. eigenvalues --   -0.41089  -0.40438  -0.40076  -0.39814  -0.39445
  Beta  occ. eigenvalues --   -0.38748  -0.38093  -0.37937  -0.37750  -0.37032
  Beta  occ. eigenvalues --   -0.36648  -0.36429  -0.36014  -0.35838  -0.35351
  Beta  occ. eigenvalues --   -0.35289  -0.34733  -0.34283  -0.34156  -0.33932
  Beta  occ. eigenvalues --   -0.33580  -0.33331  -0.33101  -0.32918  -0.32501
  Beta  occ. eigenvalues --   -0.32339  -0.32088  -0.31973  -0.31852  -0.31793
  Beta  occ. eigenvalues --   -0.31722  -0.31649  -0.31581  -0.31300  -0.31079
  Beta  occ. eigenvalues --   -0.30629  -0.29990  -0.29576  -0.28786  -0.25027
  Beta  occ. eigenvalues --   -0.24082  -0.22772  -0.22269  -0.21849  -0.21054
  Beta  occ. eigenvalues --   -0.19048  -0.18303  -0.10350
  Beta virt. eigenvalues --   -0.01084  -0.00702  -0.00415  -0.00315  -0.00140
  Beta virt. eigenvalues --    0.00183   0.00402   0.00596   0.00858   0.01035
  Beta virt. eigenvalues --    0.01129   0.01537   0.01617   0.01680   0.01939

 Mulliken charges and spin densities:
               1          2
     1  C   -0.135220  -0.000000
     2  C   -0.463437   0.000000
     3  C   -0.610049  -0.000000
     4  C    0.117692   0.000000
     5  C    0.462785   0.000000
     6  C   -0.061186  -0.000000
     7  C   -0.864230  -0.000000
     8  C   -0.484643  -0.000000
     9  C    0.966162   0.000000
    10  C   -0.606117  -0.000000
    11  O   -0.719939   0.000000
    12  O   -0.594795   0.000000
    13  O   -0.297972   0.000000
    14  H    0.155216  -0.000000
    15  H    0.150085   0.000000
    16  H    0.150989   0.000000
    17  H    0.153659  -0.000000
    18  H    0.287846  -0.000000
    19  C    0.079623   0.000000
    20  C   -0.198084  -0.000000
    21  C    0.148781   0.000000
    22  C   -0.302477   0.000000
    23  C   -0.442258   0.000000
    24  C   -0.284301   0.000000
    25  H    0.156472  -0.000000
    26  H    0.167231  -0.000000
    27  H    0.199236   0.000000
    28  H    0.200761   0.000000
    29  H    0.168693   0.000000
    30  C    0.285643   0.000000
    31  H    0.207031  -0.000000
    32  N    0.074260  -0.000000
    33  C   -0.832177  -0.000000
    34  C   -0.289020   0.000000
    35  C   -0.053197  -0.000000
    36  C   -0.086055   0.000000
    37  C   -0.200067  -0.000000
    38  C   -0.271320   0.000000
    39  H    0.265378   0.000000
    40  H    0.204520   0.000000
    41  H    0.075096   0.000000
    42  H    0.140136   0.000000
    43  H    0.145425  -0.000000
    44  H    0.117358  -0.000000
    45  H    0.128129  -0.000000
    46  H    0.113944  -0.000000
    47  H    0.127570   0.000000
    48  H    0.133270   0.000000
    49  H    0.130006  -0.000000
    50  H    0.130508  -0.000000
    51  H    0.132577  -0.000000
    52  C   -0.402775   0.000000
    53  C   -0.397052  -0.000000
    54  C   -0.334972   0.000000
    55  C   -0.187109  -0.000000
    56  C   -0.041097  -0.000000
    57  C   -0.024822  -0.000000
    58  C   -0.186153   0.000000
    59  C   -0.390279   0.000000
    60  C   -0.259743   0.000000
    61  C   -0.694779   0.000000
    62  H    0.131187   0.000000
    63  H    0.128107   0.000000
    64  H    0.127727   0.000000
    65  H    0.129871   0.000000
    66  H    0.130602  -0.000000
    67  H    0.128837  -0.000000
    68  H    0.129049  -0.000000
    69  H    0.130520  -0.000000
    70  H    0.128917  -0.000000
    71  H    0.127958  -0.000000
    72  H    0.128566  -0.000000
    73  H    0.128862  -0.000000
    74  H    0.126506  -0.000000
    75  H    0.126169  -0.000000
    76  H    0.123272   0.000000
    77  H    0.123790   0.000000
    78  H    0.131283   0.000000
    79  H    0.131173  -0.000000
    80  H    0.140119   0.000000
    81  H    0.146552   0.000000
    82  H    0.140176   0.000000
 Sum of Mulliken charges =  -2.00000  -0.00000

 Dipole moment (field-independent basis, Debye):
    X=            -63.4392    Y=             -9.4529    Z=              2.0648  Tot=             64.1728
 Quadrupole moment (field-independent basis, Debye-Ang):
   XX=           -718.4525   YY=           -276.6772   ZZ=           -248.7564
   XY=            -62.6995   XZ=             -2.1769   YZ=             -1.8962

 Normal termination of Gaussian 16 at Thu Jan 25 06:26:33 2024.
