 Q-Chem 5.4, Q-Chem, Inc., Pleasanton, CA (2021)
 Q-Chem 5.4.0 for Intel X86 EM64T Linux

User input:
--------------------------------------------------------------
$molecule
0 1
O                 -0.0157950000     -2.6924770000      0.8126190000
C                 -0.0085060000     -1.4774200000      0.7188590000
C                  1.2758040000     -0.7211770000      0.5920860000
C                  2.4238650000     -1.4202060000      0.1957420000
C                  3.6141720000     -0.7451850000     -0.0454200000
C                  3.6758050000      0.6418150000      0.1031290000
C                  2.5535140000      1.3531310000      0.5207610000
C                  1.3672190000      0.6672200000      0.7587660000
S                  0.0116560000      1.6187190000      1.5040640000
O                  0.0193920000      3.0248580000      0.9515400000
C                 -1.3577330000      0.6838910000      0.7629710000
C                 -2.5362740000      1.3842760000      0.5286020000
C                 -3.6684580000      0.6867540000      0.1144380000
C                 -3.6242750000     -0.7009010000     -0.0342800000
C                 -2.4415820000     -1.3904390000      0.2032290000
C                 -1.2838440000     -0.7055220000      0.5960300000
H                  2.3495910000     -2.4930620000      0.0668290000
H                  4.4929820000     -1.2964520000     -0.3588450000
H                  4.5990190000      1.1708790000     -0.1039250000
H                  2.5829350000      2.4291270000      0.6470240000
H                 -2.5521210000      2.4605480000      0.6549390000
H                 -4.5857670000      1.2270720000     -0.0897890000
H                 -4.5107440000     -1.2413310000     -0.3449940000
H                 -2.3808560000     -2.4641190000      0.0740780000
$end
$rem
MAX_SCF_CYCLES=200
BASIS  =  6-311++G(d,p)
GUI  =  2
JOB_TYPE  =  SP
METHOD  =  B3LYP
SOLVENT_METHOD = COSMO
$end
$solvent
dielectric 37.219
opticaldielectric 1.43
$end

--------------------------------------------------------------

             Standard Nuclear Orientation (Angstroms)
    I     Atom           X                Y                Z
 ----------------------------------------------------------------
    1      O       0.0000075133     2.7796644025     0.6443394556
    2      C       0.0000077198     1.5914988398     0.3732856310
    3      C      -1.2798453904     0.8539992160     0.1377068420
    4      C      -2.4327701868     1.5964019158    -0.1510435941
    5      C      -3.6192951621     0.9566196553    -0.4879120507
    6      C      -3.6722129420    -0.4375231831    -0.5444795922
    7      C      -2.5449496918    -1.1953653290    -0.2364586925
    8      C      -1.3625081189    -0.5443730855     0.0988875953
    9      S      -0.0000036983    -1.5864127414     0.6956334058
   10      O       0.0000122496    -2.8962686765    -0.0572589719
   11      C       1.3624981208    -0.5443746584     0.0988973805
   12      C       2.5449396368    -1.1953724059    -0.2364544631
   13      C       3.6721962528    -0.4375312688    -0.5444783290
   14      C       3.6192958710     0.9566200136    -0.4879156968
   15      C       2.4327736307     1.5964015575    -0.1510470872
   16      C       1.2798535212     0.8540032410     0.1377108734
   17      H      -2.3652595779     2.6770057308    -0.1211621970
   18      H      -4.5019426945     1.5423850820    -0.7164940937
   19      H      -4.5924906505    -0.9362600335    -0.8263566185
   20      H      -2.5675930631    -2.2784046487    -0.2694502373
   21      H       2.5675651671    -2.2784114249    -0.2694416066
   22      H       4.5924781216    -0.9362611651    -0.8263608978
   23      H       4.5019626835     1.5423495556    -0.7165098008
   24      H       2.3652815185     2.6770079087    -0.1211958102
 ----------------------------------------------------------------

    9   -1048.9850069880      4.36e-06  Convergence criterion met
 Total energy in the final basis set =    -1048.9850069880
    5   -1049.0033648701      2.51e-06  Convergence criterion met
 Total energy in the final basis set =    -1049.0033648701

                    Orbital Energies (a.u.)
 --------------------------------------------------------------

 Alpha MOs
 -- Occupied --
-88.9801 -19.1349 -19.1173 -10.2904 -10.2318 -10.2317 -10.2155 -10.2155
-10.2021 -10.2021 -10.2007 -10.2006 -10.2006 -10.2006 -10.1955 -10.1955
 -8.0568  -6.0196  -6.0181  -6.0126  -1.0715  -1.0477  -0.9013  -0.8877
 -0.8185  -0.7915  -0.7812  -0.7743  -0.7196  -0.6759  -0.6431  -0.6234
 -0.6110  -0.5728  -0.5605  -0.5163  -0.4923  -0.4917  -0.4857  -0.4676
 -0.4612  -0.4568  -0.4510  -0.4480  -0.4436  -0.4239  -0.3973  -0.3965
 -0.3803  -0.3770  -0.3769  -0.3749  -0.3165  -0.2994  -0.2885  -0.2839
 -0.2824  -0.2759  -0.2571

          Ground-State Mulliken Net Atomic Charges

     Atom                 Charge (a.u.)
  ----------------------------------------
      1 O                    -0.289947
      2 C                    -0.467734
      3 C                     1.454598
      4 C                     0.257337
      5 C                    -0.663849
      6 C                    -0.122594
      7 C                    -0.126040
      8 C                    -1.186156
      9 S                     0.188240
     10 O                    -0.511404
     11 C                    -1.191605
     12 C                    -0.125132
     13 C                    -0.122066
     14 C                    -0.663368
     15 C                     0.257738
     16 C                     1.454614
     17 H                     0.222241
     18 H                     0.226123
     19 H                     0.234889
     20 H                     0.245448
     21 H                     0.245358
     22 H                     0.234862
     23 H                     0.226188
     24 H                     0.222258
  ----------------------------------------
  Sum of atomic charges =     0.000000

                    Cartesian Multipole Moments
 -----------------------------------------------------------------
    Charge (ESU x 10^10)
                 0.0000
    Dipole Moment (Debye)
         X       0.0020      Y       1.4763      Z      -1.0951
       Tot       1.8382
    Quadrupole Moments (Debye-Ang)
        XX     -64.2730     XY       0.0009     YY    -117.1563
        XZ       0.0013     YZ      -5.7298     ZZ    -102.3131

 Total job time:  47.89s(wall), 345.78s(cpu)
        *  Thank you very much for using Q-Chem.  Have a nice day.  *
