 Gaussian 16, Revision A.03,
 Gaussian 16:  ES64L-G16RevA.03 25-Dec-2016

 ----------------------------------------------------------------
 #P UB3LYP/6-311++G(d,p) SCRF=(PCM,Solvent=n,n-DiMethylFormamide)
 ----------------------------------------------------------------

 ------------------
 Radical PCM in DMF
 ------------------
 Symbolic Z-matrix:
 Charge = -1 Multiplicity = 2

                         Standard orientation:
 ---------------------------------------------------------------------
 Center     Atomic      Atomic             Coordinates (Angstroms)
 Number     Number       Type             X           Y           Z
 ---------------------------------------------------------------------
      1          6           0       -3.394104   -1.306617    0.159925
      2          8           0       -2.788882   -0.035439    0.116589
      3          6           0       -1.420390    0.018060    0.010845
      4          6           0       -0.608615   -1.087226   -0.049596
      5          6           0        0.830846   -1.009871   -0.175838
      6          8           0        1.551853   -2.046169   -0.274240
      7          6           0        1.372111    0.342139   -0.192562
      8          6           0        0.558874    1.445547   -0.133011
      9          6           0       -0.878057    1.379701   -0.034904
     10          8           0       -1.610664    2.403004    0.018294
     11          8           0        2.732346    0.548505   -0.360422
     12          6           0        3.577450   -0.072969    0.605174
     13          1           0       -4.467907   -1.128832    0.243627
     14          1           0       -3.055466   -1.891775    1.025527
     15          1           0       -3.193026   -1.886780   -0.750581
     16          1           0       -1.007794   -2.094052   -0.027603
     17          1           0        1.001810    2.435310   -0.167429
     18          1           0        3.376073    0.330823    1.607785
     19          1           0        3.438126   -1.155344    0.606032
     20          1           0        4.602280    0.178857    0.320680
 ---------------------------------------------------------------------

 SCF Done:  E(UB3LYP) =  -610.835860369     A.U. after   19 cycles

 The electronic state is 2-A.
 Alpha  occ. eigenvalues --  -19.15463 -19.13785 -19.07776 -19.07585 -10.22727
 Alpha  occ. eigenvalues --  -10.22355 -10.22345 -10.21842 -10.21695 -10.20480
 Alpha  occ. eigenvalues --  -10.15804 -10.15788  -1.06980  -1.05077  -0.99828
 Alpha  occ. eigenvalues --   -0.99400  -0.82177  -0.75324  -0.71476  -0.69340
 Alpha  occ. eigenvalues --   -0.65330  -0.59792  -0.56939  -0.51386  -0.50464
 Alpha  occ. eigenvalues --   -0.49345  -0.47013  -0.45625  -0.44372  -0.43893
 Alpha  occ. eigenvalues --   -0.41293  -0.41050  -0.40560  -0.40234  -0.37804
 Alpha  occ. eigenvalues --   -0.37353  -0.34974  -0.33834  -0.33213  -0.29785
 Alpha  occ. eigenvalues --   -0.26643  -0.24430  -0.23921  -0.22881  -0.15821
 Alpha virt. eigenvalues --   -0.00191   0.00157   0.00695   0.01512   0.02498
 Alpha virt. eigenvalues --    0.03023   0.03161   0.03728   0.04251   0.04484
 Alpha virt. eigenvalues --    0.05182   0.06275   0.07017   0.07553   0.08256

  Beta  occ. eigenvalues --  -19.15377 -19.13748 -19.07099 -19.06946 -10.22565
  Beta  occ. eigenvalues --  -10.22185 -10.22177 -10.21699 -10.21643 -10.20472
  Beta  occ. eigenvalues --  -10.15809 -10.15747  -1.06779  -1.04913  -0.98653
  Beta  occ. eigenvalues --   -0.98295  -0.81597  -0.75102  -0.71255  -0.68966
  Beta  occ. eigenvalues --   -0.64680  -0.59440  -0.56627  -0.51226  -0.50260
  Beta  occ. eigenvalues --   -0.49053  -0.46654  -0.45289  -0.44256  -0.43683
  Beta  occ. eigenvalues --   -0.40988  -0.40597  -0.40036  -0.38824  -0.37363
  Beta  occ. eigenvalues --   -0.35216  -0.34532  -0.33662  -0.32088  -0.29207
  Beta  occ. eigenvalues --   -0.24155  -0.23754  -0.23321  -0.22236
  Beta virt. eigenvalues --   -0.08663  -0.00151   0.00690   0.01462   0.01569
  Beta virt. eigenvalues --    0.02698   0.03099   0.03431   0.04245   0.04514
  Beta virt. eigenvalues --    0.05199   0.05848   0.06316   0.07064   0.07635

 Mulliken charges and spin densities:
               1          2
     1  C   -0.300119  -0.000296
     2  O   -0.206674   0.018675
     3  C   -0.261199   0.169447
     4  C    0.656014  -0.018038
     5  C   -0.438112   0.091082
     6  O   -0.504228   0.229679
     7  C   -0.307683   0.154219
     8  C    0.714379   0.022508
     9  C   -0.696085   0.079885
    10  O   -0.514246   0.245631
    11  O   -0.231590   0.004381
    12  C   -0.289184   0.007415
    13  H    0.191053  -0.000199
    14  H    0.156646   0.001766
    15  H    0.156503   0.001759
    16  H    0.213320  -0.002832
    17  H    0.206957  -0.005526
    18  H    0.130662   0.000605
    19  H    0.176069  -0.001385
    20  H    0.147514   0.001224
 Sum of Mulliken charges =  -1.00000   1.00000

 Dipole moment (field-independent basis, Debye):
    X=             -0.3244    Y=             -3.6051    Z=              1.9754  Tot=              4.1236
 Quadrupole moment (field-independent basis, Debye-Ang):
   XX=            -82.4811   YY=            -98.5195   ZZ=            -74.3402
   XY=             23.0521   XZ=              5.4990   YZ=             -1.6809

 Normal termination of Gaussian 16 at Wed Jan 24 22:50:13 2024.
