 Q-Chem 5.4, Q-Chem, Inc., Pleasanton, CA (2021)
 Q-Chem 5.4.0 for Intel X86 EM64T Linux

User input:
--------------------------------------------------------------
$molecule
-2 1
C                  2.5253330000     -0.8927360000     -0.1340740000
C                  1.2172920000     -0.1562900000     -0.0000950000
C                  1.1492730000      1.2041670000      0.3193880000
Cl                 2.7171350000      2.0896070000      0.5762120000
C                 -0.0242500000      2.0149940000      0.4751920000
O                 -0.0392520000      3.2612460000      0.7690540000
C                 -1.1781040000      1.1934700000      0.2460850000
C                 -1.2133610000     -0.1674760000     -0.0766580000
C                 -2.5035780000     -0.9158550000     -0.2925160000
C                  0.0109590000     -0.9109740000     -0.2149750000
O                  0.0262370000     -2.1815690000     -0.5142520000
Cl                -2.7670940000      2.0644510000      0.4033670000
H                  3.1144520000     -0.8694210000      0.7944930000
H                  2.2918960000     -1.9297870000     -0.3873800000
H                  3.1679500000     -0.4631280000     -0.9164890000
H                 -3.1508010000     -0.8969280000      0.5966030000
H                 -3.0988730000     -0.4928020000     -1.1149410000
H                 -2.2452140000     -1.9509690000     -0.5290140000
$end
$rem
MAX_SCF_CYCLES=200
BASIS  =  6-311++G(d,p)
GUI  =  2
JOB_TYPE  =  SP
METHOD  =  B3LYP
SOLVENT_METHOD = PCM
$end
$pcm
theory = CPCM
$end
$solvent
dielectric 37.219
opticaldielectric 1.43
$end

--------------------------------------------------------------

             Standard Nuclear Orientation (Angstroms)
    I     Atom           X                Y                Z
 ----------------------------------------------------------------
    1      C       2.5253330000    -0.8927360000    -0.1340740000
    2      C       1.2172920000    -0.1562900000    -0.0000950000
    3      C       1.1492730000     1.2041670000     0.3193880000
    4      Cl      2.7171350000     2.0896070000     0.5762120000
    5      C      -0.0242500000     2.0149940000     0.4751920000
    6      O      -0.0392520000     3.2612460000     0.7690540000
    7      C      -1.1781040000     1.1934700000     0.2460850000
    8      C      -1.2133610000    -0.1674760000    -0.0766580000
    9      C      -2.5035780000    -0.9158550000    -0.2925160000
   10      C       0.0109590000    -0.9109740000    -0.2149750000
   11      O       0.0262370000    -2.1815690000    -0.5142520000
   12      Cl     -2.7670940000     2.0644510000     0.4033670000
   13      H       3.1144520000    -0.8694210000     0.7944930000
   14      H       2.2918960000    -1.9297870000    -0.3873800000
   15      H       3.1679500000    -0.4631280000    -0.9164890000
   16      H      -3.1508010000    -0.8969280000     0.5966030000
   17      H      -3.0988730000    -0.4928020000    -1.1149410000
   18      H      -2.2452140000    -1.9509690000    -0.5290140000
 ----------------------------------------------------------------

    9   -1379.7446849610      5.38e-06  Convergence criterion met
 Total energy in the final basis set =    -1379.7446849610

                    Orbital Energies (a.u.)
 --------------------------------------------------------------

 Alpha MOs
 -- Occupied --
********-101.5258 -19.0294 -19.0196 -10.1927 -10.1879 -10.1879 -10.1777
-10.1444 -10.1444 -10.1404 -10.1403  -9.4402  -9.4402  -7.2040  -7.2039
 -7.1957  -7.1957  -7.1950  -7.1950  -0.9517  -0.9321  -0.8390  -0.8307
 -0.7717  -0.7375  -0.6994  -0.6333  -0.6313  -0.5325  -0.5284  -0.4738
 -0.4310  -0.4095  -0.3979  -0.3916  -0.3859  -0.3778  -0.3693  -0.3638
 -0.3618  -0.3304  -0.3254  -0.3249  -0.3183  -0.2984  -0.2957  -0.2874
 -0.2307  -0.2139  -0.2054  -0.2015  -0.1282

          Ground-State Mulliken Net Atomic Charges

     Atom                 Charge (a.u.)
  ----------------------------------------
      1 C                    -0.686101
      2 C                     0.564868
      3 C                     0.113722
      4 Cl                    0.275620
      5 C                    -1.040208
      6 O                    -0.629542
      7 C                     0.116243
      8 C                     0.564623
      9 C                    -0.684145
     10 C                    -1.070992
     11 O                    -0.710144
     12 Cl                    0.275590
     13 H                     0.147765
     14 H                     0.159956
     15 H                     0.147605
     16 H                     0.147503
     17 H                     0.147750
     18 H                     0.159886
  ----------------------------------------
  Sum of atomic charges =    -2.000000

                    Cartesian Multipole Moments
 -----------------------------------------------------------------
    Charge (ESU x 10^10)
                -9.6064
    Dipole Moment (Debye)
         X       0.1020      Y      -8.6625      Z      -2.0438
       Tot       8.9009
    Quadrupole Moments (Debye-Ang)
        XX    -110.0012     XY       0.7317     YY    -160.2702
        XZ      -0.3661     YZ     -16.0327     ZZ     -96.1022

 Total job time:  22.73s(wall), 148.16s(cpu)
        *  Thank you very much for using Q-Chem.  Have a nice day.  *
