 Q-Chem 5.4, Q-Chem, Inc., Pleasanton, CA (2021)
 Q-Chem 5.4.0 for Intel X86 EM64T Linux

User input:
--------------------------------------------------------------
$molecule
-2 1
C                 -3.0648920000      3.5806660000      1.0167040000
C                 -3.9836360000      2.9774600000      1.8495420000
C                 -3.8333110000      1.6043910000      2.1882780000
C                 -1.9562000000      2.8769560000      0.4775570000
C                 -1.8036100000      1.4852210000      0.8248010000
C                 -2.7665950000      0.8927240000      1.6808030000
C                 -1.0401120000      3.5875350000     -0.3956160000
C                  0.0699140000      2.8007010000     -0.8805130000
C                  0.2126520000      1.3799650000     -0.5425810000
C                 -0.7120050000      0.6785890000      0.3209550000
C                  1.0914630000      3.3250920000     -1.7326550000
C                  2.1213490000      2.5757180000     -2.2510430000
C                  2.2215470000      1.1941080000     -1.9309320000
C                  1.2872610000      0.6358250000     -1.0901890000
O                 -1.2414210000      4.8239860000     -0.6955110000
O                 -0.5827000000     -0.5636230000      0.6151660000
H                 -2.6200860000     -0.1567230000      1.9165750000
H                  1.3272570000     -0.4114860000     -0.8090600000
H                 -3.1515510000      4.6259840000      0.7389900000
O                  1.0730740000      4.6723780000     -2.1518800000
H                  3.0331420000      0.5989080000     -2.3423160000
H                 -4.5554190000      1.1212020000      2.8440370000
C                  1.5453220000      5.6363710000     -1.3298950000
C                  1.3621250000      6.9737080000     -1.7493650000
C                  2.2521340000      5.3889470000     -0.1499670000
C                  2.7939880000      6.4433120000      0.5859400000
C                  1.9248400000      8.0125170000     -1.0149770000
C                  2.6491350000      7.7589370000      0.1531550000
O                  0.6960820000      7.2698050000     -2.9149390000
C                 -0.7046170000      6.9061500000     -2.9329150000
H                 -4.8200630000      3.5489160000      2.2479070000
H                  2.8431650000      3.0651180000     -2.8971270000
H                  2.3668440000      4.3641450000      0.1786380000
H                  3.3343050000      6.2265510000      1.5027820000
H                  1.7749890000      9.0255090000     -1.3754820000
H                  3.0781470000      8.5809790000      0.7189370000
H                 -0.9477070000      6.6561670000     -3.9688260000
H                 -1.2960500000      7.7780800000     -2.6214750000
H                 -0.9187710000      6.0597810000     -2.2698520000
$end

$rem
BASIS  =  6-311++G(d,p)
GUI  =  2
JOB_TYPE  =  SP
METHOD  =  B3LYP
SCF_CONVERGENCE  = 8
SOLVENT_METHOD = sm12
$end

$smx
solvent dimethylformamide
charges CM5
$end

--------------------------------------------------------------

             Standard Nuclear Orientation (Angstroms)
    I     Atom           X                Y                Z
 ----------------------------------------------------------------
    1      C      -3.0648920000     3.5806660000     1.0167040000
    2      C      -3.9836360000     2.9774600000     1.8495420000
    3      C      -3.8333110000     1.6043910000     2.1882780000
    4      C      -1.9562000000     2.8769560000     0.4775570000
    5      C      -1.8036100000     1.4852210000     0.8248010000
    6      C      -2.7665950000     0.8927240000     1.6808030000
    7      C      -1.0401120000     3.5875350000    -0.3956160000
    8      C       0.0699140000     2.8007010000    -0.8805130000
    9      C       0.2126520000     1.3799650000    -0.5425810000
   10      C      -0.7120050000     0.6785890000     0.3209550000
   11      C       1.0914630000     3.3250920000    -1.7326550000
   12      C       2.1213490000     2.5757180000    -2.2510430000
   13      C       2.2215470000     1.1941080000    -1.9309320000
   14      C       1.2872610000     0.6358250000    -1.0901890000
   15      O      -1.2414210000     4.8239860000    -0.6955110000
   16      O      -0.5827000000    -0.5636230000     0.6151660000
   17      H      -2.6200860000    -0.1567230000     1.9165750000
   18      H       1.3272570000    -0.4114860000    -0.8090600000
   19      H      -3.1515510000     4.6259840000     0.7389900000
   20      O       1.0730740000     4.6723780000    -2.1518800000
   21      H       3.0331420000     0.5989080000    -2.3423160000
   22      H      -4.5554190000     1.1212020000     2.8440370000
   23      C       1.5453220000     5.6363710000    -1.3298950000
   24      C       1.3621250000     6.9737080000    -1.7493650000
   25      C       2.2521340000     5.3889470000    -0.1499670000
   26      C       2.7939880000     6.4433120000     0.5859400000
   27      C       1.9248400000     8.0125170000    -1.0149770000
   28      C       2.6491350000     7.7589370000     0.1531550000
   29      O       0.6960820000     7.2698050000    -2.9149390000
   30      C      -0.7046170000     6.9061500000    -2.9329150000
   31      H      -4.8200630000     3.5489160000     2.2479070000
   32      H       2.8431650000     3.0651180000    -2.8971270000
   33      H       2.3668440000     4.3641450000     0.1786380000
   34      H       3.3343050000     6.2265510000     1.5027820000
   35      H       1.7749890000     9.0255090000    -1.3754820000
   36      H       3.0781470000     8.5809790000     0.7189370000
   37      H      -0.9477070000     6.6561670000    -3.9688260000
   38      H      -1.2960500000     7.7780800000    -2.6214750000
   39      H      -0.9187710000     6.0597810000    -2.2698520000
 ----------------------------------------------------------------

   18   -1109.8211994299      6.36e-09  Convergence criterion met
 Total energy in the final basis set =    -1110.0859011977

                    Orbital Energies (a.u.)
 --------------------------------------------------------------

 Alpha MOs
 -- Occupied --
-19.1566 -19.1373 -19.0277 -19.0248 -10.2400 -10.2294 -10.2288 -10.1982
-10.1916 -10.1872 -10.1801 -10.1785 -10.1772 -10.1764 -10.1731 -10.1722
-10.1703 -10.1679 -10.1672 -10.1671 -10.1631 -10.1620 -10.1544 -10.1542
-10.1537  -1.0803  -1.0444  -0.9476  -0.9442  -0.8583  -0.8447  -0.8401
 -0.7719  -0.7628  -0.7547  -0.7422  -0.7276  -0.7264  -0.6799  -0.6564
 -0.6411  -0.6211  -0.6110  -0.5994  -0.5748  -0.5563  -0.5347  -0.5227
 -0.5153  -0.4950  -0.4900  -0.4690  -0.4653  -0.4586  -0.4542  -0.4468
 -0.4447  -0.4412  -0.4266  -0.4195  -0.4097  -0.4034  -0.3937  -0.3903
 -0.3846  -0.3831  -0.3743  -0.3693  -0.3639  -0.3531  -0.3489  -0.3437
 -0.3362  -0.3323  -0.3270  -0.3173  -0.3138  -0.2832  -0.2519  -0.2497
 -0.2387  -0.2369  -0.2342  -0.2217  -0.2071  -0.1995  -0.1177

          Ground-State Mulliken Net Atomic Charges

     Atom                 Charge (a.u.)
  ----------------------------------------
      1 C                    -0.381609
      2 C                     1.446063
      3 C                     1.521566
      4 C                    -1.182771
      5 C                    -1.602801
      6 C                    -0.502964
      7 C                    -2.078393
      8 C                    -0.557671
      9 C                    -0.998060
     10 C                    -3.329364
     11 C                    -0.671084
     12 C                     2.560217
     13 C                     1.410264
     14 C                    -0.058476
     15 O                    -0.223198
     16 O                    -0.349036
     17 H                     0.118101
     18 H                     0.121882
     19 H                     0.092987
     20 O                    -0.055777
     21 H                     0.398724
     22 H                     0.385092
     23 C                    -1.585207
     24 C                    -0.317395
     25 C                    -2.136019
     26 C                     0.691181
     27 C                     1.704329
     28 C                     1.513386
     29 O                    -0.055369
     30 C                    -0.065250
     31 H                     0.387985
     32 H                     0.335546
     33 H                    -0.026848
     34 H                     0.331801
     35 H                     0.322154
     36 H                     0.413741
     37 H                     0.162406
     38 H                     0.153167
     39 H                     0.106699
  ----------------------------------------
  Sum of atomic charges =    -2.000000

                    Cartesian Multipole Moments
 -----------------------------------------------------------------
    Charge (ESU x 10^10)
                -9.6064
    Dipole Moment (Debye)
         X       5.8449      Y     -24.1707      Z       2.3131
       Tot      24.9747
    Quadrupole Moments (Debye-Ang)
        XX    -188.4680     XY       4.6872     YY    -283.8798
        XZ      16.9932     YZ      27.8458     ZZ    -177.2299

 Total job time:  2035.94s(wall), 15390.63s(cpu)
        *  Thank you very much for using Q-Chem.  Have a nice day.  *
