 Q-Chem 5.4, Q-Chem, Inc., Pleasanton, CA (2021)
 Q-Chem 5.4.0 for Intel X86 EM64T Linux

User input:
--------------------------------------------------------------
$molecule
0 1
C                  1.1241880000      1.4028480000     -2.7365170000
C                 -0.2524980000      1.6904950000     -3.2062890000
C                 -1.2200420000      0.7733210000     -3.1051770000
C                 -0.9552150000     -0.5637810000     -2.5218240000
C                  0.4253680000     -0.8693250000     -2.0183970000
O                  2.0077250000      2.2381940000     -2.8400720000
O                 -1.8435030000     -1.3972500000     -2.4555060000
H                 -0.4131300000      2.6771290000     -3.6266950000
C                  1.3922690000      0.0660360000     -2.1341400000
C                  2.7908200000     -0.1311270000     -1.5718090000
C                  3.8973390000     -0.4992540000     -2.4959640000
C                  5.2023830000     -0.5692080000     -1.9867450000
C                  3.6692580000     -0.7867580000     -3.8472530000
C                  6.2581950000     -0.9189960000     -2.8176720000
C                  6.0225400000     -1.2066500000     -4.1643610000
C                  4.7285530000     -1.1417870000     -4.6778880000
O                  2.9572260000      0.0140840000     -0.3766470000
C                  0.6153030000     -2.2272880000     -1.4124680000
H                  5.3636890000     -0.3417530000     -0.9401590000
H                  2.6649590000     -0.7375810000     -4.2513730000
H                  7.2660070000     -0.9673140000     -2.4214850000
H                  6.8482420000     -1.4795660000     -4.8119970000
H                  4.5459560000     -1.3646690000     -5.7227050000
H                 -2.2366350000      0.9486070000     -3.4393500000
H                 -0.0004780000     -2.3238690000     -0.5134110000
H                  1.6530480000     -2.4137270000     -1.1416040000
H                  0.2728430000     -3.0016110000     -2.1033690000
$end
$rem
MAX_SCF_CYCLES=200
BASIS  =  6-311++G(d,p)
GUI  =  2
JOB_TYPE  =  SP
METHOD  =  B3LYP
SOLVENT_METHOD = COSMO
$end
$solvent
dielectric 37.219
opticaldielectric 1.43
$end

--------------------------------------------------------------

             Standard Nuclear Orientation (Angstroms)
    I     Atom           X                Y                Z
 ----------------------------------------------------------------
    1      C      -1.1953006405    -1.5133295474    -0.3828872212
    2      C      -2.5361641935    -1.8757227143     0.1361956199
    3      C      -3.3901896254    -0.9352606447     0.5530227210
    4      C      -3.0309948949     0.5026873156     0.5135179086
    5      C      -1.6878396360     0.8948615456    -0.0295646118
    6      O      -0.4139157990    -2.3747221921    -0.7524878829
    7      O      -3.8131687476     1.3474763553     0.9168289109
    8      H      -2.7680158812    -2.9349752010     0.1510097532
    9      C      -0.8350391985    -0.0680908208    -0.4402327747
   10      C       0.5061329149     0.2482860754    -1.0822587270
   11      C       1.7447321161     0.1324977122    -0.2659075016
   12      C       2.9840855670     0.3175794354    -0.8960544474
   13      C       1.7044328200    -0.1425945482     1.1064487456
   14      C       4.1601096000     0.2265415781    -0.1637909115
   15      C       4.1118481010    -0.0460325723     1.2055970999
   16      C       2.8844974097    -0.2289730789     1.8399964978
   17      O       0.5201993461     0.5932355303    -2.2475919012
   18      C      -1.4024808134     2.3659917955    -0.0699984696
   19      H       2.9995805911     0.5273073161    -1.9585382253
   20      H       0.7526094932    -0.2857892641     1.6043196737
   21      H       5.1161725037     0.3654807993    -0.6553429560
   22      H       5.0312418721    -0.1169129942     1.7760270991
   23      H       2.8472493541    -0.4407285956     2.9022736731
   24      H      -4.3772251676    -1.1638726379     0.9394881118
   25      H      -2.0977340125     2.8620138474    -0.7536670531
   26      H      -0.3862110732     2.5774936569    -0.3978769075
   27      H      -1.5695632353     2.8114163369     0.9138102485
 ----------------------------------------------------------------

    9    -765.3576580637      6.45e-06  Convergence criterion met
 Total energy in the final basis set =     -765.3576580637
    5    -765.3778124359      5.41e-06  Convergence criterion met
 Total energy in the final basis set =     -765.3778124359

                    Orbital Energies (a.u.)
 --------------------------------------------------------------

 Alpha MOs
 -- Occupied --
-19.1504 -19.1499 -19.1409 -10.2966 -10.2936 -10.2924 -10.2317 -10.2221
-10.2149 -10.2140 -10.2013 -10.1972 -10.1933 -10.1929 -10.1888 -10.1885
-10.1802  -1.0840  -1.0806  -1.0744  -0.8806  -0.8739  -0.8185  -0.7828
 -0.7660  -0.7445  -0.6989  -0.6736  -0.6342  -0.6196  -0.6053  -0.5714
 -0.5404  -0.5370  -0.5093  -0.4954  -0.4798  -0.4775  -0.4663  -0.4562
 -0.4505  -0.4496  -0.4412  -0.4388  -0.4323  -0.4261  -0.4123  -0.4094
 -0.3965  -0.3794  -0.3754  -0.3596  -0.3183  -0.3077  -0.3013  -0.2943
 -0.2778  -0.2742  -0.2728

          Ground-State Mulliken Net Atomic Charges

     Atom                 Charge (a.u.)
  ----------------------------------------
      1 C                    -0.301740
      2 C                    -0.223059
      3 C                     0.142384
      4 C                    -0.352675
      5 C                     0.035615
      6 O                    -0.292168
      7 O                    -0.295944
      8 H                     0.264150
      9 C                     1.024926
     10 C                    -0.198052
     11 C                     0.599215
     12 C                     0.414043
     13 C                    -0.858031
     14 C                    -0.470945
     15 C                    -0.325698
     16 C                    -0.211831
     17 O                    -0.280359
     18 C                    -0.616965
     19 H                     0.237123
     20 H                     0.174892
     21 H                     0.224837
     22 H                     0.206987
     23 H                     0.241713
     24 H                     0.270187
     25 H                     0.216707
     26 H                     0.165535
     27 H                     0.209154
  ----------------------------------------
  Sum of atomic charges =     0.000000

                    Cartesian Multipole Moments
 -----------------------------------------------------------------
    Charge (ESU x 10^10)
                 0.0000
    Dipole Moment (Debye)
         X       1.3315      Y      -0.0815      Z       4.3557
       Tot       4.5554
    Quadrupole Moments (Debye-Ang)
        XX     -84.4792     XY      12.5315     YY    -103.1070
        XZ       6.5158     YZ      -5.2626     ZZ    -102.2544

 Total job time:  50.42s(wall), 370.65s(cpu)
        *  Thank you very much for using Q-Chem.  Have a nice day.  *
