 Q-Chem 5.4, Q-Chem, Inc., Pleasanton, CA (2021)
 Q-Chem 5.4.0 for Intel X86 EM64T Linux

User input:
--------------------------------------------------------------
$molecule
-2 1
C                 -0.3203160000     -2.0017840000      0.9649850000
C                 -0.2328230000     -0.9517070000     -0.1773270000
C                 -0.5587480000     -1.6511280000     -1.5291040000
C                 -1.2792560000      0.1420000000      0.0992990000
C                 -2.6356920000     -0.1880850000      0.0898600000
C                 -3.6392300000      0.7473890000      0.3787210000
C                 -3.2687630000      2.0695780000      0.6538410000
C                 -1.9317800000      2.4280610000      0.6629410000
C                 -0.9031620000      1.4751450000      0.4214790000
C                  0.4841210000      1.9168950000      0.4766250000
O                  0.7858030000      3.1172360000      0.7637360000
C                  1.5057260000      0.9427810000      0.1159090000
C                  2.8619510000      1.3686930000      0.0548850000
C                  3.8850630000      0.4885250000     -0.2527370000
C                  3.5961540000     -0.8518610000     -0.5373510000
C                  2.2578970000     -1.2698170000     -0.5293790000
C                  1.2059790000     -0.4073380000     -0.2154860000
H                  0.3939670000     -2.8147680000      0.8063800000
H                 -1.3233110000     -2.4338500000      1.0248850000
H                 -0.0933960000     -1.5295550000      1.9252420000
H                 -1.5638150000     -2.0847060000     -1.5235390000
H                 -0.5038850000     -0.9338360000     -2.3520670000
H                  0.1443630000     -2.4632280000     -1.7395660000
H                 -2.9378340000     -1.2063200000     -0.1366030000
H                 -4.6838270000      0.4475280000      0.3738830000
H                 -4.0350830000      2.8149270000      0.8607100000
H                 -1.6171040000      3.4456260000      0.8639650000
H                  3.0557990000      2.4130510000      0.2707670000
H                  4.9165690000      0.8365640000     -0.2739320000
H                  4.3878220000     -1.5577010000     -0.7743730000
H                  2.0468100000     -2.3083150000     -0.7666530000
$end
$rem
MAX_SCF_CYCLES=200
BASIS  =  6-311++G(d,p)
GUI  =  2
JOB_TYPE  =  SP
METHOD  =  B3LYP
SOLVENT_METHOD = COSMO
$end
$solvent
dielectric 37.219
opticaldielectric 1.43
$end

--------------------------------------------------------------

             Standard Nuclear Orientation (Angstroms)
    I     Atom           X                Y                Z
 ----------------------------------------------------------------
    1      C      -0.0001883079     2.1619493788    -1.3753066152
    2      C      -0.0000642844     1.3787426063    -0.0330024125
    3      C      -0.0001835707     2.3977738968     1.1435574514
    4      C      -1.2822984720     0.5299905076     0.0238687787
    5      C      -2.5249109241     1.1654705466     0.0561679735
    6      C      -3.7331924587     0.4543706122     0.0619486046
    7      C      -3.6911185965    -0.9453765480     0.0695802402
    8      C      -2.4733972294    -1.6031692590     0.0455004790
    9      C      -1.2428947616    -0.8911624858    -0.0121000589
   10      C       0.0000855383    -1.6493724115    -0.0655411333
   11      O       0.0001257605    -2.9196259851    -0.0923577131
   12      C       1.2429704130    -0.8910668484    -0.0116824771
   13      C       2.4735057295    -1.6030296443     0.0463091001
   14      C       3.6912142694    -0.9452206816     0.0699406118
   15      C       3.7332370652     0.4545186789     0.0614567657
   16      C       2.5249221306     1.1655896547     0.0554855782
   17      C       1.2823174501     0.5300888706     0.0238204407
   18      H       0.8855677082     2.7981835615    -1.4586197539
   19      H      -0.8869683114     2.7966489517    -1.4592451990
   20      H       0.0007045483     1.4625306054    -2.2163767687
   21      H      -0.8819779201     3.0455660417     1.1121793029
   22      H       0.0003880907     1.8727029836     2.1022472190
   23      H       0.8809223936     3.0464626622     1.1116058145
   24      H      -2.5718410691     2.2504059880     0.0656781458
   25      H      -4.6806531689     0.9866250574     0.0740451431
   26      H      -4.6187412561    -1.5150145580     0.0943793615
   27      H      -2.4110547710    -2.6851969938     0.0596271132
   28      H       2.4111973819    -2.6850512521     0.0608908439
   29      H       4.6188669649    -1.5147945892     0.0950611572
   30      H       4.6806635031     0.9868486120     0.0731076562
   31      H       2.5718958771     2.2505095667     0.0642617074
 ----------------------------------------------------------------

   16    -693.4751305772      6.32e-06  Convergence criterion met
 Total energy in the final basis set =     -693.4751305772
    6    -693.7252604963      6.48e-06  Convergence criterion met
 Total energy in the final basis set =     -693.7252604963

                    Orbital Energies (a.u.)
 --------------------------------------------------------------

 Alpha MOs
 -- Occupied --
-19.0055 -10.1684 -10.1400 -10.1397 -10.1394 -10.1394 -10.1390 -10.1390
-10.1381 -10.1338 -10.1338 -10.1238 -10.1238 -10.1230 -10.1230 -10.1192
-10.1192  -0.9297  -0.8322  -0.8098  -0.7769  -0.7212  -0.7089  -0.6969
 -0.6909  -0.6675  -0.6026  -0.5961  -0.5711  -0.5508  -0.5223  -0.4971
 -0.4870  -0.4460  -0.4243  -0.4243  -0.4147  -0.4089  -0.4027  -0.4000
 -0.3839  -0.3770  -0.3650  -0.3571  -0.3520  -0.3498  -0.3397  -0.3266
 -0.3262  -0.3232  -0.3106  -0.2973  -0.2838  -0.2775  -0.2208  -0.2168
 -0.2116  -0.2108  -0.1867  -0.0678

          Ground-State Mulliken Net Atomic Charges

     Atom                 Charge (a.u.)
  ----------------------------------------
      1 C                    -0.809253
      2 C                     0.348454
      3 C                    -0.785109
      4 C                     0.001187
      5 C                    -0.266664
      6 C                    -0.557754
      7 C                    -0.574043
      8 C                    -0.298054
      9 C                     0.751384
     10 C                    -0.107477
     11 O                    -0.781732
     12 C                     0.752658
     13 C                    -0.297727
     14 C                    -0.574544
     15 C                    -0.557003
     16 C                    -0.266709
     17 C                    -0.000485
     18 H                     0.139460
     19 H                     0.139647
     20 H                     0.154170
     21 H                     0.133261
     22 H                     0.161870
     23 H                     0.133478
     24 H                     0.115433
     25 H                     0.155767
     26 H                     0.155419
     27 H                     0.153935
     28 H                     0.153868
     29 H                     0.155355
     30 H                     0.155751
     31 H                     0.115454
  ----------------------------------------
  Sum of atomic charges =    -2.000000

                    Cartesian Multipole Moments
 -----------------------------------------------------------------
    Charge (ESU x 10^10)
                -9.6064
    Dipole Moment (Debye)
         X       0.0037      Y      13.7353      Z       0.0640
       Tot      13.7354
    Quadrupole Moments (Debye-Ang)
        XX    -154.1016     XY      -0.0047     YY    -149.7848
        XZ      -0.0087     YZ      -1.0352     ZZ    -119.4374

 Total job time:  101.02s(wall), 784.57s(cpu)
        *  Thank you very much for using Q-Chem.  Have a nice day.  *
