 Gaussian 16, Revision A.03,
 Gaussian 16:  ES64L-G16RevA.03 25-Dec-2016

 --------------------------------------
 #P UB3LYP/6-311++G(d,p) nosym opt freq
 --------------------------------------

 --------
 Oxidized
 --------
 Symbolic Z-matrix:
 Charge =  0 Multiplicity = 1

 SCF Done:  E(UB3LYP) =  -613.910134168     A.U. after   15 cycles
 SCF Done:  E(UB3LYP) =  -613.912228904     A.U. after   12 cycles
 SCF Done:  E(UB3LYP) =  -613.912350520     A.U. after   12 cycles
 SCF Done:  E(UB3LYP) =  -613.912362193     A.U. after   10 cycles
 SCF Done:  E(UB3LYP) =  -613.912366291     A.U. after   10 cycles
 Optimization completed.
    -- Stationary point found.
 Normal termination of Gaussian 16 at Tue Dec 26 20:11:50 2023.

 ----------------------------------------------------------------------
 #P Geom=AllCheck Guess=TCheck SCRF=Check GenChk UB3LYP/6-311++G(d,p) F
 req
 ----------------------------------------------------------------------

 Structure from the checkpoint file:  "244.chk"
 --------
 Oxidized
 --------
 Charge =  0 Multiplicity = 1

                          Input orientation:
 ---------------------------------------------------------------------
 Center     Atomic      Atomic             Coordinates (Angstroms)
 Number     Number       Type             X           Y           Z
 ---------------------------------------------------------------------
      1          6           0        5.747593   -5.331673    1.233435
      2          6           0        6.691173   -5.169653    0.210280
      3          6           0        6.596615   -4.152770   -0.733916
      4          6           0        4.668581   -4.415638    1.287466
      5          6           0        4.580164   -3.385777    0.324530
      6          6           0        5.537666   -3.256035   -0.678521
      7          6           0        3.616480   -4.512068    2.342776
      8          6           0        2.494610   -3.508676    2.347752
      9          6           0        2.448440   -2.544202    1.412521
     10          6           0        3.455661   -2.402171    0.351276
     11          8           0        3.636800   -5.378972    3.204016
     12          8           0        3.365837   -1.505369   -0.475000
     13          6           0        5.946886   -6.469071    2.204531
     14          1           0        7.521598   -5.865602    0.159467
     15          6           0        1.454501   -3.639250    3.427747
     16          1           0        1.650593   -1.807806    1.392957
     17          1           0        5.431234   -2.452279   -1.396042
     18          1           0        7.348819   -4.063058   -1.509559
     19          1           0        6.850659   -7.023182    1.943380
     20          1           0        5.098122   -7.155593    2.201341
     21          1           0        6.036223   -6.111232    3.231998
     22          1           0        1.676684   -4.484006    4.076896
     23          1           0        0.462935   -3.783814    2.990115
     24          1           0        1.415764   -2.730690    4.034953
 ---------------------------------------------------------------------

 SCF Done:  E(UB3LYP) =  -613.912366291     A.U. after    1 cycles

 Alpha  occ. eigenvalues --  -19.13202 -19.12590 -10.28265 -10.27549 -10.22130
 Alpha  occ. eigenvalues --  -10.21455 -10.21059 -10.20719 -10.20240 -10.20047
 Alpha  occ. eigenvalues --  -10.19724 -10.19530 -10.18049 -10.17320  -1.06619
 Alpha  occ. eigenvalues --   -1.05748  -0.89179  -0.84869  -0.79818  -0.78694
 Alpha  occ. eigenvalues --   -0.73083  -0.71331  -0.67602  -0.64330  -0.62271
 Alpha  occ. eigenvalues --   -0.57054  -0.54438  -0.52892  -0.50118  -0.48185
 Alpha  occ. eigenvalues --   -0.46551  -0.46167  -0.45257  -0.43318  -0.43246
 Alpha  occ. eigenvalues --   -0.42984  -0.42152  -0.41703  -0.40365  -0.39873
 Alpha  occ. eigenvalues --   -0.39231  -0.37818  -0.37094  -0.36882  -0.29601
 Alpha  occ. eigenvalues --   -0.28135  -0.28006  -0.26985  -0.26916
 Alpha virt. eigenvalues --   -0.12252  -0.05328  -0.03729  -0.01111  -0.00414
 Alpha virt. eigenvalues --    0.00641   0.01877   0.02225   0.02283   0.02624
 Alpha virt. eigenvalues --    0.03526   0.04088   0.04307   0.05131   0.05506

  Beta  occ. eigenvalues --  -19.13202 -19.12590 -10.28265 -10.27549 -10.22130
  Beta  occ. eigenvalues --  -10.21455 -10.21059 -10.20719 -10.20240 -10.20047
  Beta  occ. eigenvalues --  -10.19724 -10.19530 -10.18049 -10.17320  -1.06619
  Beta  occ. eigenvalues --   -1.05748  -0.89179  -0.84869  -0.79818  -0.78694
  Beta  occ. eigenvalues --   -0.73083  -0.71331  -0.67602  -0.64330  -0.62271
  Beta  occ. eigenvalues --   -0.57054  -0.54438  -0.52892  -0.50118  -0.48185
  Beta  occ. eigenvalues --   -0.46551  -0.46167  -0.45257  -0.43318  -0.43246
  Beta  occ. eigenvalues --   -0.42984  -0.42152  -0.41703  -0.40365  -0.39873
  Beta  occ. eigenvalues --   -0.39231  -0.37818  -0.37094  -0.36882  -0.29601
  Beta  occ. eigenvalues --   -0.28135  -0.28006  -0.26985  -0.26916
  Beta virt. eigenvalues --   -0.12252  -0.05328  -0.03729  -0.01111  -0.00414
  Beta virt. eigenvalues --    0.00641   0.01877   0.02225   0.02283   0.02624
  Beta virt. eigenvalues --    0.03526   0.04088   0.04307   0.05131   0.05506

 Mulliken charges and spin densities:
               1          2
     1  C    0.648653  -0.000000
     2  C   -0.532563   0.000000
     3  C   -0.196257   0.000000
     4  C    0.618606  -0.000000
     5  C    0.634805  -0.000000
     6  C   -0.138084   0.000000
     7  C   -1.599306   0.000000
     8  C    0.605782   0.000000
     9  C    0.083357  -0.000000
    10  C   -0.599783  -0.000000
    11  O   -0.192959  -0.000000
    12  O   -0.233285   0.000000
    13  C   -0.428497   0.000000
    14  H    0.116917   0.000000
    15  C   -0.400638  -0.000000
    16  H    0.196782  -0.000000
    17  H    0.180042  -0.000000
    18  H    0.190158  -0.000000
    19  H    0.148286  -0.000000
    20  H    0.175425  -0.000000
    21  H    0.175435  -0.000000
    22  H    0.212616   0.000000
    23  H    0.167078   0.000000
    24  H    0.167431   0.000000
 Sum of Mulliken charges =   0.00000   0.00000

 Dipole moment (field-independent basis, Debye):
    X=              0.9079    Y=             -1.2165    Z=              0.4048  Tot=              1.5709
 Quadrupole moment (field-independent basis, Debye-Ang):
   XX=            -63.8996   YY=            -78.4436   ZZ=            -83.8335
   XY=            -11.9372   XZ=             -4.1449   YZ=              5.1746

  Exact polarizability: 151.086 -31.555 142.355 -34.556 -36.469 146.443
 Approx polarizability: 221.421 -43.290 252.010 -44.326 -89.747 255.877

 ******    1 imaginary frequencies (negative Signs) ******

                      1                      2                      3
                      A                      A                      A
 Frequencies --   -153.9938                42.7449                70.4494
 Red. masses --      1.0286                 5.6560                 4.3731
 Frc consts  --      0.0144                 0.0061                 0.0128
 IR Inten    --      0.0554                 7.4811                 0.1685

                      4                      5                      6
                      A                      A                      A
 Frequencies --    146.9348               192.5307               214.8108
 Red. masses --      4.7244                 4.0029                 1.7544
 Frc consts  --      0.0601                 0.0874                 0.0477
 IR Inten    --      1.2989                 0.1272                 1.9841

                      7                      8                      9
                      A                      A                      A
 Frequencies --    235.7810               243.3248               327.1056
 Red. masses --      1.5327                 3.6434                 4.3758
 Frc consts  --      0.0502                 0.1271                 0.2759
 IR Inten    --      0.0665                 0.6377                 0.5618

                     10                     11                     12
                      A                      A                      A
 Frequencies --    368.9682               369.0665               387.9183
 Red. masses --      3.7886                 3.8962                 6.6648
 Frc consts  --      0.3039                 0.3127                 0.5909
 IR Inten    --      0.0106                 1.8709                 0.5205

                     13                     14                     15
                      A                      A                      A
 Frequencies --    413.6620               461.9338               483.7148
 Red. masses --      7.6603                 6.1410                 3.9586
 Frc consts  --      0.7723                 0.7721                 0.5457
 IR Inten    --     20.5590                 4.3500                 0.0003

                     16                     17                     18
                      A                      A                      A
 Frequencies --    505.6795               519.6300               563.4841
 Red. masses --      3.5752                 6.7726                 5.1334
 Frc consts  --      0.5386                 1.0774                 0.9603
 IR Inten    --      3.1478                 6.7944                 0.7968

                     19                     20                     21
                      A                      A                      A
 Frequencies --    661.1147               697.2479               710.4785
 Red. masses --      4.1532                 4.1184                 6.3538
 Frc consts  --      1.0695                 1.1797                 1.8897
 IR Inten    --      1.5734                 0.2945                 7.0211

                     22                     23                     24
                      A                      A                      A
 Frequencies --    710.8844               783.1701               795.2118
 Red. masses --      3.2135                 4.9699                 2.9913
 Frc consts  --      0.9568                 1.7960                 1.1145
 IR Inten    --     18.3475                 5.3847                 8.9194

                     25                     26                     27
                      A                      A                      A
 Frequencies --    814.9069               884.9367               922.5780
 Red. masses --      1.7391                 5.1967                 1.4736
 Frc consts  --      0.6805                 2.3977                 0.7390
 IR Inten    --     27.0021                 6.1921                16.5011

                     28                     29                     30
                      A                      A                      A
 Frequencies --    946.5577               959.8542              1013.6543
 Red. masses --      1.3471                 3.5337                 1.3396
 Frc consts  --      0.7111                 1.9182                 0.8110
 IR Inten    --      0.1388                30.2446                 0.3050

                     31                     32                     33
                      A                      A                      A
 Frequencies --   1028.1629              1038.3058              1051.9390
 Red. masses --      1.6217                 1.6093                 1.4998
 Frc consts  --      1.0100                 1.0222                 0.9779
 IR Inten    --      8.5639                 0.1570                 3.7363

                     34                     35                     36
                      A                      A                      A
 Frequencies --   1057.7433              1098.5171              1163.6363
 Red. masses --      1.5685                 2.5186                 2.4365
 Frc consts  --      1.0339                 1.7907                 1.9438
 IR Inten    --      1.9365                 0.7106                20.6530

                     37                     38                     39
                      A                      A                      A
 Frequencies --   1169.0748              1195.5009              1248.4343
 Red. masses --      2.3015                 1.3496                 3.2432
 Frc consts  --      1.8533                 1.1364                 2.9783
 IR Inten    --     27.4432                 2.1821               114.1640

                     40                     41                     42
                      A                      A                      A
 Frequencies --   1264.1997              1315.2041              1341.1373
 Red. masses --      2.1661                 3.6214                 4.3357
 Frc consts  --      2.0397                 3.6907                 4.5947
 IR Inten    --     20.0212               160.2385                35.0013

                     43                     44                     45
                      A                      A                      A
 Frequencies --   1357.6531              1401.8845              1420.1641
 Red. masses --      2.8332                 1.2386                 1.2254
 Frc consts  --      3.0769                 1.4342                 1.4562
 IR Inten    --     25.5135                18.0847                 8.1262

                     46                     47                     48
                      A                      A                      A
 Frequencies --   1452.2474              1475.7970              1480.0466
 Red. masses --      2.4084                 1.0442                 1.1608
 Frc consts  --      2.9926                 1.3400                 1.4982
 IR Inten    --     16.1687                 8.2495                13.2186

                     49                     50                     51
                      A                      A                      A
 Frequencies --   1487.4203              1497.2463              1498.2525
 Red. masses --      1.5779                 1.5875                 1.0437
 Frc consts  --      2.0568                 2.0968                 1.3804
 IR Inten    --      1.8168                 6.3349                 8.8525

                     52                     53                     54
                      A                      A                      A
 Frequencies --   1605.0170              1624.4063              1677.9750
 Red. masses --      6.1999                 5.8690                 9.0042
 Frc consts  --      9.4102                 9.1244                14.9372
 IR Inten    --     18.9282                55.3123                58.4849

                     55                     56                     57
                      A                      A                      A
 Frequencies --   1707.7327              1715.5947              3036.8638
 Red. masses --     11.4692                10.5836                 1.0391
 Frc consts  --     19.7070                18.3532                 5.6463
 IR Inten    --    114.3559               300.6254                13.0486

                     58                     59                     60
                      A                      A                      A
 Frequencies --   3041.1871              3086.5108              3100.8519
 Red. masses --      1.0355                 1.1001                 1.0989
 Frc consts  --      5.6428                 6.1750                 6.2256
 IR Inten    --     17.6880                 8.6357                 6.8337

                     61                     62                     63
                      A                      A                      A
 Frequencies --   3109.9249              3142.7507              3164.1147
 Red. masses --      1.1034                 1.0980                 1.0915
 Frc consts  --      6.2876                 6.3893                 6.4386
 IR Inten    --     23.3733                 4.2195                 9.5261

                     64                     65                     66
                      A                      A                      A
 Frequencies --   3164.3907              3181.5076              3203.2577
 Red. masses --      1.0877                 1.0930                 1.0937
 Frc consts  --      6.4172                 6.5181                 6.6119
 IR Inten    --      4.6619                14.5695                 4.2841

 - Thermochemistry -
 -------------------
 Temperature   298.150 Kelvin.  Pressure   1.00000 Atm.
 Atom     1 has atomic number  6 and mass  12.00000

 Molecular mass:   186.06808 amu.
 Principal axes and moments of inertia in atomic units:
                           1         2         3
     Eigenvalues --  1872.295982482.386744332.57894
           X            0.84071  -0.05412   0.53878
           Y           -0.33759   0.72558   0.59964
           Z           -0.42338  -0.68601   0.59173
 This molecule is an asymmetric top.
 Rotational symmetry number  1.
 Warning -- assumption of classical behavior for rotation
           may cause significant error
 Rotational temperatures (Kelvin)      0.04626     0.03489     0.01999
 Rotational constants (GHZ):           0.96392     0.72702     0.41655
    1 imaginary frequencies ignored.
 Zero-point vibrational energy     490785.9 (Joules/Mol)
                                  117.30063 (Kcal/Mol)
 Warning -- explicit consideration of  17 degrees of freedom as
           vibrations may cause significant error
 Vibrational temperatures:     61.50   101.36   211.41   277.01   309.06
          (Kelvin)            339.24   350.09   470.63   530.86   531.00
                              558.13   595.17   664.62   695.96   727.56
                              747.63   810.73   951.20  1003.18  1022.22
                             1022.80  1126.81  1144.13  1172.47  1273.23
                             1327.38  1361.89  1381.02  1458.42  1479.30
                             1493.89  1513.51  1521.86  1580.52  1674.21
                             1682.04  1720.06  1796.22  1818.90  1892.29
                             1929.60  1953.36  2017.00  2043.30  2089.46
                             2123.34  2129.46  2140.07  2154.20  2155.65
                             2309.26  2337.16  2414.23  2457.05  2468.36
                             4369.37  4375.59  4440.80  4461.43  4474.49
                             4521.72  4552.46  4552.85  4577.48  4608.77

 Zero-point correction=                           0.186930 (Hartree/Particle)
 Thermal correction to Energy=                    0.198202
 Thermal correction to Enthalpy=                  0.199146
 Thermal correction to Gibbs Free Energy=         0.149447
 Sum of electronic and zero-point Energies=           -613.725436
 Sum of electronic and thermal Energies=              -613.714165
 Sum of electronic and thermal Enthalpies=            -613.713220
 Sum of electronic and thermal Free Energies=         -613.762920

                     E (Thermal)             CV                S
                      KCal/Mol        Cal/Mol-Kelvin    Cal/Mol-Kelvin
 Total                  124.373             44.286            104.601
 Electronic               0.000              0.000              0.000
 Translational            0.889              2.981             41.569
 Rotational               0.889              2.981             31.377
 Vibrational            122.596             38.325             31.655
 Vibration     1          0.595              1.980              5.128
 Vibration     2          0.598              1.968              4.141
 Vibration     3          0.617              1.906              2.712
 Vibration     4          0.635              1.850              2.203
 Vibration     5          0.645              1.818              2.002
 Vibration     6          0.655              1.786              1.834
 Vibration     7          0.659              1.774              1.778
 Vibration     8          0.711              1.621              1.274
 Vibration     9          0.741              1.536              1.084
 Vibration    10          0.741              1.536              1.084
 Vibration    11          0.756              1.496              1.008
 Vibration    12          0.777              1.441              0.914
 Vibration    13          0.820              1.334              0.760
 Vibration    14          0.840              1.286              0.700
 Vibration    15          0.861              1.237              0.644
 Vibration    16          0.875              1.207              0.611
 Vibration    17          0.919              1.110              0.517

                           ! Non-Optimized Parameters !
 Normal termination of Gaussian 16 at Tue Dec 26 20:29:02 2023.
