 Gaussian 16, Revision A.03,
 Gaussian 16:  ES64L-G16RevA.03 25-Dec-2016

 ----------------------------------------------------------------
 #P UB3LYP/6-311++G(d,p) SCRF=(PCM,Solvent=n,n-DiMethylFormamide)
 ----------------------------------------------------------------

 -------
 Reduced
 -------
 Symbolic Z-matrix:
 Charge = -2 Multiplicity = 1

                         Standard orientation:
 ---------------------------------------------------------------------
 Center     Atomic      Atomic             Coordinates (Angstroms)
 Number     Number       Type             X           Y           Z
 ---------------------------------------------------------------------
      1          8           0        0.000102    2.852624   -0.014449
      2          6           0        0.000062    1.578752   -0.032460
      3          6           0        1.154034    0.686874   -0.019249
      4          6           0        2.531397    0.974865    0.019268
      5          6           0        3.458580   -0.061210    0.028015
      6          6           0        3.035702   -1.413800    0.001734
      7          6           0        1.670662   -1.718418   -0.011422
      8          6           0        0.723629   -0.693043    0.000411
      9          6           0       -0.723696   -0.692914    0.000334
     10          6           0       -1.670519   -1.718343   -0.012103
     11          6           0       -3.035744   -1.413656    0.001251
     12          6           0       -3.458647   -0.061370    0.028282
     13          6           0       -2.531536    0.974844    0.019850
     14          6           0       -1.154094    0.687038   -0.019014
     15          1           0        2.856061    2.012393    0.038083
     16          1           0        4.524528    0.160921    0.044106
     17          1           0        3.774547   -2.212791   -0.014830
     18          1           0        1.353230   -2.760006   -0.023876
     19          1           0       -1.353543   -2.760017   -0.025214
     20          1           0       -3.774419   -2.212825   -0.015769
     21          1           0       -4.524536    0.161070    0.044669
     22          1           0       -2.855660    2.012557    0.039035
 ---------------------------------------------------------------------

 SCF Done:  E(UB3LYP) =  -575.775197413     A.U. after   18 cycles

 The electronic state is 1-A.
 Alpha  occ. eigenvalues --  -19.00318 -10.14188 -10.14013 -10.14012 -10.13560
 Alpha  occ. eigenvalues --  -10.13559 -10.13167 -10.13166 -10.12774 -10.12774
 Alpha  occ. eigenvalues --  -10.12120 -10.12083 -10.10772 -10.10771  -0.91991
 Alpha  occ. eigenvalues --   -0.82769  -0.79893  -0.74540  -0.71506  -0.70157
 Alpha  occ. eigenvalues --   -0.66709  -0.61162  -0.58371  -0.54391  -0.53105
 Alpha  occ. eigenvalues --   -0.50852  -0.46427  -0.45649  -0.42532  -0.40443
 Alpha  occ. eigenvalues --   -0.40332  -0.38575  -0.38200  -0.37078  -0.36381
 Alpha  occ. eigenvalues --   -0.35154  -0.32166  -0.32091  -0.31877  -0.29620
 Alpha  occ. eigenvalues --   -0.29388  -0.28695  -0.25114  -0.21888  -0.21507
 Alpha  occ. eigenvalues --   -0.18015  -0.17456  -0.07953
 Alpha virt. eigenvalues --   -0.00588   0.00019   0.00854   0.01501   0.02710
 Alpha virt. eigenvalues --    0.02753   0.02847   0.04887   0.04983   0.05092
 Alpha virt. eigenvalues --    0.05471   0.05603   0.06965   0.07316   0.07620

  Beta  occ. eigenvalues --  -19.00318 -10.14188 -10.14013 -10.14012 -10.13560
  Beta  occ. eigenvalues --  -10.13559 -10.13167 -10.13166 -10.12774 -10.12774
  Beta  occ. eigenvalues --  -10.12120 -10.12083 -10.10772 -10.10771  -0.91991
  Beta  occ. eigenvalues --   -0.82769  -0.79893  -0.74540  -0.71506  -0.70157
  Beta  occ. eigenvalues --   -0.66709  -0.61162  -0.58371  -0.54391  -0.53105
  Beta  occ. eigenvalues --   -0.50852  -0.46427  -0.45649  -0.42532  -0.40443
  Beta  occ. eigenvalues --   -0.40332  -0.38575  -0.38200  -0.37078  -0.36381
  Beta  occ. eigenvalues --   -0.35154  -0.32166  -0.32091  -0.31877  -0.29620
  Beta  occ. eigenvalues --   -0.29388  -0.28695  -0.25114  -0.21888  -0.21507
  Beta  occ. eigenvalues --   -0.18015  -0.17456  -0.07953
  Beta virt. eigenvalues --   -0.00588   0.00019   0.00854   0.01501   0.02710
  Beta virt. eigenvalues --    0.02753   0.02847   0.04887   0.04983   0.05092
  Beta virt. eigenvalues --    0.05471   0.05603   0.06965   0.07316   0.07620

 Mulliken charges and spin densities:
               1          2
     1  O   -0.764731   0.000000
     2  C   -0.265108   0.000000
     3  C    0.616600   0.000000
     4  C   -0.369135   0.000000
     5  C   -0.363195   0.000000
     6  C   -0.403544  -0.000000
     7  C   -0.542084  -0.000000
     8  C    0.089345  -0.000000
     9  C    0.089365  -0.000000
    10  C   -0.541978   0.000000
    11  C   -0.403892  -0.000000
    12  C   -0.363025  -0.000000
    13  C   -0.369369   0.000000
    14  C    0.616885   0.000000
    15  H    0.111931  -0.000000
    16  H    0.134744  -0.000000
    17  H    0.142201   0.000000
    18  H    0.098039   0.000000
    19  H    0.098102   0.000000
    20  H    0.142180  -0.000000
    21  H    0.134747   0.000000
    22  H    0.111922  -0.000000
 Sum of Mulliken charges =  -2.00000  -0.00000

 Dipole moment (field-independent basis, Debye):
    X=              0.0006    Y=             -9.3095    Z=              0.0271  Tot=              9.3095
 Quadrupole moment (field-independent basis, Debye-Ang):
   XX=           -120.6863   YY=           -126.4485   ZZ=            -97.6799
   XY=              0.0009   XZ=              0.0002   YZ=              0.3769

 Normal termination of Gaussian 16 at Sat Jan 13 19:19:58 2024.
