 Q-Chem 5.4, Q-Chem, Inc., Pleasanton, CA (2021)
 Q-Chem 5.4.0 for Intel X86 EM64T Linux

User input:
--------------------------------------------------------------
$molecule
-1 2
C                 -2.4148510000      1.9082100000     -0.0230170000
C                 -1.2693790000      0.9257600000     -0.0049730000
C                 -1.5026880000     -0.4378880000      0.1365790000
C                 -2.9075580000     -0.9713080000      0.2757390000
C                 -0.4288740000     -1.4096950000      0.1583020000
O                 -0.6351190000     -2.6495640000      0.2866060000
C                  0.9368460000     -0.8812520000      0.0220760000
C                  2.0338300000     -1.7659010000      0.0343440000
C                  3.3297170000     -1.2977890000     -0.0918760000
C                  3.5660940000      0.0839430000     -0.2355160000
C                  2.5014800000      0.9675580000     -0.2497050000
C                  1.1747700000      0.5095400000     -0.1223820000
C                  0.0644350000      1.4737990000     -0.1410320000
O                  0.2820190000      2.7116750000     -0.2699160000
H                 -3.1137150000      1.7025470000     -0.8438920000
H                 -3.0001590000      1.8669010000      0.9045010000
H                 -2.0216320000      2.9179030000     -0.1433530000
H                 -2.8728310000     -2.0564120000      0.3753240000
H                 -3.5265430000     -0.7175700000     -0.5943590000
H                 -3.4157180000     -0.5534020000      1.1541990000
H                  1.8207130000     -2.8229310000      0.1462780000
H                  4.1643040000     -1.9932040000     -0.0804180000
H                  4.5828820000      0.4534750000     -0.3348210000
H                  2.6519770000      2.0356070000     -0.3586890000
$end

$rem
BASIS  =  6-311++G(d,p)
GUI  =  2
JOB_TYPE  =  SP
METHOD  =  B3LYP
SCF_CONVERGENCE  = 8
SOLVENT_METHOD = sm12
$end

$smx
solvent dimethylformamide
charges CM5
$end

--------------------------------------------------------------

             Standard Nuclear Orientation (Angstroms)
    I     Atom           X                Y                Z
 ----------------------------------------------------------------
    1      C      -2.4148510000     1.9082100000    -0.0230170000
    2      C      -1.2693790000     0.9257600000    -0.0049730000
    3      C      -1.5026880000    -0.4378880000     0.1365790000
    4      C      -2.9075580000    -0.9713080000     0.2757390000
    5      C      -0.4288740000    -1.4096950000     0.1583020000
    6      O      -0.6351190000    -2.6495640000     0.2866060000
    7      C       0.9368460000    -0.8812520000     0.0220760000
    8      C       2.0338300000    -1.7659010000     0.0343440000
    9      C       3.3297170000    -1.2977890000    -0.0918760000
   10      C       3.5660940000     0.0839430000    -0.2355160000
   11      C       2.5014800000     0.9675580000    -0.2497050000
   12      C       1.1747700000     0.5095400000    -0.1223820000
   13      C       0.0644350000     1.4737990000    -0.1410320000
   14      O       0.2820190000     2.7116750000    -0.2699160000
   15      H      -3.1137150000     1.7025470000    -0.8438920000
   16      H      -3.0001590000     1.8669010000     0.9045010000
   17      H      -2.0216320000     2.9179030000    -0.1433530000
   18      H      -2.8728310000    -2.0564120000     0.3753240000
   19      H      -3.5265430000    -0.7175700000    -0.5943590000
   20      H      -3.4157180000    -0.5534020000     1.1541990000
   21      H       1.8207130000    -2.8229310000     0.1462780000
   22      H       4.1643040000    -1.9932040000    -0.0804180000
   23      H       4.5828820000     0.4534750000    -0.3348210000
   24      H       2.6519770000     2.0356070000    -0.3586890000
 ----------------------------------------------------------------

   15    -613.9829833154      4.72e-09  Convergence criterion met
 Total energy in the final basis set =     -614.0688866322

                    Orbital Energies (a.u.)
 --------------------------------------------------------------

 Alpha MOs
 -- Occupied --
-19.0746 -19.0746 -10.2209 -10.2209 -10.1826 -10.1821 -10.1785 -10.1783
-10.1780 -10.1778 -10.1735 -10.1730 -10.1634 -10.1634  -0.9990  -0.9967
 -0.8636  -0.8224  -0.7652  -0.7566  -0.7314  -0.6817  -0.6587  -0.6079
 -0.5933  -0.5584  -0.5192  -0.4959  -0.4699  -0.4569  -0.4424  -0.4329
 -0.4211  -0.4112  -0.4028  -0.4025  -0.3919  -0.3918  -0.3842  -0.3692
 -0.3649  -0.3524  -0.3452  -0.3408  -0.2712  -0.2633  -0.2483  -0.2454
 -0.2346  -0.1530

 Beta MOs
 -- Occupied --
-19.0680 -19.0680 -10.2196 -10.2195 -10.1822 -10.1817 -10.1783 -10.1782
-10.1777 -10.1773 -10.1721 -10.1716 -10.1635 -10.1635  -0.9877  -0.9851
 -0.8617  -0.8181  -0.7632  -0.7549  -0.7282  -0.6798  -0.6521  -0.6071
 -0.5896  -0.5558  -0.5171  -0.4936  -0.4674  -0.4558  -0.4361  -0.4325
 -0.4182  -0.4055  -0.3984  -0.3952  -0.3907  -0.3905  -0.3821  -0.3640
 -0.3457  -0.3435  -0.3404  -0.3386  -0.2567  -0.2501  -0.2393  -0.2349
 -0.2286

          Ground-State Mulliken Net Atomic Charges

     Atom                 Charge (a.u.)    Spin (a.u.)
  --------------------------------------------------------
      1 C                     0.472578       0.002107
      2 C                     0.400795       0.121241
      3 C                     0.398564       0.121163
      4 C                     0.468802       0.002156
      5 C                    -2.064495       0.059424
      6 O                    -0.319137       0.243603
      7 C                    -0.978793       0.021169
      8 C                    -0.050200       0.023238
      9 C                     0.904873       0.025790
     10 C                     0.905450       0.025757
     11 C                    -0.049320       0.023385
     12 C                    -0.978059       0.021123
     13 C                    -2.065294       0.059489
     14 O                    -0.318923       0.243634
     15 H                     0.212797       0.004625
     16 H                     0.212907       0.004625
     17 H                     0.187411      -0.001557
     18 H                     0.187171      -0.001558
     19 H                     0.212759       0.004626
     20 H                     0.213122       0.004623
     21 H                     0.164305      -0.002152
     22 H                     0.359103      -0.002180
     23 H                     0.359192      -0.002178
     24 H                     0.164392      -0.002154
  --------------------------------------------------------
  Sum of atomic charges =    -1.000000

                    Cartesian Multipole Moments
 -----------------------------------------------------------------
    Charge (ESU x 10^10)
                -4.8032
    Dipole Moment (Debye)
         X      -0.1600      Y       0.0295      Z       0.0100
       Tot       0.1630
    Quadrupole Moments (Debye-Ang)
        XX     -88.7676     XY      -5.3821     YY    -119.2853
        XZ       0.5067     YZ       3.1840     ZZ     -89.0076

 Total job time:  405.16s(wall), 3105.96s(cpu)
        *  Thank you very much for using Q-Chem.  Have a nice day.  *
