 Q-Chem 5.4, Q-Chem, Inc., Pleasanton, CA (2021)
 Q-Chem 5.4.0 for Intel X86 EM64T Linux

User input:
--------------------------------------------------------------
$molecule
0 1
C                  3.3085020000     -0.2585250000     -0.1173220000
C                  1.8226490000     -0.4500800000     -0.1582750000
C                  0.9675560000      0.7281080000      0.0913560000
O                  1.4648570000      1.8209540000      0.3233660000
C                 -0.5257580000      0.5675660000      0.0567230000
C                 -1.3435270000      1.6715630000      0.2903010000
C                 -2.7298640000      1.5314860000      0.2599270000
C                 -3.3088330000      0.2887470000     -0.0037480000
C                 -2.5006570000     -0.8194440000     -0.2382060000
C                 -1.1108840000     -0.6813960000     -0.2082560000
C                 -0.2406610000     -1.8455010000     -0.4546110000
O                 -0.6558320000     -2.9736880000     -0.6939140000
C                  1.2378680000     -1.6460620000     -0.4117900000
O                  1.9431560000     -2.7638530000     -0.6483830000
H                  3.8300590000     -1.1932720000     -0.3159810000
H                  3.6166220000      0.1250030000      0.8593580000
H                  3.6167870000      0.4892420000     -0.8533240000
H                 -0.8779170000      2.6280120000      0.4932240000
H                 -3.3614020000      2.3935770000      0.4423100000
H                 -4.3875510000      0.1860410000     -0.0260610000
H                 -2.9265630000     -1.7936360000     -0.4448920000
H                  1.2867530000     -3.4705140000     -0.7984230000
$end
$rem
MAX_SCF_CYCLES=200
BASIS  =  6-311++G(d,p)
GUI  =  2
JOB_TYPE  =  SP
METHOD  =  B3LYP
SOLVENT_METHOD = COSMO
$end
$solvent
dielectric 37.219
opticaldielectric 1.43
$end

--------------------------------------------------------------

             Standard Nuclear Orientation (Angstroms)
    I     Atom           X                Y                Z
 ----------------------------------------------------------------
    1      C       3.0499717170    -1.3831120135     0.0003649875
    2      C       1.7486372056    -0.6397022745     0.0001346516
    3      C       0.5014979164    -1.4310746053    -0.0001215906
    4      O       0.5392171290    -2.6533783851    -0.0003092010
    5      C      -0.8187158945    -0.7141398982    -0.0001073389
    6      C      -2.0025900472    -1.4493651559    -0.0000274808
    7      C      -3.2316841629    -0.7922486816     0.0001050140
    8      C      -3.2870479689     0.6027655394     0.0001594266
    9      C      -2.1104328383     1.3455865939     0.0000671487
   10      C      -0.8773739330     0.6890890984    -0.0000699127
   11      C       0.3783024720     1.4613559385    -0.0000926772
   12      O       0.4302606522     2.6859943092    -0.0000661606
   13      C       1.6697931797     0.7132187136    -0.0000579463
   14      O       2.7548862916     1.5040645062    -0.0000920055
   15      H       3.8942728340    -0.6958026672     0.0011017388
   16      H       3.1169729146    -2.0345649665    -0.8754519872
   17      H       3.1160343067    -2.0355006951     0.8755328650
   18      H      -1.9414491152    -2.5305806254    -0.0000526400
   19      H      -4.1496292542    -1.3690341700     0.0001835832
   20      H      -4.2458451776     1.1081236455     0.0002739322
   21      H      -2.1279590023     2.4285722392     0.0001101690
   22      H       2.4205440374     2.4211042686    -0.0000844161
 ----------------------------------------------------------------

    9    -649.8495974924      7.23e-06  Convergence criterion met
 Total energy in the final basis set =     -649.8495974924
    5    -649.8637063460      2.46e-06  Convergence criterion met
 Total energy in the final basis set =     -649.8637063460

                    Orbital Energies (a.u.)
 --------------------------------------------------------------

 Alpha MOs
 -- Occupied --
-19.1782 -19.1506 -19.1310 -10.2948 -10.2819 -10.2678 -10.2107 -10.2095
-10.2066 -10.2005 -10.1983 -10.1968 -10.1965 -10.1718  -1.1090  -1.0682
 -1.0650  -0.8926  -0.8414  -0.7865  -0.7796  -0.7253  -0.6849  -0.6543
 -0.6246  -0.6046  -0.5744  -0.5433  -0.5191  -0.4963  -0.4769  -0.4747
 -0.4693  -0.4521  -0.4509  -0.4335  -0.4244  -0.4174  -0.4036  -0.3956
 -0.3943  -0.3770  -0.3764  -0.3694  -0.3051  -0.2905  -0.2818  -0.2802
 -0.2581

          Ground-State Mulliken Net Atomic Charges

     Atom                 Charge (a.u.)
  ----------------------------------------
      1 C                    -0.252581
      2 C                     1.287151
      3 C                    -0.595676
      4 O                    -0.310103
      5 C                     0.413854
      6 C                     0.122508
      7 C                    -0.481614
      8 C                    -0.379287
      9 C                     0.012022
     10 C                     0.870117
     11 C                    -1.002109
     12 O                    -0.327246
     13 C                    -0.885688
     14 O                    -0.254877
     15 H                     0.198815
     16 H                     0.194357
     17 H                     0.194305
     18 H                     0.206839
     19 H                     0.225836
     20 H                     0.231950
     21 H                     0.206286
     22 H                     0.325142
  ----------------------------------------
  Sum of atomic charges =     0.000000

                    Cartesian Multipole Moments
 -----------------------------------------------------------------
    Charge (ESU x 10^10)
                 0.0000
    Dipole Moment (Debye)
         X      -3.0280      Y       1.3895      Z      -0.0002
       Tot       3.3316
    Quadrupole Moments (Debye-Ang)
        XX     -65.6003     XY       1.1572     YY     -92.0195
        XZ       0.0006     YZ      -0.0037     ZZ     -81.7323

 Total job time:  29.11s(wall), 217.94s(cpu)
        *  Thank you very much for using Q-Chem.  Have a nice day.  *
