 Gaussian 16, Revision A.03,
 Gaussian 16:  ES64L-G16RevA.03 25-Dec-2016

 ----------------------------------------------------------------------
 #P UB3LYP/6-311++G(d,p) nosym opt freq SCRF=(PCM,Solvent=n,n-DiMethylF
 ormamide)
 ----------------------------------------------------------------------

 -------
 Reduced
 -------
 Symbolic Z-matrix:
 Charge = -2 Multiplicity = 1

 SCF Done:  E(UB3LYP) =  -1502.95262657     A.U. after   16 cycles
 SCF Done:  E(UB3LYP) =  -1502.95266725     A.U. after   15 cycles
 SCF Done:  E(UB3LYP) =  -1502.95357824     A.U. after   14 cycles
 SCF Done:  E(UB3LYP) =  -1502.95346814     A.U. after   14 cycles
 SCF Done:  E(UB3LYP) =  -1502.95384387     A.U. after   13 cycles
 SCF Done:  E(UB3LYP) =  -1502.95385812     A.U. after   12 cycles
 SCF Done:  E(UB3LYP) =  -1502.95395732     A.U. after   11 cycles
 SCF Done:  E(UB3LYP) =  -1502.95397218     A.U. after   12 cycles
 SCF Done:  E(UB3LYP) =  -1502.95397752     A.U. after   11 cycles
 SCF Done:  E(UB3LYP) =  -1502.95398263     A.U. after   11 cycles
 SCF Done:  E(UB3LYP) =  -1502.95398374     A.U. after   10 cycles
 SCF Done:  E(UB3LYP) =  -1502.95398405     A.U. after   10 cycles
 SCF Done:  E(UB3LYP) =  -1502.95398419     A.U. after   10 cycles
 SCF Done:  E(UB3LYP) =  -1502.95398425     A.U. after    9 cycles
 Optimization completed.
    -- Stationary point found.
 Normal termination of Gaussian 16 at Sun Feb 11 00:58:09 2024.

 ----------------------------------------------------------------------
 #P Geom=AllCheck Guess=TCheck SCRF=Check GenChk UB3LYP/6-311++G(d,p) F
 req
 ----------------------------------------------------------------------

 Structure from the checkpoint file:  "195-an.chk"
 -------
 Reduced
 -------
 Charge = -2 Multiplicity = 1

                          Input orientation:
 ---------------------------------------------------------------------
 Center     Atomic      Atomic             Coordinates (Angstroms)
 Number     Number       Type             X           Y           Z
 ---------------------------------------------------------------------
      1          6           0        4.776194   -3.063359    0.309272
      2          6           0        5.679894   -2.273968   -0.360216
      3          6           0        5.253085   -1.072203   -0.985137
      4          6           0        3.398876   -2.702169    0.393358
      5          6           0        2.964731   -1.486075   -0.240479
      6          6           0        3.930821   -0.697582   -0.921113
      7          6           0        2.463905   -3.509294    1.077495
      8          6           0        1.110308   -3.136729    1.135207
      9          6           0        0.671180   -1.918726    0.499843
     10          6           0        1.588407   -1.073687   -0.193010
     11          6           0        0.155823   -3.998802    1.846187
     12          6           0       -1.186990   -3.584427    1.828637
     13          6           0       -0.728606   -1.559537    0.571101
     14          6           0       -1.627925   -2.362928    1.210103
     15          8           0        2.907502   -4.660901    1.672295
     16          8           0        1.194249    0.036828   -0.770128
     17          8           0        0.568109   -5.066271    2.453785
     18          1           0        5.097931   -3.981064    0.786295
     19          1           0        6.723006   -2.567821   -0.413432
     20          1           0        5.971961   -0.453714   -1.512024
     21          1           0        2.073304   -5.045337    2.095929
     22          8           0       -1.140057   -0.394553   -0.022059
     23          1           0       -2.672449   -2.085899    1.249188
     24          1           0       -0.282174   -0.014030   -0.427088
     25          1           0        3.592739    0.216570   -1.394007
     26         16           0       -2.391495   -4.605473    2.574729
     27          8           0       -3.680353   -3.897684    2.564956
     28          8           0       -2.393790   -5.987442    2.066363
     29          8           0       -1.994306   -4.683444    4.180506
     30          6           0       -1.486896   -5.925800    4.729512
     31          1           0       -0.577589   -6.216369    4.207520
     32          1           0       -2.243640   -6.708486    4.669646
     33          1           0       -1.274089   -5.694016    5.772413
 ---------------------------------------------------------------------

 SCF Done:  E(UB3LYP) =  -1502.95398425     A.U. after    2 cycles

 Alpha  occ. eigenvalues --  -89.06676 -19.15686 -19.11423 -19.11321 -19.10937
 Alpha  occ. eigenvalues --  -19.10148 -19.06594 -19.05324 -10.22358 -10.21424
 Alpha  occ. eigenvalues --  -10.20755 -10.20512 -10.20404 -10.17474 -10.16617
 Alpha  occ. eigenvalues --  -10.16505 -10.16504 -10.16411 -10.16293 -10.16218
 Alpha  occ. eigenvalues --  -10.16045 -10.15890 -10.14986  -8.12706  -6.09094
 Alpha  occ. eigenvalues --   -6.08947  -6.08716  -1.13079  -1.02940  -1.02377
 Alpha  occ. eigenvalues --   -1.01965  -1.00212  -0.97875  -0.96060  -0.85178
 Alpha  occ. eigenvalues --   -0.82707  -0.78754  -0.74925  -0.74282  -0.72216
 Alpha  occ. eigenvalues --   -0.70824  -0.67475  -0.64476  -0.62112  -0.59865
 Alpha  occ. eigenvalues --   -0.56991  -0.56784  -0.53783  -0.52837  -0.50706
 Alpha  occ. eigenvalues --   -0.50449  -0.48360  -0.48029  -0.47118  -0.45593
 Alpha  occ. eigenvalues --   -0.45193  -0.44332  -0.43572  -0.42264  -0.41792
 Alpha  occ. eigenvalues --   -0.41683  -0.41381  -0.40293  -0.39007  -0.38372
 Alpha  occ. eigenvalues --   -0.38251  -0.37843  -0.37392  -0.36553  -0.34770
 Alpha  occ. eigenvalues --   -0.34686  -0.34221  -0.33376  -0.33058  -0.32425
 Alpha  occ. eigenvalues --   -0.32074  -0.31481  -0.30492  -0.29880  -0.27968
 Alpha  occ. eigenvalues --   -0.25990  -0.24690  -0.24287  -0.23575  -0.22612
 Alpha  occ. eigenvalues --   -0.19094  -0.13757
 Alpha virt. eigenvalues --   -0.03933  -0.02107  -0.00004   0.00603   0.01114
 Alpha virt. eigenvalues --    0.01533   0.01966   0.02046   0.03116   0.03604
 Alpha virt. eigenvalues --    0.04018   0.04517   0.04541   0.05167   0.05542

  Beta  occ. eigenvalues --  -89.06676 -19.15686 -19.11423 -19.11321 -19.10937
  Beta  occ. eigenvalues --  -19.10148 -19.06594 -19.05324 -10.22358 -10.21424
  Beta  occ. eigenvalues --  -10.20755 -10.20512 -10.20404 -10.17474 -10.16617
  Beta  occ. eigenvalues --  -10.16505 -10.16504 -10.16411 -10.16293 -10.16218
  Beta  occ. eigenvalues --  -10.16045 -10.15890 -10.14986  -8.12706  -6.09094
  Beta  occ. eigenvalues --   -6.08947  -6.08716  -1.13079  -1.02940  -1.02377
  Beta  occ. eigenvalues --   -1.01965  -1.00212  -0.97875  -0.96060  -0.85178
  Beta  occ. eigenvalues --   -0.82707  -0.78754  -0.74925  -0.74282  -0.72216
  Beta  occ. eigenvalues --   -0.70824  -0.67475  -0.64476  -0.62112  -0.59865
  Beta  occ. eigenvalues --   -0.56991  -0.56784  -0.53783  -0.52837  -0.50706
  Beta  occ. eigenvalues --   -0.50449  -0.48360  -0.48029  -0.47118  -0.45593
  Beta  occ. eigenvalues --   -0.45193  -0.44332  -0.43572  -0.42264  -0.41792
  Beta  occ. eigenvalues --   -0.41683  -0.41381  -0.40293  -0.39007  -0.38372
  Beta  occ. eigenvalues --   -0.38251  -0.37843  -0.37392  -0.36553  -0.34770
  Beta  occ. eigenvalues --   -0.34686  -0.34221  -0.33376  -0.33058  -0.32425
  Beta  occ. eigenvalues --   -0.32074  -0.31481  -0.30492  -0.29880  -0.27968
  Beta  occ. eigenvalues --   -0.25990  -0.24690  -0.24287  -0.23575  -0.22612
  Beta  occ. eigenvalues --   -0.19094  -0.13757
  Beta virt. eigenvalues --   -0.03933  -0.02107  -0.00004   0.00603   0.01114
  Beta virt. eigenvalues --    0.01533   0.01966   0.02046   0.03116   0.03604
  Beta virt. eigenvalues --    0.04018   0.04517   0.04541   0.05167   0.05542

 Mulliken charges and spin densities:
               1          2
     1  C   -0.238470   0.000000
     2  C   -0.412864  -0.000000
     3  C   -0.480895  -0.000000
     4  C    0.273599   0.000000
     5  C    0.136130  -0.000000
     6  C   -0.142588   0.000000
     7  C   -0.120101   0.000000
     8  C    0.614112  -0.000000
     9  C    0.799577   0.000000
    10  C   -0.306642  -0.000000
    11  C   -0.880438   0.000000
    12  C   -0.827630  -0.000000
    13  C   -0.343918   0.000000
    14  C   -0.267422  -0.000000
    15  O   -0.488854   0.000000
    16  O   -0.629218   0.000000
    17  O   -0.504346  -0.000000
    18  H    0.154198  -0.000000
    19  H    0.176642  -0.000000
    20  H    0.172755   0.000000
    21  H    0.439213   0.000000
    22  O   -0.477356  -0.000000
    23  H    0.210702  -0.000000
    24  H    0.380930   0.000000
    25  H    0.166434   0.000000
    26  S    1.143311   0.000000
    27  O   -0.281174  -0.000000
    28  O   -0.287254  -0.000000
    29  O   -0.193752  -0.000000
    30  C   -0.328735   0.000000
    31  H    0.217708  -0.000000
    32  H    0.175276   0.000000
    33  H    0.151069   0.000000
 Sum of Mulliken charges =  -2.00000  -0.00000

 Dipole moment (field-independent basis, Debye):
    X=              0.8373    Y=             26.4969    Z=             -8.8373  Tot=             27.9444
 Quadrupole moment (field-independent basis, Debye-Ang):
   XX=           -205.6399   YY=           -268.5198   ZZ=           -168.8356
   XY=            -13.4818   XZ=             14.5260   YZ=             41.9074

  Exact polarizability: 577.445  31.828 355.579 -98.297-108.984 276.674
 Approx polarizability: 634.503   2.131 426.002 -87.078-122.714 309.238

                      1                      2                      3
                      A                      A                      A
 Frequencies --     44.7340                48.4187                81.8523
 Red. masses --      8.0695                 5.8463                 8.2802
 Frc consts  --      0.0095                 0.0081                 0.0327
 IR Inten    --      0.5643                 1.9805                 3.8365

                      4                      5                      6
                      A                      A                      A
 Frequencies --     94.9138               102.0567               115.6530
 Red. masses --      5.8262                 2.9074                 6.8343
 Frc consts  --      0.0309                 0.0178                 0.0539
 IR Inten    --      0.4014                 7.9991                 1.2707

                      7                      8                      9
                      A                      A                      A
 Frequencies --    147.9157               150.4957               155.5304
 Red. masses --      4.7009                 2.6746                 1.7966
 Frc consts  --      0.0606                 0.0357                 0.0256
 IR Inten    --      0.2435                 2.0977                 1.1084

                     10                     11                     12
                      A                      A                      A
 Frequencies --    177.3937               210.5349               237.9826
 Red. masses --      7.8815                 7.7274                 7.4550
 Frc consts  --      0.1461                 0.2018                 0.2488
 IR Inten    --      1.7665                 4.4250                16.3680

                     13                     14                     15
                      A                      A                      A
 Frequencies --    248.9655               260.3181               281.3353
 Red. masses --      7.9447                 4.8662                 7.2060
 Frc consts  --      0.2901                 0.1943                 0.3360
 IR Inten    --      3.7893                10.5006                 8.0410

                     16                     17                     18
                      A                      A                      A
 Frequencies --    298.4962               340.7225               364.2374
 Red. masses --      7.4678                 6.6945                11.4033
 Frc consts  --      0.3920                 0.4579                 0.8914
 IR Inten    --      5.8348                26.9209                12.3851

                     19                     20                     21
                      A                      A                      A
 Frequencies --    382.6849               393.3464               393.7878
 Red. masses --      9.0909                 7.6038                 7.4957
 Frc consts  --      0.7844                 0.6932                 0.6848
 IR Inten    --     93.7731                 7.7600               110.2577

                     22                     23                     24
                      A                      A                      A
 Frequencies --    428.4840               441.5993               450.5729
 Red. masses --      8.3965                 5.1717                 4.4820
 Frc consts  --      0.9083                 0.5942                 0.5361
 IR Inten    --      6.5337                 7.8273                14.9752

                     25                     26                     27
                      A                      A                      A
 Frequencies --    470.5802               480.0709               490.1869
 Red. masses --     11.2052                11.5135                 8.4565
 Frc consts  --      1.4620                 1.5634                 1.1972
 IR Inten    --     20.0635                17.0657                45.9883

                     28                     29                     30
                      A                      A                      A
 Frequencies --    510.6714               539.0621               547.4811
 Red. masses --      5.2123                 8.9726                 8.5138
 Frc consts  --      0.8009                 1.5362                 1.5035
 IR Inten    --     19.7117                49.9175                31.1361

                     31                     32                     33
                      A                      A                      A
 Frequencies --    580.0805               605.1204               627.6394
 Red. masses --     10.4599                 3.8599                 6.9567
 Frc consts  --      2.0737                 0.8327                 1.6146
 IR Inten    --    286.3520                15.6777               367.2958

                     34                     35                     36
                      A                      A                      A
 Frequencies --    644.0991               645.1597               696.5705
 Red. masses --      7.4380                 6.7804                 7.6404
 Frc consts  --      1.8181                 1.6628                 2.1842
 IR Inten    --    268.0247                13.2369               122.6789

                     37                     38                     39
                      A                      A                      A
 Frequencies --    715.3076               735.0093               751.7190
 Red. masses --      3.6600                 5.8201                 4.2877
 Frc consts  --      1.1034                 1.8525                 1.4275
 IR Inten    --     16.3614                13.2207                43.4561

                     40                     41                     42
                      A                      A                      A
 Frequencies --    777.1079               786.2132               797.8338
 Red. masses --      2.0603                 4.4857                 7.2005
 Frc consts  --      0.7331                 1.6337                 2.7005
 IR Inten    --     65.0742                14.9189                48.2109

                     43                     44                     45
                      A                      A                      A
 Frequencies --    802.4116               862.9279               882.9425
 Red. masses --      1.6024                 1.5076                 8.8258
 Frc consts  --      0.6079                 0.6615                 4.0539
 IR Inten    --     38.9700                 0.8033               298.6295

                     46                     47                     48
                      A                      A                      A
 Frequencies --    902.3017               914.5221               966.7389
 Red. masses --      8.3498                 1.0601                 1.0509
 Frc consts  --      4.0052                 0.5224                 0.5787
 IR Inten    --    184.7737               135.1557               132.0784

                     49                     50                     51
                      A                      A                      A
 Frequencies --    979.1403               979.1611               987.2510
 Red. masses --      7.1181                 1.3832                 7.8237
 Frc consts  --      4.0207                 0.7813                 4.4928
 IR Inten    --    503.4802                15.8968                15.1262

                     52                     53                     54
                      A                      A                      A
 Frequencies --    992.1823              1027.6316              1063.0286
 Red. masses --      1.2665                 2.2970                14.8127
 Frc consts  --      0.7346                 1.4292                 9.8622
 IR Inten    --      0.0626                57.6858               962.5855

                     55                     56                     57
                      A                      A                      A
 Frequencies --   1082.1891              1100.4500              1152.6143
 Red. masses --      3.7346                 3.4915                 1.3819
 Frc consts  --      2.5769                 2.4912                 1.0816
 IR Inten    --    369.4540                62.0855               152.8287

                     58                     59                     60
                      A                      A                      A
 Frequencies --   1165.6835              1173.0961              1179.5456
 Red. masses --      1.2384                 1.6668                 1.3919
 Frc consts  --      0.9915                 1.3514                 1.1410
 IR Inten    --      5.1213               154.3177                 5.3623

                     61                     62                     63
                      A                      A                      A
 Frequencies --   1180.5525              1215.3846              1240.6412
 Red. masses --      2.1166                15.8017                 3.3845
 Frc consts  --      1.7380                13.7525                 3.0693
 IR Inten    --     34.5326               475.6067               177.7583

                     64                     65                     66
                      A                      A                      A
 Frequencies --   1247.2653              1277.2265              1306.1511
 Red. masses --      3.0592                 5.0079                 3.6875
 Frc consts  --      2.8039                 4.8133                 3.7065
 IR Inten    --    154.3883                56.7772                11.5603

                     67                     68                     69
                      A                      A                      A
 Frequencies --   1318.8922              1338.2426              1375.1062
 Red. masses --      2.9244                 8.1954                 6.6747
 Frc consts  --      2.9971                 8.6475                 7.4362
 IR Inten    --    488.0439               289.2797               166.0984

                     70                     71                     72
                      A                      A                      A
 Frequencies --   1404.6539              1416.7642              1429.0252
 Red. masses --      3.5313                 4.1998                 3.8379
 Frc consts  --      4.1051                 4.9668                 4.6177
 IR Inten    --     78.1601              2292.6700                 7.4698

                     73                     74                     75
                      A                      A                      A
 Frequencies --   1450.6372              1462.1524              1469.2534
 Red. masses --      1.1416                 2.7635                 1.0544
 Frc consts  --      1.4154                 3.4809                 1.3410
 IR Inten    --     18.8982                30.1931                 3.5312

                     76                     77                     78
                      A                      A                      A
 Frequencies --   1498.5747              1503.2984              1542.0095
 Red. masses --      1.0526                 2.7343                 2.9667
 Frc consts  --      1.3927                 3.6407                 4.1563
 IR Inten    --     15.4313                38.4297               323.1152

                     79                     80                     81
                      A                      A                      A
 Frequencies --   1546.1525              1586.4423              1624.1730
 Red. masses --      4.2029                 5.2223                 3.1406
 Frc consts  --      5.9198                 7.7440                 4.8813
 IR Inten    --    232.3158                 5.8986                48.7028

                     82                     83                     84
                      A                      A                      A
 Frequencies --   1639.0522              1666.4356              2665.6238
 Red. masses --      2.6914                 2.3383                 1.0809
 Frc consts  --      4.2601                 3.8259                 4.5252
 IR Inten    --     31.9559                55.2611              1388.0909

                     85                     86                     87
                      A                      A                      A
 Frequencies --   2861.2126              3050.1386              3134.1748
 Red. masses --      1.0752                 1.0283                 1.1064
 Frc consts  --      5.1859                 5.6365                 6.4037
 IR Inten    --   1446.2670                88.9966                24.3885

                     88                     89                     90
                      A                      A                      A
 Frequencies --   3154.1788              3156.4517              3168.5923
 Red. masses --      1.0858                 1.1080                 1.0902
 Frc consts  --      6.3648                 6.5042                 6.4488
 IR Inten    --     16.5083                 4.3690                28.5197

                     91                     92                     93
                      A                      A                      A
 Frequencies --   3188.8541              3191.9765              3206.8563
 Red. masses --      1.0918                 1.0939                 1.0894
 Frc consts  --      6.5413                 6.5669                 6.6007
 IR Inten    --     22.0542                52.4059                25.3607

 - Thermochemistry -
 -------------------
 Temperature   298.150 Kelvin.  Pressure   1.00000 Atm.
 Atom     1 has atomic number  6 and mass  12.00000

 Molecular mass:   334.01472 amu.
 Principal axes and moments of inertia in atomic units:
                           1         2         3
     Eigenvalues --  3485.92004********************
           X            0.79784  -0.57984   0.16503
           Y            0.41534   0.72708   0.54667
           Z           -0.43697  -0.36761   0.82093
 This molecule is an asymmetric top.
 Rotational symmetry number  1.
 Warning -- assumption of classical behavior for rotation
           may cause significant error
 Rotational temperatures (Kelvin)      0.02485     0.00724     0.00579
 Rotational constants (GHZ):           0.51772     0.15075     0.12068
 Zero-point vibrational energy     592043.3 (Joules/Mol)
                                  141.50174 (Kcal/Mol)
 Warning -- explicit consideration of  32 degrees of freedom as
           vibrations may cause significant error
 Vibrational temperatures:     64.36    69.66   117.77   136.56   146.84
          (Kelvin)            166.40   212.82   216.53   223.77   255.23
                              302.91   342.40   358.21   374.54   404.78
                              429.47   490.22   524.06   550.60   565.94
                              566.57   616.49   635.36   648.27   677.06
                              690.71   705.27   734.74   775.59   787.70
                              834.61   870.63   903.03   926.71   928.24
                             1002.21  1029.17  1057.51  1081.56  1118.08
                             1131.19  1147.90  1154.49  1241.56  1270.36
                             1298.21  1315.79  1390.92  1408.76  1408.79
                             1420.43  1427.53  1478.53  1529.46  1557.03
                             1583.30  1658.35  1677.16  1687.82  1697.10
                             1698.55  1748.67  1785.01  1794.54  1837.64
                             1879.26  1897.59  1925.43  1978.47  2020.98
                             2038.41  2056.05  2087.14  2103.71  2113.93
                             2156.11  2162.91  2218.61  2224.57  2282.54
                             2336.82  2358.23  2397.63  3835.24  4116.65
                             4388.47  4509.38  4538.16  4541.43  4558.90
                             4588.05  4592.54  4613.95

 Zero-point correction=                           0.225497 (Hartree/Particle)
 Thermal correction to Energy=                    0.244452
 Thermal correction to Enthalpy=                  0.245397
 Thermal correction to Gibbs Free Energy=         0.178747
 Sum of electronic and zero-point Energies=          -1502.728487
 Sum of electronic and thermal Energies=             -1502.709532
 Sum of electronic and thermal Enthalpies=           -1502.708588
 Sum of electronic and thermal Free Energies=        -1502.775237

                     E (Thermal)             CV                S
                      KCal/Mol        Cal/Mol-Kelvin    Cal/Mol-Kelvin
 Total                  153.396             74.393            140.275
 Electronic               0.000              0.000              0.000
 Translational            0.889              2.981             43.313
 Rotational               0.889              2.981             34.789
 Vibrational            151.619             68.432             62.174
 Vibration     1          0.595              1.980              5.038
 Vibration     2          0.595              1.978              4.881
 Vibration     3          0.600              1.962              3.846
 Vibration     4          0.603              1.953              3.556
 Vibration     5          0.604              1.948              3.415
 Vibration     6          0.608              1.936              3.172
 Vibration     7          0.617              1.905              2.699
 Vibration     8          0.618              1.902              2.666
 Vibration     9          0.620              1.896              2.603
 Vibration    10          0.628              1.870              2.356
 Vibration    11          0.643              1.825              2.039
 Vibration    12          0.656              1.782              1.818
 Vibration    13          0.662              1.764              1.738
 Vibration    14          0.668              1.745              1.660
 Vibration    15          0.681              1.708              1.526
 Vibration    16          0.692              1.677              1.425
 Vibration    17          0.720              1.594              1.209
 Vibration    18          0.738              1.546              1.104
 Vibration    19          0.752              1.507              1.029
 Vibration    20          0.761              1.484              0.987
 Vibration    21          0.761              1.483              0.986
 Vibration    22          0.790              1.408              0.864
 Vibration    23          0.801              1.379              0.822
 Vibration    24          0.809              1.360              0.794
 Vibration    25          0.828              1.315              0.736
 Vibration    26          0.836              1.294              0.710
 Vibration    27          0.846              1.272              0.683
 Vibration    28          0.866              1.226              0.632
 Vibration    29          0.894              1.164              0.567
 Vibration    30          0.903              1.145              0.549
 Vibration    31          0.937              1.074              0.485
 Vibration    32          0.964              1.021              0.441

                           ! Non-Optimized Parameters !
 Normal termination of Gaussian 16 at Sun Feb 11 03:41:24 2024.
