 Gaussian 16, Revision A.03,
 Gaussian 16:  ES64L-G16RevA.03 25-Dec-2016

 ----------------------------------------------------------------
 #P UB3LYP/6-311++G(d,p) SCRF=(PCM,Solvent=n,n-DiMethylFormamide)
 ----------------------------------------------------------------

 ------------------
 Radical PCM in DMF
 ------------------
 Symbolic Z-matrix:
 Charge = -1 Multiplicity = 2

                         Standard orientation:
 ---------------------------------------------------------------------
 Center     Atomic      Atomic             Coordinates (Angstroms)
 Number     Number       Type             X           Y           Z
 ---------------------------------------------------------------------
      1         17           0       -3.118671   -0.518933   -0.000002
      2          6           0       -1.370766   -0.230757   -0.000020
      3          6           0       -0.519032   -1.297247    0.000013
      4          6           0        0.926161   -1.155770    0.000027
      5          8           0        1.695334   -2.145293   -0.000016
      6          6           0        1.370701    0.230951    0.000024
      7          6           0        0.519027    1.297329   -0.000011
      8          6           0       -0.926023    1.155947   -0.000017
      9          8           0       -1.695444    2.145360    0.000016
     10         17           0        3.118710    0.518732   -0.000004
     11          1           0       -0.896877   -2.312523    0.000021
     12          1           0        0.896698    2.312687   -0.000023
 ---------------------------------------------------------------------

 SCF Done:  E(UB3LYP) =  -1300.97550777     A.U. after   20 cycles

 The electronic state is 2-A.
 Alpha  occ. eigenvalues -- -101.55357-101.55357 -19.09367 -19.09366 -10.24333
 Alpha  occ. eigenvalues --  -10.24332 -10.23446 -10.23445 -10.18324 -10.18322
 Alpha  occ. eigenvalues --   -9.46798  -9.46797  -7.23229  -7.23228  -7.22318
 Alpha  occ. eigenvalues --   -7.22318  -7.22250  -7.22249  -1.02119  -1.01848
 Alpha  occ. eigenvalues --   -0.88251  -0.86823  -0.80842  -0.73872  -0.69248
 Alpha  occ. eigenvalues --   -0.61677  -0.57338  -0.50568  -0.48465  -0.45944
 Alpha  occ. eigenvalues --   -0.43625  -0.43465  -0.42314  -0.40460  -0.39807
 Alpha  occ. eigenvalues --   -0.38816  -0.35921  -0.34462  -0.31899  -0.31652
 Alpha  occ. eigenvalues --   -0.28741  -0.26134  -0.25812  -0.25705  -0.17802
 Alpha virt. eigenvalues --   -0.02678   0.00116   0.00829   0.00938   0.01555
 Alpha virt. eigenvalues --    0.01683   0.03726   0.05192   0.05400   0.05543
 Alpha virt. eigenvalues --    0.06788   0.07037   0.08376   0.08572   0.08700

  Beta  occ. eigenvalues -- -101.55354-101.55354 -19.08661 -19.08660 -10.24212
  Beta  occ. eigenvalues --  -10.24211 -10.23314 -10.23313 -10.18224 -10.18223
  Beta  occ. eigenvalues --   -9.46795  -9.46794  -7.23234  -7.23233  -7.22300
  Beta  occ. eigenvalues --   -7.22300  -7.22249  -7.22248  -1.00921  -1.00612
  Beta  occ. eigenvalues --   -0.87892  -0.86687  -0.80488  -0.73542  -0.68279
  Beta  occ. eigenvalues --   -0.61252  -0.56906  -0.50344  -0.48064  -0.45619
  Beta  occ. eigenvalues --   -0.43380  -0.41976  -0.41636  -0.39985  -0.38623
  Beta  occ. eigenvalues --   -0.37622  -0.34808  -0.33342  -0.31845  -0.31617
  Beta  occ. eigenvalues --   -0.25971  -0.25472  -0.25159  -0.24995
  Beta virt. eigenvalues --   -0.10589  -0.01223   0.00172   0.00931   0.01021
  Beta virt. eigenvalues --    0.01705   0.03813   0.03982   0.05241   0.05595
  Beta virt. eigenvalues --    0.05611   0.06854   0.07158   0.08536   0.08607

 Mulliken charges and spin densities:
               1          2
     1  Cl   0.214052   0.005051
     2  C    1.058346   0.089844
     3  C   -0.535755   0.073562
     4  C   -1.011557   0.086866
     5  O   -0.433032   0.251181
     6  C    1.058764   0.089975
     7  C   -0.535257   0.073575
     8  C   -1.011143   0.086914
     9  O   -0.433138   0.251238
    10  Cl   0.214011   0.005058
    11  H    0.207355  -0.006631
    12  H    0.207353  -0.006634
 Sum of Mulliken charges =  -1.00000   1.00000

 Dipole moment (field-independent basis, Debye):
    X=              0.0006    Y=             -0.0004    Z=              0.0000  Tot=              0.0007
 Quadrupole moment (field-independent basis, Debye-Ang):
   XX=           -101.0737   YY=            -93.8576   ZZ=            -73.9040
   XY=             17.8923   XZ=              0.0001   YZ=             -0.0003

 Normal termination of Gaussian 16 at Sun Jan 21 07:07:15 2024.
