 Q-Chem 5.4, Q-Chem, Inc., Pleasanton, CA (2021)
 Q-Chem 5.4.0 for Intel X86 EM64T Linux

User input:
--------------------------------------------------------------
$molecule
-2 1
C                  3.4688230000      2.1764310000      0.1853230000
C                  2.2338560000      1.5019810000      0.7413500000
O                  2.0880390000      1.2017500000      1.9044830000
O                  2.9681000000     -0.7279070000     -0.4308450000
C                  1.9417330000     -1.4939990000     -0.4189610000
C                  2.0582740000     -2.8997550000     -0.5754730000
C                  0.9545080000     -3.7680890000     -0.5541970000
C                 -0.3290670000     -3.2893270000     -0.3803990000
C                 -0.5513460000     -1.8957750000     -0.2252740000
C                 -1.9364250000     -1.4442700000     -0.0709110000
O                 -2.9125330000     -2.2545470000     -0.0550660000
C                 -2.1364140000     -0.0095710000      0.0526390000
C                 -3.4412790000      0.5090740000      0.1839310000
C                 -3.6934480000      1.8639710000      0.2923260000
C                 -2.5960800000      2.7700980000      0.2707420000
C                 -1.3075590000      2.3077580000      0.1485130000
C                 -1.0161520000      0.9076600000      0.0370150000
C                  0.2760540000      0.4052020000     -0.0968530000
O                  1.3119540000      1.3699140000     -0.2307320000
C                  0.5568470000     -0.9750950000     -0.2405110000
H                  4.0876300000      2.5549540000      1.0007100000
H                  3.1957290000      2.9849690000     -0.4988360000
H                  4.0001810000      1.4042310000     -0.3758110000
H                  3.0673610000     -3.2853760000     -0.7057320000
H                  1.1197740000     -4.8400340000     -0.6758620000
H                 -1.1953760000     -3.9389060000     -0.3621040000
H                 -4.2474510000     -0.2182650000      0.1940810000
H                 -4.7105130000      2.2354780000      0.3931400000
H                 -2.7764910000      3.8405530000      0.3561850000
H                 -0.4787320000      3.0068880000      0.1371270000
$end
$rem
MAX_SCF_CYCLES=200
BASIS  =  6-311++G(d,p)
GUI  =  2
JOB_TYPE  =  SP
METHOD  =  B3LYP
SOLVENT_METHOD = COSMO
$end
$solvent
dielectric 37.219
opticaldielectric 1.43
$end

--------------------------------------------------------------

             Standard Nuclear Orientation (Angstroms)
    I     Atom           X                Y                Z
 ----------------------------------------------------------------
    1      C       2.7564938214     3.1521375044    -0.2558995777
    2      C       1.7222319225     2.2723074777     0.4114787011
    3      O       1.6185377901     2.1326606476     1.6089869125
    4      O       3.0565762066     0.1591477075    -0.3882943789
    5      C       2.2670165146    -0.8390403790    -0.2444770041
    6      C       2.7533045115    -2.1703591851    -0.1713882699
    7      C       1.9155492791    -3.2847784038    -0.0011180083
    8      C       0.5460009077    -3.1410380342     0.1021270521
    9      C      -0.0390145121    -1.8494976318     0.0304385330
   10      C      -1.4986160256    -1.7615993698     0.1196901691
   11      O      -2.2282720881    -2.7879078418     0.2742206163
   12      C      -2.0717819433    -0.4300327954     0.0099964505
   13      C      -3.4707863941    -0.2607217460     0.0649801646
   14      C      -4.0728248279     0.9787329291    -0.0463140111
   15      C      -3.2511298563     2.1273646522    -0.2229805754
   16      C      -1.8829635796     2.0087341450    -0.2780479295
   17      C      -1.2311306766     0.7361589397    -0.1627636438
   18      C       0.1515170756     0.5784919262    -0.2228247454
   19      O       0.9026118492     1.7487951906    -0.5193522316
   20      C       0.7890798822    -0.6831535577    -0.1424103283
   21      H       3.2248611723     3.8051329840     0.4825356956
   22      H       2.3058399422     3.7405887154    -1.0602774870
   23      H       3.4913684147     2.4689808658    -0.6880591193
   24      H       3.8321720323    -2.2911408160    -0.2447654221
   25      H       2.3601259459    -4.2801360527     0.0517596264
   26      H      -0.1199519747    -3.9850637201     0.2321511563
   27      H      -4.0580789920    -1.1641171097     0.1991537768
   28      H      -5.1546325820     1.0793083626     0.0003624647
   29      H      -3.7086228069     3.1115559095    -0.3112433161
   30      H      -1.2663878079     2.8910864012    -0.4090265827
 ----------------------------------------------------------------

   11    -916.8943209576      8.85e-06  Convergence criterion met
 Total energy in the final basis set =     -916.8943209576
    6    -917.1592556129      2.86e-06  Convergence criterion met
 Total energy in the final basis set =     -917.1592556129

                    Orbital Energies (a.u.)
 --------------------------------------------------------------

 Alpha MOs
 -- Occupied --
-19.1522 -19.1046 -19.0462 -19.0350 -10.2967 -10.2025 -10.1978 -10.1952
-10.1637 -10.1611 -10.1586 -10.1583 -10.1576 -10.1568 -10.1546 -10.1493
-10.1466 -10.1455 -10.1296 -10.1261  -1.0950  -1.0164  -0.9702  -0.9558
 -0.8457  -0.8140  -0.7766  -0.7455  -0.7307  -0.7151  -0.6976  -0.6632
 -0.6153  -0.5973  -0.5957  -0.5544  -0.5183  -0.5113  -0.4993  -0.4842
 -0.4702  -0.4623  -0.4420  -0.4398  -0.4348  -0.4241  -0.4100  -0.4025
 -0.3926  -0.3897  -0.3852  -0.3814  -0.3690  -0.3656  -0.3578  -0.3548
 -0.3371  -0.3317  -0.3250  -0.3174  -0.3052  -0.2904  -0.2794  -0.2737
 -0.2427  -0.2256  -0.2247  -0.2051  -0.1852  -0.1348

          Ground-State Mulliken Net Atomic Charges

     Atom                 Charge (a.u.)
  ----------------------------------------
      1 C                    -0.499529
      2 C                     0.127421
      3 O                    -0.356662
      4 O                    -0.634513
      5 C                    -0.119679
      6 C                    -0.352307
      7 C                    -0.423322
      8 C                    -0.272460
      9 C                     0.362468
     10 C                    -0.390605
     11 O                    -0.611058
     12 C                     0.387409
     13 C                     0.004135
     14 C                    -0.484295
     15 C                    -0.518251
     16 C                    -0.080418
     17 C                     0.329723
     18 C                    -0.431407
     19 O                    -0.059498
     20 C                     0.303534
     21 H                     0.162345
     22 H                     0.168064
     23 H                     0.206649
     24 H                     0.151598
     25 H                     0.176212
     26 H                     0.144020
     27 H                     0.169258
     28 H                     0.183473
     29 H                     0.193965
     30 H                     0.163730
  ----------------------------------------
  Sum of atomic charges =    -2.000000

                    Cartesian Multipole Moments
 -----------------------------------------------------------------
    Charge (ESU x 10^10)
                -9.6064
    Dipole Moment (Debye)
         X      -2.7724      Y       9.3381      Z      -2.3259
       Tot      10.0148
    Quadrupole Moments (Debye-Ang)
        XX    -173.3147     XY     -14.2064     YY    -154.8304
        XZ       0.1230     YZ      -4.4194     ZZ    -136.0190

 Total job time:  93.92s(wall), 707.27s(cpu)
        *  Thank you very much for using Q-Chem.  Have a nice day.  *
