 Gaussian 16, Revision A.03,
 Gaussian 16:  ES64L-G16RevA.03 25-Dec-2016

 ----------------------------------------------------------------------
 #P UB3LYP/6-311++G(d,p) nosym opt freq SCRF=(PCM,Solvent=n,n-DiMethylF
 ormamide)
 ----------------------------------------------------------------------

 -------
 Radical
 -------
 Symbolic Z-matrix:
 Charge = -1 Multiplicity = 2

 SCF Done:  E(UB3LYP) =  -3184.19945838     A.U. after   20 cycles
 SCF Done:  E(UB3LYP) =  -3184.19970726     A.U. after   15 cycles
 SCF Done:  E(UB3LYP) =  -3184.19974968     A.U. after   14 cycles
 SCF Done:  E(UB3LYP) =  -3184.19974796     A.U. after   13 cycles
 SCF Done:  E(UB3LYP) =  -3184.19975032     A.U. after   12 cycles
 SCF Done:  E(UB3LYP) =  -3184.19975259     A.U. after   12 cycles
 SCF Done:  E(UB3LYP) =  -3184.19975277     A.U. after   10 cycles
 SCF Done:  E(UB3LYP) =  -3184.19975292     A.U. after   10 cycles
 SCF Done:  E(UB3LYP) =  -3184.19975303     A.U. after   10 cycles
 SCF Done:  E(UB3LYP) =  -3184.19975305     A.U. after    9 cycles
 Optimization completed.
    -- Stationary point found.
 Normal termination of Gaussian 16 at Sun Feb 11 15:14:48 2024.

 ----------------------------------------------------------------------
 #P Geom=AllCheck Guess=TCheck SCRF=Check GenChk UB3LYP/6-311++G(d,p) F
 req
 ----------------------------------------------------------------------

 Structure from the checkpoint file:  "306-rad.chk"
 -------
 Radical
 -------
 Charge = -1 Multiplicity = 2

                          Input orientation:
 ---------------------------------------------------------------------
 Center     Atomic      Atomic             Coordinates (Angstroms)
 Number     Number       Type             X           Y           Z
 ---------------------------------------------------------------------
      1          6           0       -4.117446    3.639399    1.517780
      2          6           0       -4.602327    3.865618    0.243651
      3          6           0       -4.017426    3.216799   -0.846814
      4          6           0       -2.946511    2.345187   -0.669056
      5          6           0       -2.414813    2.093678    0.628554
      6          6           0       -3.036924    2.765199    1.726075
      7          6           0       -2.570152    2.564723    3.111140
      8          6           0       -1.467427    1.673165    3.293836
      9          6           0       -0.873719    1.040524    2.231044
     10          6           0       -1.266967    1.182635    0.846534
     11          8           0       -3.118889    3.151474    4.088600
     12          8           0       -0.672152    0.579753   -0.078995
     13          1           0       -4.553026    4.126135    2.380506
     14          1           0       -4.396807    3.387562   -1.849984
     15          8           0       -2.405073    1.724238   -1.759696
     16         35           0        0.615528   -0.137102    2.588199
     17          1           0       -5.434624    4.541231    0.081022
     18          1           0       -1.115096    1.515723    4.305997
     19          1           0       -2.888018    2.012122   -2.544598
 ---------------------------------------------------------------------

 SCF Done:  E(UB3LYP) =  -3184.19975305     A.U. after    1 cycles

 Alpha  occ. eigenvalues -- -482.82363 -62.47642 -56.29659 -56.29309 -56.29280
 Alpha  occ. eigenvalues --  -19.15584 -19.08048 -19.08011 -10.24596 -10.23822
 Alpha  occ. eigenvalues --  -10.22847 -10.21935 -10.18730 -10.18219 -10.17915
 Alpha  occ. eigenvalues --  -10.17559 -10.17217 -10.16754  -8.68605  -6.51686
 Alpha  occ. eigenvalues --   -6.50513  -6.50431  -2.62791  -2.62468  -2.62407
 Alpha  occ. eigenvalues --   -2.61472  -2.61472  -1.06918  -1.00852  -1.00191
 Alpha  occ. eigenvalues --   -0.86301  -0.83235  -0.78070  -0.74987  -0.73599
 Alpha  occ. eigenvalues --   -0.67869  -0.63754  -0.61137  -0.58062  -0.53248
 Alpha  occ. eigenvalues --   -0.51606  -0.48456  -0.47640  -0.45854  -0.43975
 Alpha  occ. eigenvalues --   -0.43489  -0.41836  -0.40348  -0.40156  -0.39716
 Alpha  occ. eigenvalues --   -0.38386  -0.37637  -0.36067  -0.35639  -0.33918
 Alpha  occ. eigenvalues --   -0.32046  -0.28820  -0.27392  -0.25201  -0.24813
 Alpha  occ. eigenvalues --   -0.24114  -0.23766  -0.15885
 Alpha virt. eigenvalues --   -0.03013  -0.02635  -0.01117  -0.00285   0.00798
 Alpha virt. eigenvalues --    0.01226   0.02851   0.03196   0.04080   0.04479
 Alpha virt. eigenvalues --    0.04754   0.05598   0.05908   0.06168   0.07034

  Beta  occ. eigenvalues -- -482.82362 -62.47641 -56.29662 -56.29303 -56.29280
  Beta  occ. eigenvalues --  -19.15571 -19.07423 -19.07378 -10.24591 -10.23698
  Beta  occ. eigenvalues --  -10.22701 -10.21722 -10.18718 -10.18174 -10.17885
  Beta  occ. eigenvalues --  -10.17509 -10.17070 -10.16732  -8.68603  -6.51691
  Beta  occ. eigenvalues --   -6.50503  -6.50431  -2.62794  -2.62464  -2.62410
  Beta  occ. eigenvalues --   -2.61466  -2.61466  -1.06886  -0.99779  -0.99077
  Beta  occ. eigenvalues --   -0.86064  -0.82844  -0.77857  -0.74785  -0.73381
  Beta  occ. eigenvalues --   -0.67014  -0.63561  -0.60874  -0.57850  -0.52981
  Beta  occ. eigenvalues --   -0.51394  -0.48245  -0.47470  -0.45713  -0.43745
  Beta  occ. eigenvalues --   -0.42738  -0.41290  -0.40115  -0.39530  -0.39038
  Beta  occ. eigenvalues --   -0.37441  -0.36102  -0.35921  -0.35497  -0.33225
  Beta  occ. eigenvalues --   -0.30953  -0.28783  -0.25368  -0.24387  -0.24222
  Beta  occ. eigenvalues --   -0.23550  -0.23048
  Beta virt. eigenvalues --   -0.09304  -0.02063  -0.01500  -0.00939  -0.00269
  Beta virt. eigenvalues --    0.00816   0.01238   0.02863   0.03229   0.04181
  Beta virt. eigenvalues --    0.04514   0.05610   0.05915   0.06182   0.06414

 Mulliken charges and spin densities:
               1          2
     1  C    0.184372   0.045565
     2  C   -0.400255   0.024282
     3  C   -0.160682   0.039787
     4  C    0.086716   0.033643
     5  C    0.037184  -0.017361
     6  C    0.291136   0.039022
     7  C   -0.710617   0.074192
     8  C    0.118805   0.120532
     9  C    0.486666   0.124423
    10  C   -0.679038   0.065052
    11  O   -0.477848   0.228722
    12  O   -0.414123   0.234193
    13  H    0.158862  -0.003530
    14  H    0.160354  -0.003350
    15  O   -0.223698   0.001316
    16  Br  -0.174787   0.005541
    17  H    0.198330  -0.001719
    18  H    0.222485  -0.009992
    19  H    0.296139  -0.000316
 Sum of Mulliken charges =  -1.00000   1.00000

 Dipole moment (field-independent basis, Debye):
    X=              5.7754    Y=             -6.4920    Z=            -11.7149  Tot=             14.5856
 Quadrupole moment (field-independent basis, Debye-Ang):
   XX=           -109.0114   YY=           -114.5147   ZZ=           -132.2391
   XY=             13.8495   XZ=             35.6654   YZ=            -34.1950

  Exact polarizability: 249.407-111.107 206.389  14.970  12.183 291.728
 Approx polarizability: 269.011-116.685 229.383  -2.628  30.416 334.489

                      1                      2                      3
                      A                      A                      A
 Frequencies --     32.7891                60.6383               149.1474
 Red. masses --     10.5511                 6.9407                 9.7362
 Frc consts  --      0.0067                 0.0150                 0.1276
 IR Inten    --     15.6985                 3.1197                 4.7356

                      4                      5                      6
                      A                      A                      A
 Frequencies --    151.6671               193.6347               241.3541
 Red. masses --     12.2839                 4.5117                18.1043
 Frc consts  --      0.1665                 0.0997                 0.6214
 IR Inten    --      7.1300                 0.1750                 0.1014

                      7                      8                      9
                      A                      A                      A
 Frequencies --    258.9880               278.7238               355.6080
 Red. masses --      4.2097                 9.1081                 4.6726
 Frc consts  --      0.1664                 0.4169                 0.3481
 IR Inten    --      8.5293                 6.4250                 8.9770

                     10                     11                     12
                      A                      A                      A
 Frequencies --    364.8192               384.1581               397.4128
 Red. masses --      9.5915                10.4279                 1.2666
 Frc consts  --      0.7521                 0.9067                 0.1179
 IR Inten    --     11.5340                14.1888               124.1980

                     13                     14                     15
                      A                      A                      A
 Frequencies --    471.0344               483.1892               508.4773
 Red. masses --     10.5023                 4.3990                 5.5476
 Frc consts  --      1.3729                 0.6051                 0.8451
 IR Inten    --      9.3251                 2.0318                27.0878

                     16                     17                     18
                      A                      A                      A
 Frequencies --    537.4611               544.5780               660.3582
 Red. masses --      7.6625                 4.4774                 5.7230
 Frc consts  --      1.3041                 0.7823                 1.4704
 IR Inten    --      8.0785                 0.9242                14.8803

                     19                     20                     21
                      A                      A                      A
 Frequencies --    677.4544               678.0117               701.7809
 Red. masses --      3.9437                 7.5532                 3.5320
 Frc consts  --      1.0664                 2.0458                 1.0249
 IR Inten    --     15.8039                19.9409                15.0377

                     22                     23                     24
                      A                      A                      A
 Frequencies --    766.2750               784.2940               804.2937
 Red. masses --      2.2271                 8.1737                 2.9688
 Frc consts  --      0.7705                 2.9623                 1.1315
 IR Inten    --     41.5758               205.1967                54.4433

                     25                     26                     27
                      A                      A                      A
 Frequencies --    810.8034               855.5732               889.9229
 Red. masses --      5.5694                 1.5167                 1.4420
 Frc consts  --      2.1572                 0.6541                 0.6729
 IR Inten    --     13.2545                37.8016                 0.0374

                     28                     29                     30
                      A                      A                      A
 Frequencies --    953.6477               982.8281              1060.8528
 Red. masses --      7.2146                 1.2873                 4.2868
 Frc consts  --      3.8658                 0.7326                 2.8424
 IR Inten    --    230.0629                 0.7346                 8.7711

                     31                     32                     33
                      A                      A                      A
 Frequencies --   1107.3431              1156.7784              1165.3238
 Red. masses --      1.8537                 2.2895                 1.7660
 Frc consts  --      1.3392                 1.8050                 1.4130
 IR Inten    --     62.7652               189.8877                58.6065

                     34                     35                     36
                      A                      A                      A
 Frequencies --   1198.6548              1226.8409              1279.2803
 Red. masses --      1.8011                 2.1024                 3.2229
 Frc consts  --      1.5247                 1.8644                 3.1076
 IR Inten    --      5.6310                 0.2628               152.3763

                     37                     38                     39
                      A                      A                      A
 Frequencies --   1286.4942              1348.0294              1379.9877
 Red. masses --      1.7773                 5.1504                 4.3460
 Frc consts  --      1.7331                 5.5143                 4.8763
 IR Inten    --     34.0281                17.7864                75.2059

                     40                     41                     42
                      A                      A                      A
 Frequencies --   1446.3344              1466.8328              1489.0922
 Red. masses --      3.1682                 3.3161                 6.9848
 Frc consts  --      3.9048                 4.2038                 9.1254
 IR Inten    --     63.3768               775.6518                76.4496

                     43                     44                     45
                      A                      A                      A
 Frequencies --   1523.0094              1555.5531              1611.5680
 Red. masses --      5.3204                 5.1381                 7.5096
 Frc consts  --      7.2710                 7.3252                11.4912
 IR Inten    --   1206.3610                86.9454                40.6557

                     46                     47                     48
                      A                      A                      A
 Frequencies --   1627.3148              3150.5878              3176.0516
 Red. masses --      6.0170                 1.0889                 1.0915
 Frc consts  --      9.3881                 6.3681                 6.4869
 IR Inten    --     29.0349                24.5570                20.2008

                     49                     50                     51
                      A                      A                      A
 Frequencies --   3186.1528              3202.4534              3791.2588
 Red. masses --      1.0909                 1.0927                 1.0660
 Frc consts  --      6.5249                 6.6026                 9.0277
 IR Inten    --      9.0535                15.8465               108.7461

 - Thermochemistry -
 -------------------
 Temperature   298.150 Kelvin.  Pressure   1.00000 Atm.
 Atom     1 has atomic number  6 and mass  12.00000

 Molecular mass:   251.94221 amu.
 Principal axes and moments of inertia in atomic units:
                           1         2         3
     Eigenvalues --  1926.542765170.703607097.10013
           X            0.73202  -0.25029   0.63365
           Y           -0.54897   0.33410   0.76617
           Z            0.40347   0.90870  -0.10716
 This molecule is an asymmetric top.
 Rotational symmetry number  1.
 Warning -- assumption of classical behavior for rotation
           may cause significant error
 Rotational temperatures (Kelvin)      0.04496     0.01675     0.01220
 Rotational constants (GHZ):           0.93678     0.34903     0.25429
 Zero-point vibrational energy     325472.3 (Joules/Mol)
                                   77.78975 (Kcal/Mol)
 Warning -- explicit consideration of  17 degrees of freedom as
           vibrations may cause significant error
 Vibrational temperatures:     47.18    87.25   214.59   218.22   278.60
          (Kelvin)            347.25   372.63   401.02   511.64   524.89
                              552.72   571.79   677.71   695.20   731.59
                              773.29   783.53   950.11   974.71   975.51
                             1009.71  1102.50  1128.42  1157.20  1166.57
                             1230.98  1280.40  1372.09  1414.07  1526.33
                             1593.22  1664.35  1676.64  1724.60  1765.15
                             1840.60  1850.98  1939.51  1985.49  2080.95
                             2110.45  2142.47  2191.27  2238.09  2318.69
                             2341.34  4532.99  4569.63  4584.16  4607.62
                             5454.78

 Zero-point correction=                           0.123966 (Hartree/Particle)
 Thermal correction to Energy=                    0.135398
 Thermal correction to Enthalpy=                  0.136342
 Thermal correction to Gibbs Free Energy=         0.084207
 Sum of electronic and zero-point Energies=          -3184.075787
 Sum of electronic and thermal Energies=             -3184.064355
 Sum of electronic and thermal Enthalpies=           -3184.063411
 Sum of electronic and thermal Free Energies=        -3184.115546

                     E (Thermal)             CV                S
                      KCal/Mol        Cal/Mol-Kelvin    Cal/Mol-Kelvin
 Total                   84.964             43.572            109.728
 Electronic               0.000              0.000              1.377
 Translational            0.889              2.981             42.472
 Rotational               0.889              2.981             32.625
 Vibrational             83.186             37.611             33.254
 Vibration     1          0.594              1.983              5.653
 Vibration     2          0.597              1.973              4.436
 Vibration     3          0.618              1.904              2.683
 Vibration     4          0.619              1.901              2.651
 Vibration     5          0.635              1.849              2.193
 Vibration     6          0.658              1.777              1.793
 Vibration     7          0.668              1.748              1.669
 Vibration     8          0.679              1.713              1.541
 Vibration     9          0.731              1.564              1.141
 Vibration    10          0.738              1.545              1.101
 Vibration    11          0.753              1.504              1.023
 Vibration    12          0.764              1.476              0.972
 Vibration    13          0.828              1.314              0.735
 Vibration    14          0.839              1.287              0.702
 Vibration    15          0.864              1.231              0.637
 Vibration    16          0.892              1.167              0.571
 Vibration    17          0.900              1.152              0.556

 Optimization completed.
    -- Stationary point found.
 Normal termination of Gaussian 16 at Sun Feb 11 15:29:34 2024.
