 Gaussian 16, Revision A.03,
 Gaussian 16:  ES64L-G16RevA.03 25-Dec-2016

 --------------------------------------
 #P UB3LYP/6-311++G(d,p) nosym opt freq
 --------------------------------------

 -------
 Radical
 -------
 Symbolic Z-matrix:
 Charge = -1 Multiplicity = 2

 SCF Done:  E(UB3LYP) =  -1608.21387683     A.U. after   26 cycles
 SCF Done:  E(UB3LYP) =  -1608.24214724     A.U. after   22 cycles
 SCF Done:  E(UB3LYP) =  -1608.24746736     A.U. after   19 cycles
 SCF Done:  E(UB3LYP) =  -1608.24796752     A.U. after   18 cycles
 SCF Done:  E(UB3LYP) =  -1608.24801286     A.U. after   17 cycles
 SCF Done:  E(UB3LYP) =  -1608.24801704     A.U. after   14 cycles
 SCF Done:  E(UB3LYP) =  -1608.24801954     A.U. after   13 cycles
 Optimization completed.
    -- Stationary point found.
 Normal termination of Gaussian 16 at Thu Dec 21 06:23:24 2023.

 ----------------------------------------------------------------------
 #P Geom=AllCheck Guess=TCheck SCRF=Check GenChk UB3LYP/6-311++G(d,p) F
 req
 ----------------------------------------------------------------------

 Structure from the checkpoint file:  "122-rad.chk"
 -------
 Radical
 -------
 Charge = -1 Multiplicity = 2

                          Input orientation:
 ---------------------------------------------------------------------
 Center     Atomic      Atomic             Coordinates (Angstroms)
 Number     Number       Type             X           Y           Z
 ---------------------------------------------------------------------
      1         17           0       -2.534700    2.776138    1.806748
      2          6           0       -2.408320    1.186320    1.031832
      3          6           0       -3.609073    0.505725    0.945560
      4          6           0       -3.660766   -0.767889    0.354729
      5          6           0       -2.507342   -1.332769   -0.137514
      6          6           0       -1.274256   -0.652931   -0.058064
      7          6           0       -0.104925   -1.332669   -0.608010
      8          8           0       -0.194769   -2.473631   -1.129159
      9          6           0        1.173161   -0.631436   -0.527799
     10          6           0        2.300566   -1.290370   -1.060323
     11          6           0        3.544573   -0.704536   -1.027820
     12          6           0        3.693680    0.569696   -0.455184
     13          6           0        2.598670    1.230047    0.071620
     14         17           0        2.976022    2.824125    0.750416
     15          6           0        1.290415    0.668954    0.063324
     16          6           0        0.107251    1.359231    0.621448
     17          8           0        0.196254    2.486713    1.136652
     18          6           0       -1.186566    0.647305    0.538472
     19          1           0       -4.504581    0.969671    1.339636
     20          1           0       -4.608737   -1.292773    0.292528
     21          1           0       -2.498665   -2.311330   -0.601054
     22          1           0        2.137660   -2.270356   -1.491205
     23          1           0        4.411046   -1.213293   -1.438207
     24          1           0        4.663403    1.050057   -0.418626
 ---------------------------------------------------------------------

 SCF Done:  E(UB3LYP) =  -1608.24801954     A.U. after    2 cycles

 Alpha  occ. eigenvalues -- -101.43021-101.43020 -18.95505 -18.95429 -10.12614
 Alpha  occ. eigenvalues --  -10.12613 -10.11685 -10.10575 -10.07603 -10.07602
 Alpha  occ. eigenvalues --  -10.07220 -10.07220 -10.07147 -10.07147 -10.06549
 Alpha  occ. eigenvalues --  -10.06547 -10.06120 -10.06120  -9.34494  -9.34493
 Alpha  occ. eigenvalues --   -7.10955  -7.10954  -7.10014  -7.10013  -7.09903
 Alpha  occ. eigenvalues --   -7.09902  -0.89118  -0.88226  -0.77324  -0.77238
 Alpha  occ. eigenvalues --   -0.72495  -0.71785  -0.67841  -0.63840  -0.62680
 Alpha  occ. eigenvalues --   -0.62222  -0.55707  -0.53128  -0.51781  -0.47134
 Alpha  occ. eigenvalues --   -0.44458  -0.42649  -0.41758  -0.36753  -0.36378
 Alpha  occ. eigenvalues --   -0.35912  -0.35686  -0.31908  -0.31895  -0.31455
 Alpha  occ. eigenvalues --   -0.31080  -0.29654  -0.29329  -0.27998  -0.27676
 Alpha  occ. eigenvalues --   -0.26696  -0.25358  -0.24520  -0.24507  -0.23390
 Alpha  occ. eigenvalues --   -0.21823  -0.21005  -0.20436  -0.18837  -0.15705
 Alpha  occ. eigenvalues --   -0.14594  -0.13702  -0.13644  -0.12446  -0.10639
 Alpha  occ. eigenvalues --   -0.02529
 Alpha virt. eigenvalues --    0.05386   0.07997   0.07999   0.08090   0.09908
 Alpha virt. eigenvalues --    0.10112   0.10357   0.11103   0.12098   0.12340
 Alpha virt. eigenvalues --    0.13741   0.14411   0.14526   0.15243   0.15730

  Beta  occ. eigenvalues -- -101.43020-101.43019 -18.94892 -18.94815 -10.12640
  Beta  occ. eigenvalues --  -10.12639 -10.11612 -10.10426 -10.07494 -10.07493
  Beta  occ. eigenvalues --  -10.07153 -10.07153 -10.07097 -10.07097 -10.06461
  Beta  occ. eigenvalues --  -10.06460 -10.06119 -10.06118  -9.34494  -9.34492
  Beta  occ. eigenvalues --   -7.10954  -7.10953  -7.10010  -7.10009  -7.09903
  Beta  occ. eigenvalues --   -7.09902  -0.88097  -0.87166  -0.77170  -0.77162
  Beta  occ. eigenvalues --   -0.72326  -0.71716  -0.67461  -0.63626  -0.62413
  Beta  occ. eigenvalues --   -0.62108  -0.55025  -0.52957  -0.51522  -0.47055
  Beta  occ. eigenvalues --   -0.44244  -0.42402  -0.41656  -0.36676  -0.36084
  Beta  occ. eigenvalues --   -0.35772  -0.35595  -0.31876  -0.31850  -0.30950
  Beta  occ. eigenvalues --   -0.30485  -0.29314  -0.28946  -0.27759  -0.27335
  Beta  occ. eigenvalues --   -0.25315  -0.24953  -0.24384  -0.23174  -0.23147
  Beta  occ. eigenvalues --   -0.21662  -0.20361  -0.20248  -0.18784  -0.13972
  Beta  occ. eigenvalues --   -0.13502  -0.13393  -0.12604  -0.11878  -0.10119
  Beta virt. eigenvalues --    0.03407   0.06235   0.07995   0.08084   0.09144
  Beta virt. eigenvalues --    0.10093   0.10111   0.10355   0.11104   0.12090
  Beta virt. eigenvalues --    0.12340   0.13727   0.14438   0.14611   0.15763

 Mulliken charges and spin densities:
               1          2
     1  Cl   0.363240  -0.001781
     2  C    1.175120   0.009339
     3  C   -0.128401   0.062030
     4  C   -0.613652   0.030437
     5  C    0.345687   0.028396
     6  C    0.160728   0.018897
     7  C   -1.221518   0.069380
     8  O   -0.348648   0.230729
     9  C    0.160214   0.018838
    10  C    0.345866   0.028429
    11  C   -0.613778   0.030403
    12  C   -0.128203   0.062042
    13  C    1.175599   0.009318
    14  Cl   0.363222  -0.001781
    15  C   -0.203310   0.093335
    16  C   -2.417425   0.010466
    17  O   -0.120649   0.226665
    18  C   -0.203504   0.093364
    19  H    0.158693  -0.004536
    20  H    0.127632  -0.002939
    21  H    0.168382  -0.001777
    22  H    0.168389  -0.001780
    23  H    0.127625  -0.002935
    24  H    0.158692  -0.004538
 Sum of Mulliken charges =  -1.00000   1.00000

 Dipole moment (field-independent basis, Debye):
    X=             -0.2455    Y=             -3.1035    Z=             -1.4195  Tot=              3.4215
 Quadrupole moment (field-independent basis, Debye-Ang):
   XX=           -131.9066   YY=           -153.2901   ZZ=           -129.8404
   XY=             -2.4409   XZ=              0.5385   YZ=            -13.6969

  Exact polarizability: 336.721  12.418 234.337 -40.000  59.724 138.715
 Approx polarizability: 503.777  24.089 433.568 -54.950 121.914 233.693

 ******    1 imaginary frequencies (negative Signs) ******

                      1                      2                      3
                      A                      A                      A
 Frequencies --    -33.7087                34.2783                64.7340
 Red. masses --     14.2315                10.2185                 7.5863
 Frc consts  --      0.0095                 0.0071                 0.0187
 IR Inten    --      3.1682                 0.0000                 3.3192

                      4                      5                      6
                      A                      A                      A
 Frequencies --    146.9743               161.9242               187.6179
 Red. masses --     19.2641                 7.7328                 4.4647
 Frc consts  --      0.2452                 0.1195                 0.0926
 IR Inten    --      2.3505                 1.7925                 0.0000

                      7                      8                      9
                      A                      A                      A
 Frequencies --    210.4350               232.1774               260.8293
 Red. masses --      5.1343                17.4127                 6.1034
 Frc consts  --      0.1340                 0.5530                 0.2446
 IR Inten    --      0.6117                 0.0158                 0.0000

                     10                     11                     12
                      A                      A                      A
 Frequencies --    302.1028               333.0891               381.8766
 Red. masses --      8.1494                15.1823                 9.5165
 Frc consts  --      0.4382                 0.9924                 0.8177
 IR Inten    --      0.2032                 0.2026                 2.3342

                     13                     14                     15
                      A                      A                      A
 Frequencies --    384.8986               399.9853               410.0926
 Red. masses --      6.8082                13.1722                 6.3349
 Frc consts  --      0.5943                 1.2416                 0.6277
 IR Inten    --      2.6439                 4.3259                 0.0005

                     16                     17                     18
                      A                      A                      A
 Frequencies --    422.3461               484.3905               497.6011
 Red. masses --      8.8246                 9.1818                 5.0945
 Frc consts  --      0.9274                 1.2693                 0.7432
 IR Inten    --      4.3327                 4.5644                 2.8785

                     19                     20                     21
                      A                      A                      A
 Frequencies --    500.2320               500.8598               554.7912
 Red. masses --      4.0973                11.9383                 5.4332
 Frc consts  --      0.6041                 1.7645                 0.9853
 IR Inten    --      0.0002                 0.9866                 0.0000

                     22                     23                     24
                      A                      A                      A
 Frequencies --    618.1356               631.9579               686.8323
 Red. masses --      6.5968                 4.6088                 7.5048
 Frc consts  --      1.4851                 1.0845                 2.0859
 IR Inten    --     23.3993                 2.7032                17.1981

                     25                     26                     27
                      A                      A                      A
 Frequencies --    715.7773               725.2685               728.4797
 Red. masses --      3.3595                 9.0584                 2.5609
 Frc consts  --      1.0141                 2.8074                 0.8007
 IR Inten    --      0.0000                19.1640                58.5582

                     28                     29                     30
                      A                      A                      A
 Frequencies --    760.9336               778.4144               783.9256
 Red. masses --      6.5614                 2.4406                 1.4984
 Frc consts  --      2.2384                 0.8713                 0.5425
 IR Inten    --     47.3398                34.0554                 0.0003

                     31                     32                     33
                      A                      A                      A
 Frequencies --    818.5488               848.9813               892.6154
 Red. masses --      3.9448                 8.9161                 1.3948
 Frc consts  --      1.5573                 3.7864                 0.6548
 IR Inten    --     16.3752                70.5977                 0.0008

                     34                     35                     36
                      A                      A                      A
 Frequencies --    892.7753               924.5748               975.1487
 Red. masses --      1.3591                 6.8637                 7.8916
 Frc consts  --      0.6383                 3.4570                 4.4214
 IR Inten    --      0.0000                 3.0082                 0.0010

                     37                     38                     39
                      A                      A                      A
 Frequencies --    984.9130               987.8788              1082.5400
 Red. masses --      1.2947                 1.3207                 2.4665
 Frc consts  --      0.7400                 0.7594                 1.7030
 IR Inten    --      0.0012                 2.7956                 1.8012

                     40                     41                     42
                      A                      A                      A
 Frequencies --   1089.8154              1123.2844              1127.4659
 Red. masses --      1.9819                 2.1703                 3.4183
 Frc consts  --      1.3869                 1.6134                 2.5602
 IR Inten    --     77.0331                 1.8423                18.1647

                     43                     44                     45
                      A                      A                      A
 Frequencies --   1150.3509              1173.6353              1188.9650
 Red. masses --      2.5717                 2.0209                 1.6318
 Frc consts  --      2.0050                 1.6401                 1.3591
 IR Inten    --     75.8340                10.7042                 0.6624

                     46                     47                     48
                      A                      A                      A
 Frequencies --   1213.2500              1228.6461              1310.9161
 Red. masses --      1.9061                 2.3606                 3.4619
 Frc consts  --      1.6531                 2.0995                 3.5052
 IR Inten    --      6.1482                52.7198                 6.1212

                     49                     50                     51
                      A                      A                      A
 Frequencies --   1333.3517              1348.8540              1388.2700
 Red. masses --      9.7370                 4.8308                 3.5623
 Frc consts  --     10.1992                 5.1784                 4.0451
 IR Inten    --     14.0352                42.1393               229.7743

                     52                     53                     54
                      A                      A                      A
 Frequencies --   1407.8734              1454.7856              1464.5337
 Red. masses --      2.9802                 2.5593                 3.2348
 Frc consts  --      3.4804                 3.1913                 4.0879
 IR Inten    --     42.0038                10.4663                79.4602

                     55                     56                     57
                      A                      A                      A
 Frequencies --   1517.1039              1548.6836              1552.5011
 Red. masses --      5.9797                 5.3478                 6.3972
 Frc consts  --      8.1089                 7.5571                 9.0846
 IR Inten    --    561.6727               126.8431               137.7740

                     58                     59                     60
                      A                      A                      A
 Frequencies --   1606.9954              1609.6511              1625.0894
 Red. masses --      5.5243                 8.7940                 7.6448
 Frc consts  --      8.4054                13.4245                11.8952
 IR Inten    --     11.7940                10.3203                44.6828

                     61                     62                     63
                      A                      A                      A
 Frequencies --   3151.4811              3151.6221              3186.8199
 Red. masses --      1.0870                 1.0873                 1.0917
 Frc consts  --      6.3606                 6.3628                 6.5324
 IR Inten    --     28.1789                28.6499                11.9054

                     64                     65                     66
                      A                      A                      A
 Frequencies --   3186.9620              3195.5628              3196.2033
 Red. masses --      1.0917                 1.0927                 1.0929
 Frc consts  --      6.5327                 6.5744                 6.5783
 IR Inten    --      9.3543                28.0666                 4.1574

 - Thermochemistry -
 -------------------
 Temperature   298.150 Kelvin.  Pressure   1.00000 Atm.
 Atom     1 has atomic number 17 and mass  34.96885

 Molecular mass:   275.97448 amu.
 Principal axes and moments of inertia in atomic units:
                           1         2         3
     Eigenvalues --  3460.675025992.827889453.50252
           X            0.98206   0.07155   0.17446
           Y            0.00857   0.90732  -0.42036
           Z           -0.18837   0.41431   0.89043
 This molecule is an asymmetric top.
 Rotational symmetry number  1.
 Warning -- assumption of classical behavior for rotation
           may cause significant error
 Rotational temperatures (Kelvin)      0.02503     0.01445     0.00916
 Rotational constants (GHZ):           0.52150     0.30115     0.19091
    1 imaginary frequencies ignored.
 Zero-point vibrational energy     411764.3 (Joules/Mol)
                                   98.41402 (Kcal/Mol)
 Warning -- explicit consideration of  21 degrees of freedom as
           vibrations may cause significant error
 Vibrational temperatures:     49.32    93.14   211.46   232.97   269.94
          (Kelvin)            302.77   334.05   375.28   434.66   479.24
                              549.44   553.78   575.49   590.03   607.66
                              696.93   715.94   719.72   720.63   798.22
                              889.36   909.25   988.20  1029.84  1043.50
                             1048.12  1094.81  1119.96  1127.89  1177.71
                             1221.49  1284.27  1284.50  1330.26  1403.02
                             1417.07  1421.34  1557.53  1568.00  1616.16
                             1622.17  1655.10  1688.60  1710.66  1745.60
                             1767.75  1886.12  1918.40  1940.70  1997.41
                             2025.62  2093.11  2107.14  2182.77  2228.21
                             2233.70  2312.11  2315.93  2338.14  4534.28
                             4534.48  4585.12  4585.33  4597.70  4598.62

 Zero-point correction=                           0.156833 (Hartree/Particle)
 Thermal correction to Energy=                    0.169822
 Thermal correction to Enthalpy=                  0.170766
 Thermal correction to Gibbs Free Energy=         0.115765
 Sum of electronic and zero-point Energies=          -1608.091187
 Sum of electronic and thermal Energies=             -1608.078198
 Sum of electronic and thermal Enthalpies=           -1608.077254
 Sum of electronic and thermal Free Energies=        -1608.132254

                     E (Thermal)             CV                S
                      KCal/Mol        Cal/Mol-Kelvin    Cal/Mol-Kelvin
 Total                  106.565             52.142            115.759
 Electronic               0.000              0.000              1.377
 Translational            0.889              2.981             42.744
 Rotational               0.889              2.981             33.638
 Vibrational            104.787             46.180             37.999
 Vibration     1          0.594              1.983              5.565
 Vibration     2          0.597              1.971              4.307
 Vibration     3          0.617              1.906              2.711
 Vibration     4          0.622              1.889              2.527
 Vibration     5          0.632              1.857              2.251
 Vibration     6          0.643              1.825              2.040
 Vibration     7          0.653              1.792              1.862
 Vibration     8          0.669              1.744              1.656
 Vibration     9          0.694              1.670              1.405
 Vibration    10          0.715              1.609              1.245
 Vibration    11          0.751              1.509              1.032
 Vibration    12          0.754              1.502              1.020
 Vibration    13          0.766              1.470              0.963
 Vibration    14          0.774              1.448              0.926
 Vibration    15          0.785              1.422              0.884
 Vibration    16          0.841              1.285              0.698
 Vibration    17          0.853              1.255              0.664
 Vibration    18          0.856              1.249              0.658
 Vibration    19          0.856              1.248              0.656
 Vibration    20          0.910              1.129              0.534
 Vibration    21          0.978              0.994              0.419

                           ! Non-Optimized Parameters !
 Normal termination of Gaussian 16 at Thu Dec 21 07:34:06 2023.
