 Gaussian 16, Revision A.03,
 Gaussian 16:  ES64L-G16RevA.03 25-Dec-2016

 --------------------------------------
 #P UB3LYP/6-311++G(d,p) nosym opt freq
 --------------------------------------

 --------
 Oxidized
 --------
 Symbolic Z-matrix:
 Charge =  0 Multiplicity = 1

 SCF Done:  E(UB3LYP) =  -5721.66592160     A.U. after   16 cycles
 SCF Done:  E(UB3LYP) =  -5721.66726370     A.U. after   13 cycles
 SCF Done:  E(UB3LYP) =  -5721.66732566     A.U. after   12 cycles
 SCF Done:  E(UB3LYP) =  -5721.66732611     A.U. after   10 cycles
 SCF Done:  E(UB3LYP) =  -5721.66732936     A.U. after   10 cycles
 Optimization completed.
    -- Stationary point found.
 Normal termination of Gaussian 16 at Tue Dec 26 20:13:14 2023.

 ----------------------------------------------------------------------
 #P Geom=AllCheck Guess=TCheck SCRF=Check GenChk UB3LYP/6-311++G(d,p) F
 req
 ----------------------------------------------------------------------

 Structure from the checkpoint file:  "234.chk"
 --------
 Oxidized
 --------
 Charge =  0 Multiplicity = 1

                          Input orientation:
 ---------------------------------------------------------------------
 Center     Atomic      Atomic             Coordinates (Angstroms)
 Number     Number       Type             X           Y           Z
 ---------------------------------------------------------------------
      1          6           0        5.736437   -5.238565    1.114606
      2          6           0        6.683741   -5.112209    0.102578
      3          6           0        6.561466   -4.083067   -0.844344
      4          6           0        4.667033   -4.348745    1.192986
      5          6           0        4.546072   -3.321083    0.246567
      6          6           0        5.493006   -3.193975   -0.766035
      7          6           0        3.663629   -4.504340    2.287173
      8          6           0        2.527245   -3.529574    2.341382
      9          6           0        2.435582   -2.551975    1.419568
     10          6           0        3.404518   -2.362519    0.321376
     11          8           0        3.756381   -5.393003    3.116320
     12          8           0        3.268959   -1.457318   -0.485750
     13          1           0        5.818855   -6.027419    1.850823
     14          1           0        5.384634   -2.395303   -1.488384
     15         35           0        8.116361   -6.365320    0.060381
     16         35           0        7.816719   -3.847855   -2.255587
     17          6           0        1.538954   -3.714051    3.451473
     18          1           0        1.622000   -1.833731    1.437397
     19          1           0        2.038971   -3.659449    4.422385
     20          1           0        1.084773   -4.707388    3.398462
     21          1           0        0.754633   -2.958042    3.408263
 ---------------------------------------------------------------------

 SCF Done:  E(UB3LYP) =  -5721.66732936     A.U. after    1 cycles

 Alpha  occ. eigenvalues -- -482.85379-482.85375 -62.50656 -62.50652 -56.32706
 Alpha  occ. eigenvalues --  -56.32702 -56.32307 -56.32303 -56.32275 -56.32272
 Alpha  occ. eigenvalues --  -19.14663 -19.14140 -10.29529 -10.29141 -10.27381
 Alpha  occ. eigenvalues --  -10.27327 -10.23411 -10.22721 -10.22613 -10.22365
 Alpha  occ. eigenvalues --  -10.22309 -10.21733 -10.19309  -8.71627  -8.71624
 Alpha  occ. eigenvalues --   -6.54812  -6.54809  -6.53480  -6.53475  -6.53396
 Alpha  occ. eigenvalues --   -6.53393  -2.65898  -2.65895  -2.65529  -2.65525
 Alpha  occ. eigenvalues --   -2.65467  -2.65465  -2.64407  -2.64406  -2.64403
 Alpha  occ. eigenvalues --   -2.64403  -1.07989  -1.07316  -0.92674  -0.87331
 Alpha  occ. eigenvalues --   -0.84000  -0.83761  -0.78206  -0.77224  -0.73905
 Alpha  occ. eigenvalues --   -0.69473  -0.66317  -0.63641  -0.60496  -0.55668
 Alpha  occ. eigenvalues --   -0.53281  -0.52191  -0.48336  -0.47971  -0.47528
 Alpha  occ. eigenvalues --   -0.47462  -0.46462  -0.44292  -0.44028  -0.42737
 Alpha  occ. eigenvalues --   -0.42526  -0.41503  -0.41386  -0.39955  -0.39436
 Alpha  occ. eigenvalues --   -0.34344  -0.34270  -0.32882  -0.30847  -0.30142
 Alpha  occ. eigenvalues --   -0.29705  -0.28552  -0.28399  -0.27395
 Alpha virt. eigenvalues --   -0.13666  -0.07724  -0.05382  -0.05235  -0.01428
 Alpha virt. eigenvalues --   -0.00870  -0.00213   0.00927   0.01083   0.02110
 Alpha virt. eigenvalues --    0.02154   0.02452   0.03639   0.03671   0.04230

  Beta  occ. eigenvalues -- -482.85379-482.85375 -62.50656 -62.50652 -56.32706
  Beta  occ. eigenvalues --  -56.32702 -56.32307 -56.32303 -56.32275 -56.32272
  Beta  occ. eigenvalues --  -19.14663 -19.14140 -10.29529 -10.29141 -10.27381
  Beta  occ. eigenvalues --  -10.27327 -10.23411 -10.22721 -10.22613 -10.22365
  Beta  occ. eigenvalues --  -10.22309 -10.21733 -10.19309  -8.71627  -8.71624
  Beta  occ. eigenvalues --   -6.54812  -6.54809  -6.53480  -6.53475  -6.53396
  Beta  occ. eigenvalues --   -6.53393  -2.65898  -2.65895  -2.65529  -2.65525
  Beta  occ. eigenvalues --   -2.65467  -2.65465  -2.64407  -2.64406  -2.64403
  Beta  occ. eigenvalues --   -2.64403  -1.07989  -1.07316  -0.92674  -0.87331
  Beta  occ. eigenvalues --   -0.84000  -0.83761  -0.78206  -0.77224  -0.73905
  Beta  occ. eigenvalues --   -0.69473  -0.66317  -0.63641  -0.60496  -0.55668
  Beta  occ. eigenvalues --   -0.53281  -0.52191  -0.48336  -0.47971  -0.47528
  Beta  occ. eigenvalues --   -0.47462  -0.46462  -0.44292  -0.44028  -0.42737
  Beta  occ. eigenvalues --   -0.42526  -0.41503  -0.41386  -0.39955  -0.39436
  Beta  occ. eigenvalues --   -0.34344  -0.34270  -0.32882  -0.30847  -0.30142
  Beta  occ. eigenvalues --   -0.29705  -0.28552  -0.28399  -0.27395
  Beta virt. eigenvalues --   -0.13666  -0.07724  -0.05382  -0.05235  -0.01428
  Beta virt. eigenvalues --   -0.00870  -0.00213   0.00927   0.01083   0.02110
  Beta virt. eigenvalues --    0.02154   0.02452   0.03639   0.03671   0.04230

 Mulliken charges and spin densities:
               1          2
     1  C   -0.036103  -0.000000
     2  C    0.085067   0.000000
     3  C    0.030043  -0.000000
     4  C    0.264458  -0.000000
     5  C    0.744770   0.000000
     6  C   -0.111635   0.000000
     7  C   -0.719355   0.000000
     8  C    0.815970  -0.000000
     9  C   -0.359537   0.000000
    10  C   -1.042347  -0.000000
    11  O   -0.200740  -0.000000
    12  O   -0.216987   0.000000
    13  H    0.246648  -0.000000
    14  H    0.242288   0.000000
    15  Br  -0.104205   0.000000
    16  Br  -0.109506  -0.000000
    17  C   -0.256859   0.000000
    18  H    0.187299  -0.000000
    19  H    0.189709   0.000000
    20  H    0.189877   0.000000
    21  H    0.161145   0.000000
 Sum of Mulliken charges =   0.00000  -0.00000

 Dipole moment (field-independent basis, Debye):
    X=             -1.1448    Y=             -0.0478    Z=              1.1161  Tot=              1.5996
 Quadrupole moment (field-independent basis, Debye-Ang):
   XX=           -115.8028   YY=           -118.0356   ZZ=           -111.9203
   XY=              4.1711   XZ=             -1.3878   YZ=              2.9216

  Exact polarizability: 201.601 -44.076 162.961 -58.216 -33.874 179.368
 Approx polarizability: 286.633 -64.569 294.997 -64.551 -93.626 302.373

                      1                      2                      3
                      A                      A                      A
 Frequencies --     43.1248                52.1603               105.6622
 Red. masses --     11.6227                 6.0855                11.5524
 Frc consts  --      0.0127                 0.0098                 0.0760
 IR Inten    --      0.6256                 3.6272                 4.4066

                      4                      5                      6
                      A                      A                      A
 Frequencies --    126.4774               132.0250               134.2399
 Red. masses --     47.0552                10.8436                 1.2436
 Frc consts  --      0.4435                 0.1114                 0.0132
 IR Inten    --      0.0699                 0.1048                 0.0545

                      7                      8                      9
                      A                      A                      A
 Frequencies --    176.3045               185.6978               224.9795
 Red. masses --      2.6678                 4.7011                11.4283
 Frc consts  --      0.0489                 0.0955                 0.3408
 IR Inten    --      1.0106                 0.0770                 0.1931

                     10                     11                     12
                      A                      A                      A
 Frequencies --    240.8675               288.3533               299.3025
 Red. masses --     17.0907                 7.1325                 3.5565
 Frc consts  --      0.5842                 0.3494                 0.1877
 IR Inten    --      0.0700                 0.3303                 0.4961

                     13                     14                     15
                      A                      A                      A
 Frequencies --    377.6137               411.3008               415.8284
 Red. masses --      4.3375                 8.0037                 7.9221
 Frc consts  --      0.3644                 0.7977                 0.8071
 IR Inten    --      1.9465                31.2753                 4.5016

                     16                     17                     18
                      A                      A                      A
 Frequencies --    440.4253               459.0084               491.7585
 Red. masses --      3.2842                11.0211                 8.1878
 Frc consts  --      0.3753                 1.3681                 1.1666
 IR Inten    --      3.3969                13.2593                 6.8134

                     19                     20                     21
                      A                      A                      A
 Frequencies --    553.1332               579.3517               662.0086
 Red. masses --      8.6724                 7.2076                 4.1222
 Frc consts  --      1.5633                 1.4254                 1.0644
 IR Inten    --      0.0061                 6.9480                 0.0679

                     22                     23                     24
                      A                      A                      A
 Frequencies --    662.6506               685.5277               703.6866
 Red. masses --      5.4721                 6.8960                 3.6623
 Frc consts  --      1.4157                 1.9094                 1.0685
 IR Inten    --      0.2362                 4.3691                 8.4018

                     25                     26                     27
                      A                      A                      A
 Frequencies --    738.7002               785.7463               853.6270
 Red. masses --      6.5172                 6.9828                 6.1814
 Frc consts  --      2.0953                 2.5400                 2.6538
 IR Inten    --      5.9237                 0.4634                50.1186

                     28                     29                     30
                      A                      A                      A
 Frequencies --    910.6449               919.6679               948.0961
 Red. masses --      1.4086                 1.3243                 1.4754
 Frc consts  --      0.6882                 0.6599                 0.7814
 IR Inten    --     36.3068                 0.1975                 5.9803

                     31                     32                     33
                      A                      A                      A
 Frequencies --    968.5706              1031.1615              1058.0819
 Red. masses --      4.4950                 1.9081                 1.5339
 Frc consts  --      2.4845                 1.1954                 1.0118
 IR Inten    --     55.8345                 0.3269                 3.0648

                     34                     35                     36
                      A                      A                      A
 Frequencies --   1112.5735              1116.2573              1156.9552
 Red. masses --      2.2329                 3.0287                 4.6662
 Frc consts  --      1.6285                 2.2235                 3.6800
 IR Inten    --     13.7322                18.9382                 5.8078

                     37                     38                     39
                      A                      A                      A
 Frequencies --   1237.0061              1259.0211              1286.1812
 Red. masses --      1.9589                 1.3927                 5.7519
 Frc consts  --      1.7660                 1.3007                 5.6062
 IR Inten    --     16.6408                10.9455               455.3484

                     40                     41                     42
                      A                      A                      A
 Frequencies --   1319.9423              1351.0570              1393.5642
 Red. masses --     10.5828                 2.5492                 5.5730
 Frc consts  --     10.8632                 2.7415                 6.3766
 IR Inten    --     12.4777                95.3807                15.8900

                     43                     44                     45
                      A                      A                      A
 Frequencies --   1416.5055              1466.5588              1476.6731
 Red. masses --      1.3273                 1.0432                 1.7169
 Frc consts  --      1.5692                 1.3219                 2.2058
 IR Inten    --     17.1246                 9.4335                 9.2785

                     46                     47                     48
                      A                      A                      A
 Frequencies --   1480.3062              1580.9731              1599.7151
 Red. masses --      1.4791                10.3080                 6.8579
 Frc consts  --      1.9096                15.1800                10.3402
 IR Inten    --      3.9832                14.0931               142.3791

                     49                     50                     51
                      A                      A                      A
 Frequencies --   1673.5944              1720.5379              1726.0591
 Red. masses --      7.8385                11.0672                12.2221
 Frc consts  --     12.9355                19.3026                21.4539
 IR Inten    --     74.3088                44.4812               370.0905

                     52                     53                     54
                      A                      A                      A
 Frequencies --   3037.5088              3088.1420              3125.2030
 Red. masses --      1.0359                 1.0986                 1.1033
 Frc consts  --      5.6312                 6.1730                 6.3488
 IR Inten    --      7.2686                 4.8828                12.0562

                     55                     56                     57
                      A                      A                      A
 Frequencies --   3171.4806              3207.3373              3209.1979
 Red. masses --      1.0917                 1.0912                 1.0915
 Frc consts  --      6.4695                 6.6137                 6.6234
 IR Inten    --      6.1832                 6.3284                 3.3303

 - Thermochemistry -
 -------------------
 Temperature   298.150 Kelvin.  Pressure   1.00000 Atm.
 Atom     1 has atomic number  6 and mass  12.00000

 Molecular mass:   327.87345 amu.
 Principal axes and moments of inertia in atomic units:
                           1         2         3
     Eigenvalues --  3098.581288519.62744**********
           X            0.82485  -0.15394   0.54398
           Y           -0.25604   0.75615   0.60222
           Z           -0.50404  -0.63603   0.58430
 This molecule is an asymmetric top.
 Rotational symmetry number  1.
 Warning -- assumption of classical behavior for rotation
           may cause significant error
 Rotational temperatures (Kelvin)      0.02795     0.01017     0.00746
 Rotational constants (GHZ):           0.58244     0.21183     0.15548
 Zero-point vibrational energy     364132.1 (Joules/Mol)
                                   87.02966 (Kcal/Mol)
 Warning -- explicit consideration of  20 degrees of freedom as
           vibrations may cause significant error
 Vibrational temperatures:     62.05    75.05   152.02   181.97   189.95
          (Kelvin)            193.14   253.66   267.18   323.70   346.55
                              414.88   430.63   543.30   591.77   598.28
                              633.67   660.41   707.53   795.84   833.56
                              952.48   953.41   986.32  1012.45  1062.82
                             1130.51  1228.18  1310.21  1323.20  1364.10
                             1393.56  1483.61  1522.34  1600.75  1606.05
                             1664.60  1779.78  1811.45  1850.53  1899.10
                             1943.87  2005.03  2038.04  2110.05  2124.60
                             2129.83  2274.67  2301.63  2407.93  2475.47
                             2483.41  4370.30  4443.15  4496.47  4563.05
                             4614.64  4617.32

 Zero-point correction=                           0.138691 (Hartree/Particle)
 Thermal correction to Energy=                    0.152214
 Thermal correction to Enthalpy=                  0.153158
 Thermal correction to Gibbs Free Energy=         0.096236
 Sum of electronic and zero-point Energies=          -5721.528639
 Sum of electronic and thermal Energies=             -5721.515116
 Sum of electronic and thermal Enthalpies=           -5721.514172
 Sum of electronic and thermal Free Energies=        -5721.571094

                     E (Thermal)             CV                S
                      KCal/Mol        Cal/Mol-Kelvin    Cal/Mol-Kelvin
 Total                   95.515             49.078            119.803
 Electronic               0.000              0.000              0.000
 Translational            0.889              2.981             43.258
 Rotational               0.889              2.981             34.082
 Vibrational             93.738             43.117             42.463
 Vibration     1          0.595              1.980              5.110
 Vibration     2          0.596              1.977              4.734
 Vibration     3          0.605              1.945              3.347
 Vibration     4          0.611              1.927              2.999
 Vibration     5          0.612              1.921              2.916
 Vibration     6          0.613              1.919              2.884
 Vibration     7          0.628              1.872              2.367
 Vibration     8          0.632              1.859              2.270
 Vibration     9          0.650              1.803              1.919
 Vibration    10          0.658              1.778              1.796
 Vibration    11          0.685              1.695              1.484
 Vibration    12          0.692              1.675              1.421
 Vibration    13          0.748              1.518              1.049
 Vibration    14          0.775              1.446              0.922
 Vibration    15          0.779              1.436              0.906
 Vibration    16          0.800              1.382              0.825
 Vibration    17          0.817              1.341              0.769
 Vibration    18          0.848              1.268              0.679
 Vibration    19          0.909              1.133              0.538
 Vibration    20          0.936              1.076              0.487

                           ! Non-Optimized Parameters !
 Normal termination of Gaussian 16 at Tue Dec 26 20:33:09 2023.
