 Q-Chem 5.4, Q-Chem, Inc., Pleasanton, CA (2021)
 Q-Chem 5.4.0 for Intel X86 EM64T Linux

User input:
--------------------------------------------------------------
$molecule
0 1
C                 -2.4346470000      1.9208130000     -0.0221870000
C                 -1.3162150000      0.9166000000     -0.0006920000
C                 -1.5437490000     -0.4133320000      0.1364030000
C                 -2.9304280000     -0.9766280000      0.2763930000
C                 -0.4163080000     -1.3949710000      0.1546290000
O                 -0.6325150000     -2.5911040000      0.2782180000
C                  0.9752860000     -0.8797150000      0.0186610000
C                  2.0498290000     -1.7724000000      0.0317770000
C                  3.3504210000     -1.2953720000     -0.0946960000
C                  3.5848780000      0.0748070000     -0.2348190000
C                  2.5188180000      0.9683420000     -0.2485640000
C                  1.2105150000      0.4950150000     -0.1219970000
C                  0.0714980000      1.4556710000     -0.1375380000
O                  0.2653830000      2.6558200000     -0.2592580000
H                 -3.1357920000      1.7076890000     -0.8353120000
H                 -3.0084600000      1.8860790000      0.9095750000
H                 -2.0413070000      2.9270240000     -0.1526680000
H                 -2.8934230000     -2.0588040000      0.3847320000
H                 -3.5414250000     -0.7317720000     -0.5984490000
H                 -3.4386860000     -0.5519430000      1.1479090000
H                  1.8454570000     -2.8301970000      0.1415180000
H                  4.1834110000     -1.9891170000     -0.0843980000
H                  4.5996510000      0.4433650000     -0.3331220000
H                  2.6778080000      2.0341270000     -0.3561170000
$end
$rem
MAX_SCF_CYCLES=200
BASIS  =  6-311++G(d,p)
GUI  =  2
JOB_TYPE  =  SP
METHOD  =  B3LYP
SOLVENT_METHOD = COSMO
$end
$solvent
dielectric 37.219
opticaldielectric 1.43
$end

--------------------------------------------------------------

             Standard Nuclear Orientation (Angstroms)
    I     Atom           X                Y                Z
 ----------------------------------------------------------------
    1      C       2.9655783698    -1.4773506667    -0.0011386589
    2      C       1.6924091984    -0.6780786104    -0.0005352013
    3      C       1.6923893205     0.6781239171     0.0002321707
    4      C       2.9655959693     1.4773254081     0.0004291330
    5      C       0.4141130512     1.4534176040     0.0002117096
    6      O       0.4254853511     2.6751477185     0.0004558269
    7      C      -0.8720588553     0.7009073644    -0.0000519084
    8      C      -2.0831315777     1.3973296083    -0.0003938898
    9      C      -3.2859521902     0.6985354658    -0.0004532897
   10      C      -3.2859160320    -0.6986026536    -0.0001276052
   11      C      -2.0830709949    -1.3973453477     0.0002027713
   12      C      -0.8720191952    -0.7008771628     0.0002052741
   13      C       0.4141377573    -1.4533806448     0.0002518959
   14      O       0.4255082148    -2.6751151346     0.0008202242
   15      H       3.5804866978    -1.2324162863    -0.8729719650
   16      H       3.5675852604    -1.2533226544     0.8854544764
   17      H       2.7467392082    -2.5432482156    -0.0143318396
   18      H       2.7468796615     2.5432725322     0.0118968773
   19      H       3.5682313258     1.2517956642    -0.8853401832
   20      H       3.5798420590     1.2337532458     0.8731249707
   21      H      -2.0600972894     2.4800183382    -0.0005676778
   22      H      -4.2250743724     1.2401164431    -0.0007464929
   23      H      -4.2250162752    -1.2402237885    -0.0001313377
   24      H      -2.0599737294    -2.4800316399     0.0004103542
 ----------------------------------------------------------------

    8    -613.9179963022      6.83e-06  Convergence criterion met
 Total energy in the final basis set =     -613.9179963022
    5    -613.9305629111      2.77e-06  Convergence criterion met
 Total energy in the final basis set =     -613.9305629111

                    Orbital Energies (a.u.)
 --------------------------------------------------------------

 Alpha MOs
 -- Occupied --
-19.1341 -19.1341 -10.2821 -10.2821 -10.2115 -10.2108 -10.2054 -10.2049
-10.1953 -10.1952 -10.1947 -10.1943 -10.1697 -10.1697  -1.0686  -1.0668
 -0.8886  -0.8499  -0.7866  -0.7760  -0.7468  -0.6993  -0.6765  -0.6302
 -0.6115  -0.5834  -0.5490  -0.5178  -0.5001  -0.4721  -0.4636  -0.4625
 -0.4553  -0.4491  -0.4251  -0.4233  -0.4170  -0.4117  -0.3975  -0.3949
 -0.3857  -0.3766  -0.3684  -0.3657  -0.2912  -0.2900  -0.2771  -0.2742
 -0.2700

          Ground-State Mulliken Net Atomic Charges

     Atom                 Charge (a.u.)
  ----------------------------------------
      1 C                    -0.432369
      2 C                     0.898036
      3 C                     0.897176
      4 C                    -0.432826
      5 C                    -1.177656
      6 O                    -0.302755
      7 C                     0.521853
      8 C                    -0.047181
      9 C                    -0.459479
     10 C                    -0.460183
     11 C                    -0.047064
     12 C                     0.522636
     13 C                    -1.178610
     14 O                    -0.302696
     15 H                     0.184669
     16 H                     0.187427
     17 H                     0.200242
     18 H                     0.200346
     19 H                     0.187114
     20 H                     0.184722
     21 H                     0.202141
     22 H                     0.226150
     23 H                     0.226163
     24 H                     0.202146
  ----------------------------------------
  Sum of atomic charges =     0.000000

                    Cartesian Multipole Moments
 -----------------------------------------------------------------
    Charge (ESU x 10^10)
                 0.0000
    Dipole Moment (Debye)
         X      -0.5604      Y       0.0017      Z      -0.0030
       Tot       0.5604
    Quadrupole Moments (Debye-Ang)
        XX     -58.3069     XY      -0.0001     YY     -99.2302
        XZ       0.0015     YZ      -0.0055     ZZ     -82.6440

 Total job time:  34.84s(wall), 236.97s(cpu)
        *  Thank you very much for using Q-Chem.  Have a nice day.  *
