 Q-Chem 5.4, Q-Chem, Inc., Pleasanton, CA (2021)
 Q-Chem 5.4.0 for Intel X86 EM64T Linux

User input:
--------------------------------------------------------------
$molecule
-2 1
O                 -1.1366480000      1.7761080000     -1.9042420000
C                 -0.8080010000      0.9048890000     -1.0296560000
C                 -1.7955550000     -0.0047080000     -0.4712000000
C                 -1.5180000000     -0.9616000000      0.4659320000
C                 -0.1982340000     -1.1972670000      1.0291380000
O                 -0.0092320000     -2.1105940000      1.9020900000
C                  0.8086520000     -0.3193220000      0.5030180000
C                  0.5115400000      0.7050170000     -0.5002180000
C                  1.5396670000      1.5441300000     -0.9858920000
N                  2.3861590000      2.2389770000     -1.3895730000
C                  2.1254040000     -0.4751520000      0.9918400000
N                  3.2117490000     -0.6073470000      1.3976610000
H                 -2.8096010000      0.1182470000     -0.8514050000
H                 -2.3078990000     -1.6113780000      0.8425060000
$end
$rem
MAX_SCF_CYCLES=200
BASIS  =  6-311++G(d,p)
GUI  =  2
JOB_TYPE  =  SP
METHOD  =  B3LYP
SOLVENT_METHOD = COSMO
$end
$solvent
dielectric 37.219
opticaldielectric 1.43
$end

--------------------------------------------------------------

             Standard Nuclear Orientation (Angstroms)
    I     Atom           X                Y                Z
 ----------------------------------------------------------------
    1      O       2.7778563770     0.9730518376    -0.0003463647
    2      C       1.5024685217     0.9001339974     0.0005890996
    3      C       0.6839270373     2.1020041575    -0.0002269408
    4      C      -0.6838797700     2.1020257347    -0.0002059139
    5      C      -1.5024455154     0.9001640176     0.0006667201
    6      O      -2.7778328302     0.9730977244    -0.0003486801
    7      C      -0.7321247080    -0.3114526382     0.0005007403
    8      C       0.7321254055    -0.3114819996     0.0004406882
    9      C       1.4432587410    -1.5326798788     0.0001117576
   10      N       2.0341507436    -2.5392412852    -0.0003192473
   11      C      -1.4432636425    -1.5326598785     0.0002592556
   12      N      -2.0342435957    -2.5391656191    -0.0004823922
   13      H       1.2362204778     3.0416501783    -0.0008395661
   14      H      -1.2361553049     3.0416805843    -0.0008010395
 ----------------------------------------------------------------

   11    -566.1454892179      3.09e-06  Convergence criterion met
 Total energy in the final basis set =     -566.1454892179
    6    -566.4259098465      5.81e-06  Convergence criterion met
 Total energy in the final basis set =     -566.4259098465

                    Orbital Energies (a.u.)
 --------------------------------------------------------------

 Alpha MOs
 -- Occupied --
-19.0522 -19.0522 -14.2958 -14.2958 -10.2152 -10.2152 -10.2029 -10.2029
-10.1779 -10.1776 -10.1612 -10.1606  -0.9741  -0.9710  -0.8988  -0.8933
 -0.8174  -0.7554  -0.7042  -0.6322  -0.5941  -0.4996  -0.4948  -0.4711
 -0.4294  -0.4053  -0.3987  -0.3785  -0.3747  -0.3663  -0.3638  -0.3607
 -0.3477  -0.3323  -0.3259  -0.3225  -0.2578  -0.2420  -0.2302  -0.2288
 -0.1574

          Ground-State Mulliken Net Atomic Charges

     Atom                 Charge (a.u.)
  ----------------------------------------
      1 O                    -0.657959
      2 C                    -0.681548
      3 C                     0.056635
      4 C                     0.057005
      5 C                    -0.681196
      6 O                    -0.657943
      7 C                     1.636048
      8 C                     1.636744
      9 C                    -1.140607
     10 N                    -0.414657
     11 C                    -1.140743
     12 N                    -0.414575
     13 H                     0.201394
     14 H                     0.201404
  ----------------------------------------
  Sum of atomic charges =    -2.000000

                    Cartesian Multipole Moments
 -----------------------------------------------------------------
    Charge (ESU x 10^10)
                -9.6064
    Dipole Moment (Debye)
         X      -0.0000      Y       5.9593      Z       0.0033
       Tot       5.9593
    Quadrupole Moments (Debye-Ang)
        XX    -145.8853     XY      -0.0002     YY    -108.1196
        XZ      -0.0036     YZ      -0.0068     ZZ     -74.0014

 Total job time:  19.13s(wall), 138.95s(cpu)
        *  Thank you very much for using Q-Chem.  Have a nice day.  *
