 Q-Chem 5.4, Q-Chem, Inc., Pleasanton, CA (2021)
 Q-Chem 5.4.0 for Intel X86 EM64T Linux

User input:
--------------------------------------------------------------
$molecule
0 1
C                 -2.0354440000      3.0102280000      0.5322580000
C                 -2.7647160000      2.3199090000      1.4954690000
C                 -2.3086120000      1.0867450000      1.9648750000
C                 -0.8479520000      2.4638110000      0.0395770000
C                 -0.3865980000      1.2233060000      0.5096540000
C                 -1.1244690000      0.5394640000      1.4742480000
C                 -0.0641050000      3.1822750000     -0.9814950000
C                  1.1984350000      2.5571580000     -1.4701710000
C                  1.6589580000      1.3568770000     -1.0393730000
C                  0.8888770000      0.6237360000     -0.0127620000
O                 -0.3854740000      4.2658560000     -1.4565850000
O                  1.2747290000     -0.4577260000      0.4088550000
H                 -2.3689900000      3.9681250000      0.1523100000
H                 -3.6864120000      2.7403950000      1.8806600000
H                 -2.8781760000      0.5505150000      2.7154610000
H                 -0.7566030000     -0.4159150000      1.8272730000
C                  2.9417390000      0.7570500000     -1.5424070000
O                  1.8469380000      3.2884440000     -2.3913400000
H                  3.1161240000      1.0930480000     -2.5677970000
H                  2.8348080000     -0.3304370000     -1.5531530000
H                  1.3040050000      4.0872030000     -2.5330920000
C                  4.1592780000      1.1313140000     -0.6698780000
C                  5.4626720000      0.5109590000     -1.1833080000
C                  6.6848360000      0.8766210000     -0.3334930000
H                  3.9760080000      0.8012310000      0.3581380000
H                  4.2583480000      2.2223490000     -0.6411750000
H                  5.6328940000      0.8311430000     -2.2193560000
H                  5.3553430000     -0.5807240000     -1.2139130000
H                  6.5137690000      0.5558790000      0.7021290000
H                  6.7885600000      1.9689180000     -0.3003500000
C                  7.9925330000      0.2606030000     -0.8438230000
C                  9.2155200000      0.6263510000      0.0048460000
C                 10.5236990000      0.0102750000     -0.5039720000
C                 11.7468940000      0.3773750000      0.3439100000
C                 13.0552720000     -0.2384250000     -0.1641650000
C                 14.2791950000      0.1290010000      0.6825800000
C                 15.5814120000     -0.4907310000      0.1671070000
H                  8.1627210000      0.5804480000     -1.8800770000
H                  7.8887320000     -0.8316870000     -0.8767450000
H                  9.0447330000      0.3071560000      1.0411980000
H                  9.3191620000      1.7187660000      0.0375090000
H                 10.6939470000      0.3285350000     -1.5407360000
H                 10.4204490000     -1.0821690000     -0.5356190000
H                 11.5765700000      0.0593390000      1.3807510000
H                 11.8500920000      1.4698940000      0.3753590000
H                 13.2264060000      0.0788690000     -1.2012610000
H                 12.9535000000     -1.3312160000     -0.1950420000
H                 14.1090740000     -0.1885070000      1.7186470000
H                 14.3816780000      1.2206860000      0.7130820000
H                 15.5228100000     -1.5838180000      0.1580260000
H                 16.4336100000     -0.2095660000      0.7922320000
H                 15.7975210000     -0.1639480000     -0.8550850000
$end
$rem
MAX_SCF_CYCLES=200
BASIS  =  6-311++G(d,p)
GUI  =  2
JOB_TYPE  =  SP
METHOD  =  B3LYP
SCF_ALGORITHM = RCA_DIIS
THRESH = 14
SOLVENT_METHOD = PCM
$end
$pcm
theory = CPCM
$end
$solvent
dielectric 37.219
opticaldielectric 1.43
$end

--------------------------------------------------------------

             Standard Nuclear Orientation (Angstroms)
    I     Atom           X                Y                Z
 ----------------------------------------------------------------
    1      C      -2.0354440000     3.0102280000     0.5322580000
    2      C      -2.7647160000     2.3199090000     1.4954690000
    3      C      -2.3086120000     1.0867450000     1.9648750000
    4      C      -0.8479520000     2.4638110000     0.0395770000
    5      C      -0.3865980000     1.2233060000     0.5096540000
    6      C      -1.1244690000     0.5394640000     1.4742480000
    7      C      -0.0641050000     3.1822750000    -0.9814950000
    8      C       1.1984350000     2.5571580000    -1.4701710000
    9      C       1.6589580000     1.3568770000    -1.0393730000
   10      C       0.8888770000     0.6237360000    -0.0127620000
   11      O      -0.3854740000     4.2658560000    -1.4565850000
   12      O       1.2747290000    -0.4577260000     0.4088550000
   13      H      -2.3689900000     3.9681250000     0.1523100000
   14      H      -3.6864120000     2.7403950000     1.8806600000
   15      H      -2.8781760000     0.5505150000     2.7154610000
   16      H      -0.7566030000    -0.4159150000     1.8272730000
   17      C       2.9417390000     0.7570500000    -1.5424070000
   18      O       1.8469380000     3.2884440000    -2.3913400000
   19      H       3.1161240000     1.0930480000    -2.5677970000
   20      H       2.8348080000    -0.3304370000    -1.5531530000
   21      H       1.3040050000     4.0872030000    -2.5330920000
   22      C       4.1592780000     1.1313140000    -0.6698780000
   23      C       5.4626720000     0.5109590000    -1.1833080000
   24      C       6.6848360000     0.8766210000    -0.3334930000
   25      H       3.9760080000     0.8012310000     0.3581380000
   26      H       4.2583480000     2.2223490000    -0.6411750000
   27      H       5.6328940000     0.8311430000    -2.2193560000
   28      H       5.3553430000    -0.5807240000    -1.2139130000
   29      H       6.5137690000     0.5558790000     0.7021290000
   30      H       6.7885600000     1.9689180000    -0.3003500000
   31      C       7.9925330000     0.2606030000    -0.8438230000
   32      C       9.2155200000     0.6263510000     0.0048460000
   33      C      10.5236990000     0.0102750000    -0.5039720000
   34      C      11.7468940000     0.3773750000     0.3439100000
   35      C      13.0552720000    -0.2384250000    -0.1641650000
   36      C      14.2791950000     0.1290010000     0.6825800000
   37      C      15.5814120000    -0.4907310000     0.1671070000
   38      H       8.1627210000     0.5804480000    -1.8800770000
   39      H       7.8887320000    -0.8316870000    -0.8767450000
   40      H       9.0447330000     0.3071560000     1.0411980000
   41      H       9.3191620000     1.7187660000     0.0375090000
   42      H      10.6939470000     0.3285350000    -1.5407360000
   43      H      10.4204490000    -1.0821690000    -0.5356190000
   44      H      11.5765700000     0.0593390000     1.3807510000
   45      H      11.8500920000     1.4698940000     0.3753590000
   46      H      13.2264060000     0.0788690000    -1.2012610000
   47      H      12.9535000000    -1.3312160000    -0.1950420000
   48      H      14.1090740000    -0.1885070000     1.7186470000
   49      H      14.3816780000     1.2206860000     0.7130820000
   50      H      15.5228100000    -1.5838180000     0.1580260000
   51      H      16.4336100000    -0.2095660000     0.7922320000
   52      H      15.7975210000    -0.1639480000    -0.8550850000
 ----------------------------------------------------------------

   18   -1043.1063972868      1.91E-06 Convergence criterion met
 Total energy in the final basis set = -1043.10639729

                    Orbital Energies (a.u.)
 --------------------------------------------------------------

 Alpha MOs
 -- Occupied --
-19.1779 -19.1494 -19.1299 -10.2934 -10.2811 -10.2668 -10.2104 -10.2092
-10.2032 -10.2004 -10.1984 -10.1968 -10.1966 -10.1747 -10.1654 -10.1590
-10.1583 -10.1571 -10.1562 -10.1559 -10.1558 -10.1556 -10.1555 -10.1519
 -1.1080  -1.0670  -1.0636  -0.8923  -0.8435  -0.8107  -0.8010  -0.7873
 -0.7797  -0.7693  -0.7451  -0.7171  -0.6945  -0.6730  -0.6544  -0.6395
 -0.6153  -0.6043  -0.5895  -0.5762  -0.5734  -0.5703  -0.5683  -0.5422
 -0.5182  -0.4974  -0.4830  -0.4781  -0.4723  -0.4700  -0.4678  -0.4559
 -0.4521  -0.4450  -0.4366  -0.4297  -0.4255  -0.4239  -0.4210  -0.4108
 -0.4080  -0.3992  -0.3978  -0.3864  -0.3792  -0.3779  -0.3755  -0.3698
 -0.3689  -0.3533  -0.3471  -0.3385  -0.3342  -0.3308  -0.3248  -0.3212
 -0.3195  -0.3168  -0.3160  -0.3039  -0.2968  -0.2893  -0.2799  -0.2794
 -0.2560

          Ground-State Mulliken Net Atomic Charges

     Atom                 Charge (a.u.)
  ----------------------------------------
      1 C                     0.116778
      2 C                    -0.397409
      3 C                    -0.418281
      4 C                     0.561576
      5 C                    -0.133684
      6 C                     0.123950
      7 C                    -0.820382
      8 C                    -0.450656
      9 C                     1.922960
     10 C                    -0.730377
     11 O                    -0.323685
     12 O                    -0.295529
     13 H                     0.203251
     14 H                     0.227032
     15 H                     0.223185
     16 H                     0.201724
     17 C                    -0.409636
     18 O                    -0.235277
     19 H                     0.240155
     20 H                     0.225335
     21 H                     0.321098
     22 C                    -0.903665
     23 C                    -0.350179
     24 C                    -0.040331
     25 H                     0.184043
     26 H                     0.184427
     27 H                     0.124691
     28 H                     0.128220
     29 H                     0.133480
     30 H                     0.133280
     31 C                     0.030908
     32 C                     0.057903
     33 C                    -0.044519
     34 C                    -0.314131
     35 C                    -0.508323
     36 C                    -0.303086
     37 C                    -0.711255
     38 H                     0.138012
     39 H                     0.138333
     40 H                     0.134354
     41 H                     0.134687
     42 H                     0.133485
     43 H                     0.133568
     44 H                     0.132021
     45 H                     0.131657
     46 H                     0.128854
     47 H                     0.128849
     48 H                     0.135398
     49 H                     0.135370
     50 H                     0.144716
     51 H                     0.152351
     52 H                     0.144754
  ----------------------------------------
  Sum of atomic charges =     0.000000

                    Cartesian Multipole Moments
 -----------------------------------------------------------------
    Charge (ESU x 10^10)
                -0.0000
    Dipole Moment (Debye)
         X      -2.5496      Y       1.2081      Z       1.3524
       Tot       3.1288
    Quadrupole Moments (Debye-Ang)
        XX    -141.8064     XY      -0.0009     YY    -152.2280
        XZ      -7.7559     YZ       2.9142     ZZ    -145.6484

 Total job time:  552.45s(wall), 2839.81s(cpu)
        *  Thank you very much for using Q-Chem.  Have a nice day.  *
