 Q-Chem 5.4, Q-Chem, Inc., Pleasanton, CA (2021)
 Q-Chem 5.4.0 for Intel X86 EM64T Linux

User input:
--------------------------------------------------------------
$molecule
0 1
N                 -4.6815940000      0.3903010000      0.3318700000
C                 -3.7041570000     -0.1485860000      0.6343970000
C                 -2.4970910000     -0.8079750000      1.0029970000
C                 -2.6259500000     -1.8998350000      1.9079670000
N                 -2.7257450000     -2.7872720000      2.6426990000
C                 -1.2656700000     -0.4094410000      0.5084000000
C                 -1.1526890000      0.7017260000     -0.4098970000
C                  0.0494580000      1.0905590000     -0.8928770000
C                  1.2655830000      0.4094150000     -0.5084400000
C                  1.1526420000     -0.7015170000      0.4100450000
C                 -0.0494770000     -1.0904270000      0.8930040000
C                  2.4970210000      0.8078750000     -1.0030090000
C                  3.7041120000      0.1484180000     -0.6345700000
N                  4.6815740000     -0.3905130000     -0.3321430000
C                  2.6260050000      1.8996520000     -1.9080990000
N                  2.7259140000      2.7868420000     -2.6429930000
H                 -2.0528800000      1.2245890000     -0.7093420000
H                  0.1141190000      1.9255000000     -1.5799680000
H                  2.0529570000     -1.2240580000      0.7097360000
H                 -0.1141320000     -1.9252510000      1.5802240000
$end
$rem
MAX_SCF_CYCLES=200
BASIS  =  6-311++G(d,p)
GUI  =  2
JOB_TYPE  =  SP
METHOD  =  B3LYP
SOLVENT_METHOD = COSMO
$end
$solvent
dielectric 37.219
opticaldielectric 1.43
$end

--------------------------------------------------------------

             Standard Nuclear Orientation (Angstroms)
    I     Atom           X                Y                Z
 ----------------------------------------------------------------
    1      N       4.1670008202    -2.1945254554    -0.0002650557
    2      C       3.5612612533    -1.2094445354    -0.0000873315
    3      C       2.8096770184     0.0000137091     0.0000981807
    4      C       3.5612293262     1.2095188647     0.0000001487
    5      N       4.1673960520     2.1943520758    -0.0001723805
    6      C       1.4240893402    -0.0000498183     0.0001499486
    7      C       0.6763392473    -1.2376264577     0.0003705401
    8      C      -0.6762945357    -1.2375983873     0.0001701856
    9      C      -1.4240206337    -0.0000142150    -0.0000949032
   10      C      -0.6763065612     1.2375090912    -0.0000188011
   11      C       0.6763169836     1.2375381924     0.0001200669
   12      C      -2.8095921454    -0.0000018485    -0.0000661085
   13      C      -3.5612365153     1.2094320086    -0.0000447884
   14      N      -4.1670213441     2.1945032801     0.0000308610
   15      C      -3.5612745143    -1.2094543748    -0.0000993330
   16      N      -4.1675293557    -2.1941432362    -0.0001944750
   17      H       1.2191344856    -2.1750537949     0.0007922895
   18      H      -1.2191334226    -2.1750030156     0.0004276478
   19      H      -1.2192167899     2.1748880832    -0.0000355617
   20      H       1.2191629403     2.1749287026     0.0000361463
 ----------------------------------------------------------------

    8    -678.7531586131      9.25e-06  Convergence criterion met
 Total energy in the final basis set =     -678.7531586131
    5    -678.7770513504      4.67e-06  Convergence criterion met
 Total energy in the final basis set =     -678.7770513504

                    Orbital Energies (a.u.)
 --------------------------------------------------------------

 Alpha MOs
 -- Occupied --
-14.3533 -14.3533 -14.3533 -14.3533 -10.2854 -10.2854 -10.2642 -10.2642
-10.2542 -10.2542 -10.2541 -10.2541 -10.2278 -10.2278 -10.2270 -10.2270
 -0.9620  -0.9600  -0.9469  -0.9469  -0.9226  -0.8828  -0.8336  -0.8064
 -0.7566  -0.6795  -0.6717  -0.6319  -0.5912  -0.5853  -0.5620  -0.4928
 -0.4838  -0.4745  -0.4605  -0.4467  -0.4413  -0.4154  -0.4145  -0.4120
 -0.4095  -0.4012  -0.3896  -0.3881  -0.3840  -0.3838  -0.3831  -0.3736
 -0.3710  -0.3389  -0.3120  -0.2657

          Ground-State Mulliken Net Atomic Charges

     Atom                 Charge (a.u.)
  ----------------------------------------
      1 N                    -0.218062
      2 C                    -1.444606
      3 C                     2.553176
      4 C                    -1.445083
      5 N                    -0.218060
      6 C                     1.723942
      7 C                    -0.672275
      8 C                    -0.669744
      9 C                     1.723809
     10 C                    -0.670181
     11 C                    -0.672137
     12 C                     2.555365
     13 C                    -1.445222
     14 N                    -0.217798
     15 C                    -1.445507
     16 N                    -0.217887
     17 H                     0.195235
     18 H                     0.194908
     19 H                     0.194868
     20 H                     0.195259
  ----------------------------------------
  Sum of atomic charges =     0.000000

                    Cartesian Multipole Moments
 -----------------------------------------------------------------
    Charge (ESU x 10^10)
                -0.0000
    Dipole Moment (Debye)
         X      -0.0020      Y      -0.0006      Z       0.0014
       Tot       0.0025
    Quadrupole Moments (Debye-Ang)
        XX    -154.3006     XY       0.0020     YY    -112.1895
        XZ       0.0037     YZ      -0.0035     ZZ     -90.3937

 Total job time:  56.67s(wall), 232.84s(cpu)
        *  Thank you very much for using Q-Chem.  Have a nice day.  *
