 Gaussian 16, Revision A.03,
 Gaussian 16:  ES64L-G16RevA.03 25-Dec-2016

 --------------------------------------
 #P UB3LYP/6-311++G(d,p) nosym opt freq
 --------------------------------------

 -------
 Radical
 -------
 Symbolic Z-matrix:
 Charge = -1 Multiplicity = 2

 SCF Done:  E(UB3LYP) =  -1379.53132727     A.U. after   21 cycles
 SCF Done:  E(UB3LYP) =  -1379.55092534     A.U. after   18 cycles
 SCF Done:  E(UB3LYP) =  -1379.55256536     A.U. after   17 cycles
 SCF Done:  E(UB3LYP) =  -1379.55272790     A.U. after   15 cycles
 SCF Done:  E(UB3LYP) =  -1379.55274257     A.U. after   16 cycles
 SCF Done:  E(UB3LYP) =  -1379.55279403     A.U. after   14 cycles
 SCF Done:  E(UB3LYP) =  -1379.55282745     A.U. after   13 cycles
 SCF Done:  E(UB3LYP) =  -1379.55295982     A.U. after   16 cycles
 SCF Done:  E(UB3LYP) =  -1379.55307695     A.U. after   17 cycles
 SCF Done:  E(UB3LYP) =  -1379.55324427     A.U. after   14 cycles
 SCF Done:  E(UB3LYP) =  -1379.55363511     A.U. after   15 cycles
 SCF Done:  E(UB3LYP) =  -1379.55369156     A.U. after   13 cycles
 SCF Done:  E(UB3LYP) =  -1379.55379227     A.U. after   15 cycles
 SCF Done:  E(UB3LYP) =  -1379.55383613     A.U. after   13 cycles
 SCF Done:  E(UB3LYP) =  -1379.55388421     A.U. after   14 cycles
 SCF Done:  E(UB3LYP) =  -1379.55388006     A.U. after   14 cycles
 SCF Done:  E(UB3LYP) =  -1379.55388695     A.U. after   14 cycles
 SCF Done:  E(UB3LYP) =  -1379.55388729     A.U. after   12 cycles
 SCF Done:  E(UB3LYP) =  -1379.55388767     A.U. after   12 cycles
 Optimization completed.
    -- Stationary point found.
 Normal termination of Gaussian 16 at Sun Dec 17 21:51:30 2023.

 ----------------------------------------------------------------------
 #P Geom=AllCheck Guess=TCheck SCRF=Check GenChk UB3LYP/6-311++G(d,p) F
 req
 ----------------------------------------------------------------------

 Structure from the checkpoint file:  "017-rad.chk"
 -------
 Radical
 -------
 Charge = -1 Multiplicity = 2

                          Input orientation:
 ---------------------------------------------------------------------
 Center     Atomic      Atomic             Coordinates (Angstroms)
 Number     Number       Type             X           Y           Z
 ---------------------------------------------------------------------
      1          6           0        2.547669   -0.894872   -0.135746
      2          6           0        1.252319   -0.142001    0.004105
      3          6           0        1.194750    1.190292    0.319276
      4         17           0        2.701550    2.091506    0.579101
      5          6           0       -0.023787    1.973958    0.468916
      6          8           0       -0.038451    3.187699    0.757266
      7          6           0       -1.223292    1.179101    0.243550
      8          6           0       -1.248743   -0.153541   -0.074329
      9          6           0       -2.525817   -0.918193   -0.295012
     10          6           0        0.010652   -0.882509   -0.209591
     11          8           0        0.025487   -2.111349   -0.501414
     12         17           0       -2.751675    2.066237    0.408508
     13          1           0        3.127473   -0.864603    0.792935
     14          1           0        2.328775   -1.931697   -0.389433
     15          1           0        3.179701   -0.457428   -0.915933
     16          1           0       -3.162814   -0.893924    0.595603
     17          1           0       -3.111851   -0.485915   -1.113073
     18          1           0       -2.281947   -1.952760   -0.534729
 ---------------------------------------------------------------------

 SCF Done:  E(UB3LYP) =  -1379.55388767     A.U. after    1 cycles

 Alpha  occ. eigenvalues -- -101.42152-101.42151 -18.95213 -18.94995 -10.10650
 Alpha  occ. eigenvalues --  -10.10030 -10.09667 -10.09666 -10.05861 -10.05860
 Alpha  occ. eigenvalues --  -10.04448 -10.04448  -9.33605  -9.33604  -7.10023
 Alpha  occ. eigenvalues --   -7.10023  -7.09145  -7.09144  -7.09051  -7.09050
 Alpha  occ. eigenvalues --   -0.88136  -0.87580  -0.74983  -0.73870  -0.67773
 Alpha  occ. eigenvalues --   -0.64704  -0.60379  -0.54531  -0.53417  -0.44253
 Alpha  occ. eigenvalues --   -0.43873  -0.38663  -0.33830  -0.32079  -0.30657
 Alpha  occ. eigenvalues --   -0.29926  -0.29322  -0.29189  -0.27777  -0.27508
 Alpha  occ. eigenvalues --   -0.26962  -0.24639  -0.24248  -0.23663  -0.22480
 Alpha  occ. eigenvalues --   -0.20348  -0.18833  -0.18039  -0.14652  -0.12190
 Alpha  occ. eigenvalues --   -0.11643  -0.11385  -0.03589
 Alpha virt. eigenvalues --    0.09026   0.09773   0.11024   0.11665   0.12474
 Alpha virt. eigenvalues --    0.12894   0.13462   0.13539   0.14381   0.15300
 Alpha virt. eigenvalues --    0.15716   0.16684   0.16765   0.17808   0.18381

  Beta  occ. eigenvalues -- -101.42148-101.42148 -18.94471 -18.94298 -10.10554
  Beta  occ. eigenvalues --  -10.09903 -10.09557 -10.09555 -10.05740 -10.05739
  Beta  occ. eigenvalues --  -10.04458 -10.04458  -9.33602  -9.33602  -7.10028
  Beta  occ. eigenvalues --   -7.10027  -7.09128  -7.09128  -7.09049  -7.09049
  Beta  occ. eigenvalues --   -0.86976  -0.86296  -0.74624  -0.73768  -0.67422
  Beta  occ. eigenvalues --   -0.64540  -0.60030  -0.54390  -0.52606  -0.43894
  Beta  occ. eigenvalues --   -0.43474  -0.38473  -0.33501  -0.31320  -0.30336
  Beta  occ. eigenvalues --   -0.29779  -0.29112  -0.29088  -0.27116  -0.26892
  Beta  occ. eigenvalues --   -0.26314  -0.23920  -0.23506  -0.22265  -0.22134
  Beta  occ. eigenvalues --   -0.19126  -0.18788  -0.17999  -0.11720  -0.11516
  Beta  occ. eigenvalues --   -0.10956  -0.10721
  Beta virt. eigenvalues --    0.03576   0.09049   0.09779   0.11718   0.12289
  Beta virt. eigenvalues --    0.12527   0.12905   0.13584   0.13666   0.14419
  Beta virt. eigenvalues --    0.15313   0.16758   0.16770   0.17787   0.18264

 Mulliken charges and spin densities:
               1          2
     1  C   -0.679423   0.002321
     2  C    0.716335   0.086024
     3  C    0.286357   0.066235
     4  Cl   0.367646   0.004038
     5  C   -1.259326   0.062691
     6  O   -0.283657   0.256273
     7  C    0.286422   0.066225
     8  C    0.716283   0.086009
     9  C   -0.679424   0.002322
    10  C   -1.376875   0.082457
    11  O   -0.373907   0.269985
    12  Cl   0.367644   0.004038
    13  H    0.134343   0.004030
    14  H    0.187337  -0.002363
    15  H    0.134278   0.004025
    16  H    0.134368   0.004032
    17  H    0.134267   0.004022
    18  H    0.187334  -0.002363
 Sum of Mulliken charges =  -1.00000   1.00000

 Dipole moment (field-independent basis, Debye):
    X=              0.0606    Y=             -5.0312    Z=             -1.1954  Tot=              5.1716
 Quadrupole moment (field-independent basis, Debye-Ang):
   XX=            -99.9284   YY=           -126.0958   ZZ=            -89.2960
   XY=              0.4111   XZ=             -0.2899   YZ=             -9.2687

  Exact polarizability: 175.373  -0.736 177.257   2.723  23.247  85.052
 Approx polarizability: 231.100  -1.838 316.607   2.837  46.079 133.714

                      1                      2                      3
                      A                      A                      A
 Frequencies --     79.0149                85.3860               101.1594
 Red. masses --      8.5978                 2.5645                 1.2507
 Frc consts  --      0.0316                 0.0110                 0.0075
 IR Inten    --      5.8634                 0.0000                 1.3816

                      4                      5                      6
                      A                      A                      A
 Frequencies --    113.5130               133.1372               187.5639
 Red. masses --      1.2099                 3.1868                 5.7133
 Frc consts  --      0.0092                 0.0333                 0.1184
 IR Inten    --      0.0002                 2.0684                 1.2038

                      7                      8                      9
                      A                      A                      A
 Frequencies --    203.6972               252.4632               297.3888
 Red. masses --     22.9352                 7.1806                 3.0597
 Frc consts  --      0.5607                 0.2697                 0.1594
 IR Inten    --      0.8514                 0.8683                 3.2234

                     10                     11                     12
                      A                      A                      A
 Frequencies --    305.6062               308.7429               366.0473
 Red. masses --      9.5665                 5.4206                 8.9520
 Frc consts  --      0.5264                 0.3044                 0.7067
 IR Inten    --      1.4149                 0.0000                 0.1597

                     13                     14                     15
                      A                      A                      A
 Frequencies --    377.4576               392.0155               412.0702
 Red. masses --      5.0487                 7.3134                 7.8616
 Frc consts  --      0.4238                 0.6622                 0.7865
 IR Inten    --      0.3541                 0.0539                14.2856

                     16                     17                     18
                      A                      A                      A
 Frequencies --    492.1712               539.1631               586.6214
 Red. masses --     12.5461                 5.8431                 5.2654
 Frc consts  --      1.7906                 1.0008                 1.0676
 IR Inten    --      0.0601                 0.0000                 8.4202

                     19                     20                     21
                      A                      A                      A
 Frequencies --    698.1189               706.2198               716.7217
 Red. masses --      4.4062                 7.8107                11.6761
 Frc consts  --      1.2652                 2.2952                 3.5339
 IR Inten    --      4.7127                 7.4545                95.6263

                     22                     23                     24
                      A                      A                      A
 Frequencies --    745.1622               864.9340               981.0695
 Red. masses --      8.2489                 3.4641                 6.1011
 Frc consts  --      2.6987                 1.5269                 3.4598
 IR Inten    --      0.1723                56.6574                 5.7408

                     25                     26                     27
                      A                      A                      A
 Frequencies --   1008.3742              1045.8478              1047.8552
 Red. masses --      2.8895                 1.6592                 1.4620
 Frc consts  --      1.7311                 1.0693                 0.9458
 IR Inten    --     84.5446                28.1044                 0.1651

                     28                     29                     30
                      A                      A                      A
 Frequencies --   1048.0470              1093.2335              1163.2416
 Red. masses --      1.4275                 3.9364                 8.8491
 Frc consts  --      0.9238                 2.7719                 7.0548
 IR Inten    --      0.0197                 0.9586                59.8140

                     31                     32                     33
                      A                      A                      A
 Frequencies --   1249.5004              1351.0484              1385.9431
 Red. masses --      4.4909                 3.6518                 1.3454
 Frc consts  --      4.1310                 3.9273                 1.5226
 IR Inten    --     54.2815                13.6405                42.9880

                     34                     35                     36
                      A                      A                      A
 Frequencies --   1395.3694              1476.3933              1482.3073
 Red. masses --      1.4153                 1.1059                 1.1507
 Frc consts  --      1.6236                 1.4202                 1.4897
 IR Inten    --      0.4399                52.5296                 0.1682

                     37                     38                     39
                      A                      A                      A
 Frequencies --   1495.8887              1496.1917              1508.9604
 Red. masses --      1.0466                 1.0464                 6.4510
 Frc consts  --      1.3798                 1.3802                 8.6543
 IR Inten    --     12.6085                 0.2960               186.2815

                     40                     41                     42
                      A                      A                      A
 Frequencies --   1514.6923              1553.6156              1616.6983
 Red. masses --      7.6270                11.8620                10.2343
 Frc consts  --     10.3098                16.8692                15.7603
 IR Inten    --     13.2084               221.3430                 0.3607

                     43                     44                     45
                      A                      A                      A
 Frequencies --   3011.8864              3012.6787              3051.8755
 Red. masses --      1.0387                 1.0388                 1.0994
 Frc consts  --      5.5518                 5.5550                 6.0331
 IR Inten    --    112.3444                12.5489                 4.7424

                     46                     47                     48
                      A                      A                      A
 Frequencies --   3052.0774              3121.1114              3121.7124
 Red. masses --      1.0994                 1.0973                 1.0972
 Frc consts  --      6.0338                 6.2979                 6.2999
 IR Inten    --     58.4972                 0.8559                12.6740

 - Thermochemistry -
 -------------------
 Temperature   298.150 Kelvin.  Pressure   1.00000 Atm.
 Atom     1 has atomic number  6 and mass  12.00000

 Molecular mass:   203.97448 amu.
 Principal axes and moments of inertia in atomic units:
                           1         2         3
     Eigenvalues --  1936.112392862.247024776.12691
           X            0.99950  -0.01174  -0.02938
           Y            0.00462   0.97286  -0.23134
           Z            0.03130   0.23109   0.97243
 This molecule is an asymmetric top.
 Rotational symmetry number  1.
 Warning -- assumption of classical behavior for rotation
           may cause significant error
 Rotational temperatures (Kelvin)      0.04474     0.03026     0.01813
 Rotational constants (GHZ):           0.93215     0.63053     0.37787
 Zero-point vibrational energy     312524.4 (Joules/Mol)
                                   74.69512 (Kcal/Mol)
 Warning -- explicit consideration of  18 degrees of freedom as
           vibrations may cause significant error
 Vibrational temperatures:    113.68   122.85   145.55   163.32   191.55
          (Kelvin)            269.86   293.07   363.24   427.88   439.70
                              444.21   526.66   543.08   564.02   592.88
                              708.12   775.74   844.02  1004.44  1016.09
                             1031.20  1072.12  1244.45  1411.54  1450.83
                             1504.74  1507.63  1507.91  1572.92  1673.65
                             1797.75  1943.86  1994.06  2007.63  2124.20
                             2132.71  2152.25  2152.69  2171.06  2179.30
                             2235.31  2326.07  4333.43  4334.57  4390.97
                             4391.26  4490.58  4491.45

 Zero-point correction=                           0.119034 (Hartree/Particle)
 Thermal correction to Energy=                    0.131044
 Thermal correction to Enthalpy=                  0.131988
 Thermal correction to Gibbs Free Energy=         0.079656
 Sum of electronic and zero-point Energies=          -1379.434853
 Sum of electronic and thermal Energies=             -1379.422844
 Sum of electronic and thermal Enthalpies=           -1379.421899
 Sum of electronic and thermal Free Energies=        -1379.474232

                     E (Thermal)             CV                S
                      KCal/Mol        Cal/Mol-Kelvin    Cal/Mol-Kelvin
 Total                   82.231             42.720            110.142
 Electronic               0.000              0.000              1.377
 Translational            0.889              2.981             41.843
 Rotational               0.889              2.981             31.649
 Vibrational             80.454             36.758             35.274
 Vibration     1          0.600              1.963              3.915
 Vibration     2          0.601              1.959              3.763
 Vibration     3          0.604              1.948              3.432
 Vibration     4          0.607              1.938              3.208
 Vibration     5          0.613              1.920              2.900
 Vibration     6          0.632              1.857              2.252
 Vibration     7          0.639              1.835              2.099
 Vibration     8          0.664              1.759              1.713
 Vibration     9          0.691              1.679              1.432
 Vibration    10          0.696              1.663              1.386
 Vibration    11          0.698              1.657              1.369
 Vibration    12          0.739              1.542              1.096
 Vibration    13          0.748              1.518              1.049
 Vibration    14          0.759              1.487              0.992
 Vibration    15          0.776              1.444              0.919
 Vibration    16          0.848              1.267              0.678
 Vibration    17          0.894              1.163              0.567
 Vibration    18          0.944              1.060              0.473

 Optimization completed.
    -- Stationary point found.
 Normal termination of Gaussian 16 at Sun Dec 17 22:10:09 2023.
