 Gaussian 16, Revision A.03,
 Gaussian 16:  ES64L-G16RevA.03 25-Dec-2016

 ----------------------------------------------------------------
 #P UB3LYP/6-311++G(d,p) SCRF=(PCM,Solvent=n,n-DiMethylFormamide)
 ----------------------------------------------------------------

 -------
 Reduced
 -------
 Symbolic Z-matrix:
 Charge = -2 Multiplicity = 1

                         Standard orientation:
 ---------------------------------------------------------------------
 Center     Atomic      Atomic             Coordinates (Angstroms)
 Number     Number       Type             X           Y           Z
 ---------------------------------------------------------------------
      1          6           0       -4.822109    0.000244    0.570014
      2          6           0       -3.518642   -0.000242   -0.243418
      3          8           0       -3.569424   -0.000725   -1.487942
      4          8           0       -2.754984    1.221025    0.369296
      5          6           0       -1.415226    1.230764    0.161503
      6          6           0       -0.705113    2.415781    0.072577
      7          6           0        0.705401    2.415709   -0.072693
      8          6           0        1.415338    1.230632   -0.161796
      9          8           0        2.755098    1.220619   -0.369973
     10          6           0        3.518477   -0.000012    0.243484
     11          6           0        4.822231   -0.000155   -0.569527
     12          8           0        3.568928    0.000086    1.488013
     13          6           0        0.707196    0.000055   -0.079820
     14          6           0        1.415198   -1.230649   -0.161717
     15          8           0        2.755071   -1.220813   -0.369827
     16          6           0        0.705204   -2.415667   -0.072714
     17          6           0       -0.705336   -2.415607    0.072701
     18          6           0       -1.415249   -1.230531    0.161782
     19          8           0       -2.754943   -1.220589    0.370207
     20          6           0       -0.707153    0.000108    0.079626
     21          1           0       -5.394435    0.890705    0.296084
     22          1           0       -5.394508   -0.890509    0.297119
     23          1           0       -4.633178    0.000870    1.645869
     24          1           0       -1.249714    3.353960    0.127280
     25          1           0        1.250096    3.353837   -0.127288
     26          1           0        4.633651    0.001031   -1.645441
     27          1           0        5.393825   -0.891478   -0.296826
     28          1           0        5.395188    0.889733   -0.295019
     29          1           0        1.249837   -3.353822   -0.127399
     30          1           0       -1.250028   -3.353727    0.127422
 ---------------------------------------------------------------------

 SCF Done:  E(UB3LYP) =  -991.407082119     A.U. after   14 cycles

 The electronic state is 1-A.
 Alpha  occ. eigenvalues --  -19.10989 -19.10986 -19.10986 -19.10985 -19.04223
 Alpha  occ. eigenvalues --  -19.04219 -10.28630 -10.28627 -10.20921 -10.20921
 Alpha  occ. eigenvalues --  -10.20920 -10.20919 -10.16554 -10.16510 -10.15550
 Alpha  occ. eigenvalues --  -10.15549 -10.15504 -10.15503 -10.14451 -10.14449
 Alpha  occ. eigenvalues --   -1.05468  -1.05369  -0.99376  -0.99265  -0.96404
 Alpha  occ. eigenvalues --   -0.96252  -0.84776  -0.79646  -0.75103  -0.73174
 Alpha  occ. eigenvalues --   -0.71766  -0.69503  -0.68519  -0.62652  -0.60595
 Alpha  occ. eigenvalues --   -0.59564  -0.55239  -0.53434  -0.51878  -0.50270
 Alpha  occ. eigenvalues --   -0.48556  -0.48275  -0.44264  -0.44082  -0.43627
 Alpha  occ. eigenvalues --   -0.43268  -0.42178  -0.40711  -0.40504  -0.40410
 Alpha  occ. eigenvalues --   -0.38850  -0.38680  -0.38021  -0.37552  -0.37178
 Alpha  occ. eigenvalues --   -0.36728  -0.36648  -0.35921  -0.35658  -0.34452
 Alpha  occ. eigenvalues --   -0.33107  -0.30781  -0.29093  -0.28856  -0.25570
 Alpha  occ. eigenvalues --   -0.25215  -0.23951  -0.23857  -0.23035  -0.22759
 Alpha  occ. eigenvalues --   -0.21022  -0.15744
 Alpha virt. eigenvalues --   -0.01156  -0.01070   0.00070   0.00665   0.01289
 Alpha virt. eigenvalues --    0.02022   0.03133   0.03316   0.03589   0.04301
 Alpha virt. eigenvalues --    0.04389   0.04776   0.05845   0.06157   0.06268

  Beta  occ. eigenvalues --  -19.10989 -19.10986 -19.10986 -19.10985 -19.04223
  Beta  occ. eigenvalues --  -19.04219 -10.28630 -10.28627 -10.20921 -10.20921
  Beta  occ. eigenvalues --  -10.20920 -10.20919 -10.16554 -10.16510 -10.15550
  Beta  occ. eigenvalues --  -10.15549 -10.15504 -10.15503 -10.14451 -10.14449
  Beta  occ. eigenvalues --   -1.05468  -1.05369  -0.99376  -0.99265  -0.96404
  Beta  occ. eigenvalues --   -0.96252  -0.84776  -0.79646  -0.75103  -0.73174
  Beta  occ. eigenvalues --   -0.71766  -0.69503  -0.68519  -0.62652  -0.60595
  Beta  occ. eigenvalues --   -0.59564  -0.55239  -0.53434  -0.51878  -0.50270
  Beta  occ. eigenvalues --   -0.48556  -0.48275  -0.44264  -0.44082  -0.43627
  Beta  occ. eigenvalues --   -0.43268  -0.42178  -0.40711  -0.40504  -0.40410
  Beta  occ. eigenvalues --   -0.38850  -0.38680  -0.38021  -0.37552  -0.37178
  Beta  occ. eigenvalues --   -0.36728  -0.36648  -0.35921  -0.35658  -0.34452
  Beta  occ. eigenvalues --   -0.33107  -0.30781  -0.29093  -0.28856  -0.25570
  Beta  occ. eigenvalues --   -0.25215  -0.23951  -0.23857  -0.23035  -0.22759
  Beta  occ. eigenvalues --   -0.21022  -0.15744
  Beta virt. eigenvalues --   -0.01156  -0.01070   0.00070   0.00665   0.01289
  Beta virt. eigenvalues --    0.02022   0.03133   0.03316   0.03589   0.04301
  Beta virt. eigenvalues --    0.04389   0.04776   0.05845   0.06157   0.06268

 Mulliken charges and spin densities:
               1          2
     1  C   -0.361675  -0.000000
     2  C   -0.477598  -0.000000
     3  O   -0.464541  -0.000000
     4  O   -0.188207  -0.000000
     5  C   -0.178930   0.000000
     6  C   -0.275215   0.000000
     7  C   -0.274593  -0.000000
     8  C   -0.179174   0.000000
     9  O   -0.188068  -0.000000
    10  C   -0.477833   0.000000
    11  C   -0.361708  -0.000000
    12  O   -0.464628  -0.000000
    13  C    0.735706   0.000000
    14  C   -0.179080  -0.000000
    15  O   -0.188156   0.000000
    16  C   -0.274753  -0.000000
    17  C   -0.274747  -0.000000
    18  C   -0.179389   0.000000
    19  O   -0.188020   0.000000
    20  C    0.736015   0.000000
    21  H    0.164525   0.000000
    22  H    0.164496  -0.000000
    23  H    0.166747   0.000000
    24  H    0.178264  -0.000000
    25  H    0.178283  -0.000000
    26  H    0.166722   0.000000
    27  H    0.164510   0.000000
    28  H    0.164472   0.000000
    29  H    0.178290  -0.000000
    30  H    0.178288   0.000000
 Sum of Mulliken charges =  -2.00000  -0.00000

 Dipole moment (field-independent basis, Debye):
    X=             -0.0026    Y=              0.0005    Z=              0.0003  Tot=              0.0026
 Quadrupole moment (field-independent basis, Debye-Ang):
   XX=           -209.8597   YY=           -129.9645   ZZ=           -143.1515
   XY=             -0.0023   XZ=            -26.9617   YZ=             -0.0025

 Normal termination of Gaussian 16 at Sun Jan 21 08:56:42 2024.
