 Q-Chem 5.4, Q-Chem, Inc., Pleasanton, CA (2021)
 Q-Chem 5.4.0 for Intel X86 EM64T Linux

User input:
--------------------------------------------------------------
$molecule
0 1
C                 -3.5742300000      0.6914310000     -0.1489240000
O                 -2.7922350000     -0.4998200000     -0.0352670000
C                 -1.4709800000     -0.3871510000      0.0614320000
C                 -0.7564540000      0.7617950000      0.0645500000
C                  0.6967180000      0.7679510000      0.1986790000
O                  1.3261770000      1.8145430000      0.2630710000
C                  1.3993910000     -0.5731630000      0.2705490000
C                  0.6744560000     -1.7164350000      0.2781490000
C                 -0.7775460000     -1.7331110000      0.1769320000
O                 -1.4283430000     -2.7624900000      0.1734470000
O                  2.7286440000     -0.6735230000      0.3915980000
C                  3.6587170000      0.3968140000      0.1230270000
H                 -4.6071860000      0.3581710000     -0.2149800000
H                 -3.3029580000      1.2473870000     -1.0509180000
H                 -3.4422300000      1.3258090000      0.7322130000
H                 -1.2093750000      1.7415370000     -0.0049030000
H                  1.1669970000     -2.6779430000      0.3522000000
H                  3.4566560000      0.8619340000     -0.8415570000
H                  3.6242450000      1.1523640000      0.9050780000
H                  4.6295340000     -0.0961010000      0.1074190000
$end
$rem
MAX_SCF_CYCLES=200
BASIS  =  6-311++G(d,p)
GUI  =  2
JOB_TYPE  =  SP
METHOD  =  B3LYP
SOLVENT_METHOD = COSMO
$end
$solvent
dielectric 37.219
opticaldielectric 1.43
$end

--------------------------------------------------------------

             Standard Nuclear Orientation (Angstroms)
    I     Atom           X                Y                Z
 ----------------------------------------------------------------
    1      C       3.4412784867    -1.3358306016    -0.0591372501
    2      O       2.7845863880    -0.0662582927    -0.0378140545
    3      C       1.4556769178    -0.0373862757    -0.0073870588
    4      C       0.6247340601    -1.1050909883     0.0058285165
    5      C      -0.8258019685    -0.9550165568     0.0620445397
    6      O      -1.5644611907    -1.9268900202     0.1366387852
    7      C      -1.3858700859     0.4532881268     0.0396163212
    8      C      -0.5457108104     1.5147912091     0.0378905025
    9      C       0.9031628909     1.3768520166     0.0140042131
   10      O       1.6582234453     2.3323155211     0.0020435832
   11      O      -2.7014596813     0.6957930675     0.0849362739
   12      C      -3.7249206701    -0.2844870091    -0.1877650951
   13      H       4.5055947513    -1.1143586728    -0.0837298196
   14      H       3.1573431764    -1.9030503383    -0.9501542296
   15      H       3.2002264531    -1.9106647601     0.8395960067
   16      H       0.9747138324    -2.1284948910     0.0020670056
   17      H      -0.9371889764     2.5243820924     0.0448844395
   18      H      -3.5260943234    -0.8132302263    -1.1196911916
   19      H      -3.8085558808    -1.0015777862     0.6261353022
   20      H      -4.6364436461     0.3045928507    -0.2761123496
 ----------------------------------------------------------------

    9    -610.6797422768      7.09e-06  Convergence criterion met
 Total energy in the final basis set =     -610.6797422768
    5    -610.6982727813      5.08e-06  Convergence criterion met
 Total energy in the final basis set =     -610.6982727813

                    Orbital Energies (a.u.)
 --------------------------------------------------------------

 Alpha MOs
 -- Occupied --
-19.1921 -19.1847 -19.1405 -19.1373 -10.2936 -10.2879 -10.2786 -10.2766
-10.2304 -10.2252 -10.1944 -10.1914  -1.1134  -1.1017  -1.0685  -1.0674
 -0.8590  -0.7958  -0.7475  -0.7283  -0.6797  -0.6322  -0.6040  -0.5536
 -0.5452  -0.5332  -0.4973  -0.4857  -0.4806  -0.4733  -0.4564  -0.4535
 -0.4397  -0.4353  -0.4208  -0.4122  -0.3789  -0.3715  -0.3657  -0.3608
 -0.2906  -0.2850  -0.2816  -0.2557

          Ground-State Mulliken Net Atomic Charges

     Atom                 Charge (a.u.)
  ----------------------------------------
      1 C                    -0.330772
      2 O                    -0.162530
      3 C                    -0.231990
      4 C                     0.825892
      5 C                    -0.442421
      6 O                    -0.304178
      7 C                     0.125232
      8 C                     0.220198
      9 C                    -0.545847
     10 O                    -0.347457
     11 O                    -0.215505
     12 C                    -0.308823
     13 H                     0.223508
     14 H                     0.189944
     15 H                     0.189406
     16 H                     0.271501
     17 H                     0.261726
     18 H                     0.188729
     19 H                     0.201548
     20 H                     0.191840
  ----------------------------------------
  Sum of atomic charges =     0.000000

                    Cartesian Multipole Moments
 -----------------------------------------------------------------
    Charge (ESU x 10^10)
                -0.0000
    Dipole Moment (Debye)
         X      -0.6567      Y      -4.1119      Z      -0.6668
       Tot       4.2170
    Quadrupole Moments (Debye-Ang)
        XX     -56.8632     XY     -17.3674     YY     -80.4794
        XZ       1.7749     YZ       0.6441     ZZ     -68.6662

 Total job time:  40.90s(wall), 140.86s(cpu)
        *  Thank you very much for using Q-Chem.  Have a nice day.  *
