 Gaussian 16, Revision A.03,
 Gaussian 16:  ES64L-G16RevA.03 25-Dec-2016

 --------------------------------------
 #P UB3LYP/6-311++G(d,p) nosym opt freq
 --------------------------------------

 --------
 Oxidized
 --------
 Symbolic Z-matrix:
 Charge =  0 Multiplicity = 1

 SCF Done:  E(UB3LYP) =  -964.435647691     A.U. after   17 cycles
 SCF Done:  E(UB3LYP) =  -964.443574273     A.U. after   14 cycles
 SCF Done:  E(UB3LYP) =  -964.444321288     A.U. after   13 cycles
 SCF Done:  E(UB3LYP) =  -964.444355751     A.U. after   12 cycles
 SCF Done:  E(UB3LYP) =  -964.444356409     A.U. after   11 cycles
 SCF Done:  E(UB3LYP) =  -964.444357973     A.U. after   10 cycles
 SCF Done:  E(UB3LYP) =  -964.444358078     A.U. after   10 cycles
 SCF Done:  E(UB3LYP) =  -964.444358109     A.U. after    9 cycles
 Optimization completed.
    -- Stationary point found.
 Normal termination of Gaussian 16 at Thu Dec 28 01:13:39 2023.

 ----------------------------------------------------------------------
 #P Geom=AllCheck Guess=TCheck SCRF=Check GenChk UB3LYP/6-311++G(d,p) F
 req
 ----------------------------------------------------------------------

 Structure from the checkpoint file:  "287.chk"
 --------
 Oxidized
 --------
 Charge =  0 Multiplicity = 1

                          Input orientation:
 ---------------------------------------------------------------------
 Center     Atomic      Atomic             Coordinates (Angstroms)
 Number     Number       Type             X           Y           Z
 ---------------------------------------------------------------------
      1          6           0       -0.333472    3.810831   -0.205753
      2          6           0       -1.544612    3.213509   -0.541169
      3          6           0       -1.572804    1.883844   -0.965773
      4          6           0        0.850202    3.074545   -0.296491
      5          6           0        0.825089    1.736638   -0.723138
      6          6           0       -0.393149    1.147223   -1.056339
      7          6           0        2.141368    3.692683    0.055519
      8          6           0        3.375692    2.864557   -0.064550
      9          6           0        3.375850    1.568985   -0.464303
     10          6           0        2.091183    0.933019   -0.824409
     11          8           0        2.265805    4.849579    0.441777
     12          8           0        2.049288   -0.231239   -1.197150
     13          1           0       -0.286140    4.840604    0.126676
     14          1           0       -2.465277    3.781281   -0.472549
     15          1           0       -2.517423    1.420267   -1.226759
     16          1           0       -0.397181    0.114946   -1.383594
     17          8           0        4.502315    3.515636    0.268242
     18          6           0        4.637498    0.761812   -0.586958
     19          6           0        5.242756    0.810263   -2.006525
     20          6           0        6.521820   -0.024279   -2.128240
     21          6           0        7.139638    0.012780   -3.530587
     22          6           0        8.419633   -0.821073   -3.658248
     23          1           0        4.227077    4.414663    0.530746
     24          1           0        4.409823   -0.276945   -0.335043
     25          1           0        5.372188    1.133977    0.131602
     26          1           0        5.457414    1.852190   -2.269916
     27          1           0        4.498801    0.447427   -2.723562
     28          1           0        6.301160   -1.064335   -1.856528
     29          1           0        7.259020    0.333312   -1.397797
     30          1           0        7.357437    1.053701   -3.802639
     31          1           0        6.401220   -0.344049   -4.260008
     32          1           0        8.201667   -1.861628   -3.384989
     33          1           0        9.158099   -0.464200   -2.928610
     34          6           0        9.037689   -0.786308   -5.060611
     35          1           0        9.256118    0.254319   -5.333736
     36          1           0        8.298566   -1.142261   -5.790074
     37          6           0       10.316591   -1.621073   -5.189992
     38          1           0       10.098909   -2.662099   -4.917326
     39          1           0       11.056713   -1.265752   -4.460968
     40          6           0       10.935351   -1.587296   -6.592121
     41          6           0       12.212205   -2.424466   -6.711731
     42          1           0       11.153856   -0.547490   -6.864614
     43          1           0       10.196400   -1.942707   -7.320684
     44          1           0       12.983323   -2.070857   -6.019847
     45          1           0       12.627533   -2.379061   -7.722429
     46          1           0       12.018600   -3.476564   -6.479442
 ---------------------------------------------------------------------

 SCF Done:  E(UB3LYP) =  -964.444358109     A.U. after    1 cycles

 Alpha  occ. eigenvalues --  -19.17882 -19.14994 -19.12594 -10.29384 -10.27802
 Alpha  occ. eigenvalues --  -10.26741 -10.21564 -10.21384 -10.20789 -10.20772
 Alpha  occ. eigenvalues --  -10.20646 -10.20485 -10.20303 -10.17619 -10.16780
 Alpha  occ. eigenvalues --  -10.16303 -10.16265 -10.16166 -10.16101 -10.16071
 Alpha  occ. eigenvalues --  -10.16045 -10.15591  -1.10931  -1.06751  -1.05874
 Alpha  occ. eigenvalues --   -0.89782  -0.84622  -0.81390  -0.80124  -0.78624
 Alpha  occ. eigenvalues --   -0.78398  -0.75948  -0.72764  -0.70002  -0.67831
 Alpha  occ. eigenvalues --   -0.65891  -0.64170  -0.61553  -0.60782  -0.58692
 Alpha  occ. eigenvalues --   -0.57815  -0.57641  -0.57385  -0.54398  -0.52182
 Alpha  occ. eigenvalues --   -0.50131  -0.48692  -0.48359  -0.47354  -0.46934
 Alpha  occ. eigenvalues --   -0.46637  -0.45857  -0.44985  -0.43897  -0.43559
 Alpha  occ. eigenvalues --   -0.43443  -0.42407  -0.41576  -0.41382  -0.40911
 Alpha  occ. eigenvalues --   -0.40573  -0.39942  -0.38859  -0.38032  -0.37846
 Alpha  occ. eigenvalues --   -0.37366  -0.37323  -0.35658  -0.34873  -0.34784
 Alpha  occ. eigenvalues --   -0.33320  -0.33100  -0.32491  -0.32326  -0.32139
 Alpha  occ. eigenvalues --   -0.30828  -0.30175  -0.29380  -0.28516  -0.27549
 Alpha  occ. eigenvalues --   -0.25814
 Alpha virt. eigenvalues --   -0.12639  -0.06056  -0.03075  -0.01288  -0.00610
 Alpha virt. eigenvalues --   -0.00281   0.00619   0.00628   0.00971   0.01152
 Alpha virt. eigenvalues --    0.01933   0.02055   0.02277   0.02492   0.03211

  Beta  occ. eigenvalues --  -19.17882 -19.14994 -19.12594 -10.29384 -10.27802
  Beta  occ. eigenvalues --  -10.26741 -10.21564 -10.21384 -10.20789 -10.20772
  Beta  occ. eigenvalues --  -10.20646 -10.20485 -10.20303 -10.17619 -10.16780
  Beta  occ. eigenvalues --  -10.16303 -10.16265 -10.16166 -10.16101 -10.16071
  Beta  occ. eigenvalues --  -10.16045 -10.15591  -1.10931  -1.06751  -1.05874
  Beta  occ. eigenvalues --   -0.89782  -0.84622  -0.81390  -0.80124  -0.78624
  Beta  occ. eigenvalues --   -0.78398  -0.75948  -0.72764  -0.70002  -0.67831
  Beta  occ. eigenvalues --   -0.65891  -0.64170  -0.61553  -0.60782  -0.58692
  Beta  occ. eigenvalues --   -0.57815  -0.57641  -0.57385  -0.54398  -0.52182
  Beta  occ. eigenvalues --   -0.50131  -0.48692  -0.48359  -0.47354  -0.46934
  Beta  occ. eigenvalues --   -0.46637  -0.45857  -0.44985  -0.43897  -0.43559
  Beta  occ. eigenvalues --   -0.43443  -0.42407  -0.41576  -0.41382  -0.40911
  Beta  occ. eigenvalues --   -0.40573  -0.39942  -0.38859  -0.38032  -0.37846
  Beta  occ. eigenvalues --   -0.37366  -0.37323  -0.35658  -0.34873  -0.34784
  Beta  occ. eigenvalues --   -0.33320  -0.33100  -0.32491  -0.32326  -0.32139
  Beta  occ. eigenvalues --   -0.30828  -0.30175  -0.29380  -0.28516  -0.27549
  Beta  occ. eigenvalues --   -0.25814
  Beta virt. eigenvalues --   -0.12639  -0.06056  -0.03075  -0.01288  -0.00610
  Beta virt. eigenvalues --   -0.00281   0.00619   0.00628   0.00971   0.01152
  Beta virt. eigenvalues --    0.01933   0.02055   0.02277   0.02492   0.03211

 Mulliken charges and spin densities:
               1          2
     1  C    0.126065   0.000000
     2  C   -0.327744   0.000000
     3  C   -0.342732  -0.000000
     4  C    0.562975   0.000000
     5  C   -0.086529  -0.000000
     6  C    0.120094   0.000000
     7  C   -0.916240  -0.000000
     8  C   -0.492006   0.000000
     9  C    1.958532   0.000000
    10  C   -0.858636   0.000000
    11  O   -0.277973   0.000000
    12  O   -0.209889  -0.000000
    13  H    0.185904  -0.000000
    14  H    0.180168   0.000000
    15  H    0.177636   0.000000
    16  H    0.191649   0.000000
    17  O   -0.197266   0.000000
    18  C   -0.351187  -0.000000
    19  C   -0.771824   0.000000
    20  C   -0.213999  -0.000000
    21  C    0.041514  -0.000000
    22  C    0.010577  -0.000000
    23  H    0.287857  -0.000000
    24  H    0.227583   0.000000
    25  H    0.234030  -0.000000
    26  H    0.171788  -0.000000
    27  H    0.180985  -0.000000
    28  H    0.118406   0.000000
    29  H    0.111132   0.000000
    30  H    0.121064   0.000000
    31  H    0.122834   0.000000
    32  H    0.127682  -0.000000
    33  H    0.126396  -0.000000
    34  C   -0.185129  -0.000000
    35  H    0.122641   0.000000
    36  H    0.122962   0.000000
    37  C   -0.388106   0.000000
    38  H    0.119026  -0.000000
    39  H    0.118704  -0.000000
    40  C   -0.252966   0.000000
    41  C   -0.663876  -0.000000
    42  H    0.127213  -0.000000
    43  H    0.127568  -0.000000
    44  H    0.135045   0.000000
    45  H    0.142813  -0.000000
    46  H    0.135260   0.000000
 Sum of Mulliken charges =  -0.00000   0.00000

 Dipole moment (field-independent basis, Debye):
    X=             -1.9765    Y=              0.9186    Z=             -0.1537  Tot=              2.1849
 Quadrupole moment (field-independent basis, Debye-Ang):
   XX=           -130.6717   YY=           -138.2184   ZZ=           -136.5728
   XY=             -2.9186   XZ=              1.4388   YZ=             -2.2209

  Exact polarizability: 303.822 -29.313 247.625 -19.089  39.607 183.618
 Approx polarizability: 390.552   3.478 455.446  18.170  68.816 269.002

                      1                      2                      3
                      A                      A                      A
 Frequencies --     13.0503                22.5025                26.6734
 Red. masses --      5.3382                 5.1529                 1.7742
 Frc consts  --      0.0005                 0.0015                 0.0007
 IR Inten    --      0.1039                 0.4641                 0.0381

                      4                      5                      6
                      A                      A                      A
 Frequencies --     40.0222                51.9247                73.2100
 Red. masses --      3.0173                 5.1112                 2.6131
 Frc consts  --      0.0028                 0.0081                 0.0083
 IR Inten    --      0.1265                 1.9032                 0.6170

                      7                      8                      9
                      A                      A                      A
 Frequencies --     78.9670                95.8898               105.7628
 Red. masses --      3.9210                 2.1060                 5.1379
 Frc consts  --      0.0144                 0.0114                 0.0339
 IR Inten    --      1.6487                 0.0652                 0.0382

                     10                     11                     12
                      A                      A                      A
 Frequencies --    123.9379               126.7491               143.6792
 Red. masses --      1.9537                 5.7000                 4.0162
 Frc consts  --      0.0177                 0.0540                 0.0488
 IR Inten    --      0.0363                 0.0110                 0.0070

                     13                     14                     15
                      A                      A                      A
 Frequencies --    150.3319               161.2810               171.7673
 Red. masses --      2.0702                 1.9553                 6.5917
 Frc consts  --      0.0276                 0.0300                 0.1146
 IR Inten    --      0.0324                 0.0030                 0.6430

                     16                     17                     18
                      A                      A                      A
 Frequencies --    214.8926               244.3793               251.5384
 Red. masses --      4.0263                 1.1193                 4.3243
 Frc consts  --      0.1095                 0.0394                 0.1612
 IR Inten    --      0.0377                 0.0001                 0.1970

                     19                     20                     21
                      A                      A                      A
 Frequencies --    285.7251               302.7001               320.3466
 Red. masses --      3.9407                 2.9330                 4.7111
 Frc consts  --      0.1895                 0.1583                 0.2848
 IR Inten    --      0.1000                 2.4977                 0.5863

                     22                     23                     24
                      A                      A                      A
 Frequencies --    361.5042               372.0503               389.0973
 Red. masses --      5.5406                 3.5574                 9.7167
 Frc consts  --      0.4266                 0.2901                 0.8667
 IR Inten    --      8.2081                 0.2211                22.9309

                     25                     26                     27
                      A                      A                      A
 Frequencies --    419.5909               429.9883               445.3253
 Red. masses --     10.0139                 3.6075                 4.8069
 Frc consts  --      1.0387                 0.3930                 0.5616
 IR Inten    --      8.0571                 2.2833                 2.8985

                     28                     29                     30
                      A                      A                      A
 Frequencies --    450.9824               478.5141               491.4670
 Red. masses --      4.7808                 3.4208                 4.5573
 Frc consts  --      0.5729                 0.4615                 0.6486
 IR Inten    --      5.6924                 1.1850                 1.4937

                     31                     32                     33
                      A                      A                      A
 Frequencies --    528.5448               589.3059               646.8430
 Red. masses --      6.1504                 5.8959                 1.1487
 Frc consts  --      1.0123                 1.2064                 0.2832
 IR Inten    --      3.5132                 6.9158                69.2127

                     34                     35                     36
                      A                      A                      A
 Frequencies --    654.5592               677.8906               707.5029
 Red. masses --      5.7934                 6.0025                 3.3449
 Frc consts  --      1.4625                 1.6252                 0.9865
 IR Inten    --      7.7155                 2.5768                 2.6632

                     37                     38                     39
                      A                      A                      A
 Frequencies --    713.7406               731.2716               733.8591
 Red. masses --      4.6357                 1.0592                 1.1092
 Frc consts  --      1.3914                 0.3337                 0.3519
 IR Inten    --      3.6571                 5.2186                 0.9409

                     40                     41                     42
                      A                      A                      A
 Frequencies --    736.1937               744.6720               764.6236
 Red. masses --      2.4270                 1.1992                 6.5565
 Frc consts  --      0.7750                 0.3918                 2.2585
 IR Inten    --     76.8966                 2.1156                 2.2705

                     43                     44                     45
                      A                      A                      A
 Frequencies --    772.0138               805.7131               816.8038
 Red. masses --      1.2637                 1.8827                 1.4377
 Frc consts  --      0.4438                 0.7201                 0.5652
 IR Inten    --      0.1544                12.0477                 1.0393

                     46                     47                     48
                      A                      A                      A
 Frequencies --    862.7757               895.8911               909.2802
 Red. masses --      1.9189                 1.9855                 1.5445
 Frc consts  --      0.8416                 0.9389                 0.7524
 IR Inten    --     10.1578                 1.8221                 4.0028

                     49                     50                     51
                      A                      A                      A
 Frequencies --    913.0112               949.5984               971.9935
 Red. masses --      1.3253                 5.7749                 1.3905
 Frc consts  --      0.6509                 3.0681                 0.7740
 IR Inten    --      0.0095                27.2136                 1.9520

                     52                     53                     54
                      A                      A                      A
 Frequencies --    990.0351               996.1580               998.0538
 Red. masses --      4.5075                 3.2880                 1.5056
 Frc consts  --      2.6030                 1.9224                 0.8836
 IR Inten    --     19.6238                 2.4006                 1.6471

                     55                     56                     57
                      A                      A                      A
 Frequencies --   1016.3432              1021.5193              1029.6281
 Red. masses --      1.3268                 3.1070                 2.0827
 Frc consts  --      0.8075                 1.9102                 1.3009
 IR Inten    --      0.1362                19.9032                 1.9302

                     58                     59                     60
                      A                      A                      A
 Frequencies --   1047.0196              1051.9691              1058.4670
 Red. masses --      1.7781                 2.7824                 1.7666
 Frc consts  --      1.1484                 1.8142                 1.1661
 IR Inten    --     15.8084                 1.1035                 7.5780

                     61                     62                     63
                      A                      A                      A
 Frequencies --   1063.4132              1065.4183              1072.1724
 Red. masses --      2.5952                 2.2469                 2.6452
 Frc consts  --      1.7291                 1.5027                 1.7916
 IR Inten    --      0.3415                 0.1647                 2.6376

                     64                     65                     66
                      A                      A                      A
 Frequencies --   1110.5455              1135.6674              1137.8230
 Red. masses --      2.1878                 1.8708                 2.3417
 Frc consts  --      1.5898                 1.4216                 1.7862
 IR Inten    --      1.8952                18.3098                15.0246

                     67                     68                     69
                      A                      A                      A
 Frequencies --   1182.4020              1195.6719              1211.4712
 Red. masses --      1.1764                 2.2697                 1.7760
 Frc consts  --      0.9690                 1.9118                 1.5358
 IR Inten    --     21.4186                29.9401                 9.1047

                     70                     71                     72
                      A                      A                      A
 Frequencies --   1229.5058              1233.7359              1251.1987
 Red. masses --      2.3712                 1.2648                 1.5298
 Frc consts  --      2.1119                 1.1342                 1.4110
 IR Inten    --     42.1560                 0.8134                56.2851

                     73                     74                     75
                      A                      A                      A
 Frequencies --   1274.4265              1284.4307              1290.4309
 Red. masses --      1.3203                 1.4169                 1.8375
 Frc consts  --      1.2635                 1.3773                 1.8028
 IR Inten    --      2.3000                72.5510                46.9999

                     76                     77                     78
                      A                      A                      A
 Frequencies --   1308.1667              1311.0997              1318.0936
 Red. masses --      1.8415                 1.5806                 1.4378
 Frc consts  --      1.8568                 1.6008                 1.4718
 IR Inten    --    106.5488                86.0956                 1.1845

                     79                     80                     81
                      A                      A                      A
 Frequencies --   1326.4170              1326.6899              1336.2290
 Red. masses --      1.1077                 1.3703                 1.1398
 Frc consts  --      1.1483                 1.4210                 1.1991
 IR Inten    --     17.9697                42.4636                10.9004

                     82                     83                     84
                      A                      A                      A
 Frequencies --   1339.0074              1344.8025              1351.1693
 Red. masses --      1.1650                 1.4132                 1.3850
 Frc consts  --      1.2307                 1.5058                 1.4897
 IR Inten    --      6.9684                20.4420                 3.5853

                     85                     86                     87
                      A                      A                      A
 Frequencies --   1366.8348              1375.0154              1391.4613
 Red. masses --      6.3036                 1.4101                 1.5037
 Frc consts  --      6.9386                 1.5708                 1.7153
 IR Inten    --     68.0548                 1.5169                 8.3458

                     88                     89                     90
                      A                      A                      A
 Frequencies --   1399.6229              1400.4412              1401.8353
 Red. masses --      1.6144                 1.7478                 1.8568
 Frc consts  --      1.8633                 2.0197                 2.1498
 IR Inten    --      4.9832               139.3891               193.5632

                     91                     92                     93
                      A                      A                      A
 Frequencies --   1412.8145              1479.4255              1484.1773
 Red. masses --      1.2512                 1.1915                 1.1192
 Frc consts  --      1.4715                 1.5365                 1.4525
 IR Inten    --      2.2709                 5.0663                 0.1830

                     94                     95                     96
                      A                      A                      A
 Frequencies --   1484.4781              1486.0783              1488.1818
 Red. masses --      1.1231                 1.7281                 1.1095
 Frc consts  --      1.4582                 2.2485                 1.4478
 IR Inten    --      0.1302                 9.8837                 1.9221

                     97                     98                     99
                      A                      A                      A
 Frequencies --   1489.9162              1496.1691              1499.6185
 Red. masses --      1.0797                 1.0805                 1.0397
 Frc consts  --      1.4122                 1.4250                 1.3776
 IR Inten    --      1.0209                 0.8021                 7.9215

                    100                    101                    102
                      A                      A                      A
 Frequencies --   1503.2961              1506.6444              1510.0417
 Red. masses --      1.0891                 2.6398                 1.0945
 Frc consts  --      1.4502                 3.5306                 1.4705
 IR Inten    --      2.3355                 3.9546                 0.3853

                    103                    104                    105
                      A                      A                      A
 Frequencies --   1514.8562              1613.4146              1627.9022
 Red. masses --      1.0980                 6.6587                 5.9390
 Frc consts  --      1.4845                10.2125                 9.2729
 IR Inten    --     14.1068                 2.0881                78.8216

                    106                    107                    108
                      A                      A                      A
 Frequencies --   1690.5550              1702.1843              1704.6062
 Red. masses --      7.9866                11.2166                11.2405
 Frc consts  --     13.4484                19.1481                19.2435
 IR Inten    --     47.2946                59.1777               404.4806

                    109                    110                    111
                      A                      A                      A
 Frequencies --   2989.7645              2990.8584              2993.6140
 Red. masses --      1.0573                 1.0576                 1.0578
 Frc consts  --      5.5685                 5.5739                 5.5852
 IR Inten    --      0.6394                 0.5697                 1.4200

                    112                    113                    114
                      A                      A                      A
 Frequencies --   2996.5792              3003.2556              3006.1912
 Red. masses --      1.0588                 1.0600                 1.0977
 Frc consts  --      5.6015                 5.6329                 5.8447
 IR Inten    --      0.2862                12.6783                 2.4089

                    115                    116                    117
                      A                      A                      A
 Frequencies --   3008.0723              3010.0669              3016.5126
 Red. masses --      1.0607                 1.0989                 1.0383
 Frc consts  --      5.6547                 5.8661                 5.5663
 IR Inten    --    132.8780                 1.1339                43.6219

                    118                    119                    120
                      A                      A                      A
 Frequencies --   3016.6498              3019.3102              3028.2257
 Red. masses --      1.0873                 1.0717                 1.1031
 Frc consts  --      5.8299                 5.7565                 5.9599
 IR Inten    --     20.1947                32.1177                 2.2553

                    121                    122                    123
                      A                      A                      A
 Frequencies --   3039.5707              3047.1258              3049.9890
 Red. masses --      1.1048                 1.0612                 1.1027
 Frc consts  --      6.0141                 5.8053                 6.0437
 IR Inten    --      0.1915                31.2750                84.5074

                    124                    125                    126
                      A                      A                      A
 Frequencies --   3059.7955              3076.9064              3081.1761
 Red. masses --      1.1042                 1.1024                 1.1009
 Frc consts  --      6.0907                 6.1495                 6.1580
 IR Inten    --     73.8977                73.9425                46.5757

                    127                    128                    129
                      A                      A                      A
 Frequencies --   3094.2725              3171.7001              3185.7627
 Red. masses --      1.1056                 1.0870                 1.0915
 Frc consts  --      6.2370                 6.4429                 6.5267
 IR Inten    --     14.4303                 3.1426                 8.3524

                    130                    131                    132
                      A                      A                      A
 Frequencies --   3199.5340              3202.9168              3617.4640
 Red. masses --      1.0933                 1.0948                 1.0642
 Frc consts  --      6.5941                 6.6171                 8.2053
 IR Inten    --      1.6201                 8.5771               154.4322

 - Thermochemistry -
 -------------------
 Temperature   298.150 Kelvin.  Pressure   1.00000 Atm.
 Atom     1 has atomic number  6 and mass  12.00000

 Molecular mass:   300.17254 amu.
 Principal axes and moments of inertia in atomic units:
                           1         2         3
     Eigenvalues --  2534.81646********************
           X            0.82520   0.54647   0.14289
           Y           -0.36299   0.70687  -0.60710
           Z           -0.43277   0.44911   0.78167
 This molecule is an asymmetric top.
 Rotational symmetry number  1.
 Warning -- assumption of classical behavior for rotation
           may cause significant error
 Rotational temperatures (Kelvin)      0.03417     0.00343     0.00324
 Rotational constants (GHZ):           0.71198     0.07137     0.06756
 Zero-point vibrational energy    1027676.0 (Joules/Mol)
                                  245.62045 (Kcal/Mol)
 Warning -- explicit consideration of  32 degrees of freedom as
           vibrations may cause significant error
 Vibrational temperatures:     18.78    32.38    38.38    57.58    74.71
          (Kelvin)            105.33   113.62   137.96   152.17   178.32
                              182.36   206.72   216.29   232.05   247.13
                              309.18   351.61   361.91   411.09   435.52
                              460.91   520.12   535.30   559.82   603.70
                              618.66   640.72   648.86   688.48   707.11
                              760.46   847.88   930.66   941.76   975.33
                             1017.94  1026.91  1052.14  1055.86  1059.22
                             1071.42  1100.12  1110.76  1159.24  1175.20
                             1241.34  1288.99  1308.25  1313.62  1366.26
                             1398.48  1424.44  1433.25  1435.98  1462.29
                             1469.74  1481.41  1506.43  1513.55  1522.90
                             1530.01  1532.90  1542.62  1597.83  1633.97
                             1637.07  1701.21  1720.31  1743.04  1768.98
                             1775.07  1800.20  1833.62  1848.01  1856.64
                             1882.16  1886.38  1896.44  1908.42  1908.81
                             1922.54  1926.53  1934.87  1944.03  1966.57
                             1978.34  2002.00  2013.75  2014.92  2016.93
                             2032.72  2128.56  2135.40  2135.83  2138.14
                             2141.16  2143.66  2152.65  2157.62  2162.91
                             2167.73  2172.61  2179.54  2321.34  2342.19
                             2432.33  2449.06  2452.55  4301.60  4303.18
                             4307.14  4311.41  4321.02  4325.24  4327.95
                             4330.81  4340.09  4340.29  4344.11  4356.94
                             4373.26  4384.13  4388.25  4402.36  4426.98
                             4433.13  4451.97  4563.37  4583.60  4603.42
                             4608.28  5204.72

 Zero-point correction=                           0.391421 (Hartree/Particle)
 Thermal correction to Energy=                    0.413720
 Thermal correction to Enthalpy=                  0.414664
 Thermal correction to Gibbs Free Energy=         0.336232
 Sum of electronic and zero-point Energies=           -964.052937
 Sum of electronic and thermal Energies=              -964.030639
 Sum of electronic and thermal Enthalpies=            -964.029694
 Sum of electronic and thermal Free Energies=         -964.108126

                     E (Thermal)             CV                S
                      KCal/Mol        Cal/Mol-Kelvin    Cal/Mol-Kelvin
 Total                  259.613             82.981            165.073
 Electronic               0.000              0.000              0.000
 Translational            0.889              2.981             42.994
 Rotational               0.889              2.981             35.791
 Vibrational            257.836             77.020             86.288
 Vibration     1          0.593              1.987              7.482
 Vibration     2          0.593              1.985              6.400
 Vibration     3          0.593              1.984              6.063
 Vibration     4          0.594              1.981              5.258
 Vibration     5          0.596              1.977              4.743
 Vibration     6          0.599              1.967              4.065
 Vibration     7          0.600              1.963              3.916
 Vibration     8          0.603              1.952              3.536
 Vibration     9          0.605              1.945              3.345
 Vibration    10          0.610              1.929              3.038
 Vibration    11          0.611              1.926              2.995
 Vibration    12          0.616              1.909              2.754
 Vibration    13          0.618              1.902              2.668
 Vibration    14          0.622              1.890              2.535
 Vibration    15          0.626              1.877              2.416
 Vibration    16          0.645              1.818              2.002
 Vibration    17          0.660              1.772              1.771
 Vibration    18          0.664              1.760              1.720
 Vibration    19          0.684              1.700              1.499
 Vibration    20          0.694              1.669              1.402
 Vibration    21          0.706              1.635              1.308
 Vibration    22          0.736              1.552              1.116
 Vibration    23          0.744              1.530              1.071
 Vibration    24          0.757              1.493              1.004
 Vibration    25          0.782              1.428              0.893
 Vibration    26          0.791              1.405              0.859
 Vibration    27          0.805              1.371              0.810
 Vibration    28          0.810              1.359              0.793
 Vibration    29          0.835              1.298              0.714
 Vibration    30          0.847              1.269              0.680
 Vibration    31          0.884              1.187              0.590
 Vibration    32          0.947              1.055              0.468

                           ! Non-Optimized Parameters !
 Normal termination of Gaussian 16 at Thu Dec 28 04:51:44 2023.
