 Q-Chem 5.4, Q-Chem, Inc., Pleasanton, CA (2021)
 Q-Chem 5.4.0 for Intel X86 EM64T Linux

User input:
--------------------------------------------------------------
$molecule
-1 2
C                  1.8360960000      2.7988550000      1.3929850000
C                  0.4011150000      2.7399800000      1.1929080000
C                 -0.1958440000      1.6428260000      0.6147780000
C                  0.5915160000      0.4976970000      0.1755080000
C                  2.0415800000      0.5602030000      0.3451790000
C                  2.6228840000      1.6701220000      0.9295830000
O                  2.3768040000      3.8058470000      1.9657250000
O                  0.0442780000     -0.5139890000     -0.3456470000
C                 -0.4166070000      3.9208360000      1.6571120000
C                 -1.6879930000      1.5754250000      0.4112410000
C                  2.8268810000     -0.6327070000     -0.1317250000
S                  4.3943210000      1.6488760000      1.2453220000
C                  4.9701230000      3.3250990000      0.7275070000
C                  5.3081890000      4.2724020000      1.8994130000
C                  4.9866500000      5.7266050000      1.5755110000
O                  5.8322000000      6.5844950000      1.4304570000
O                  3.6853850000      6.0051990000      1.4543280000
H                  0.2242160000      4.6436380000      2.1601050000
H                 -1.2088270000      3.6120910000      2.3487900000
H                 -0.9100460000      4.4226760000      0.8155380000
H                 -2.0498960000      2.4140030000     -0.1956860000
H                 -2.2275120000      1.6220230000      1.3654650000
H                 -1.9455520000      0.6416180000     -0.0878760000
H                  2.2234420000     -1.2004670000     -0.8400900000
H                  3.0759300000     -1.3071690000      0.6976430000
H                  3.7713250000     -0.3273530000     -0.5876690000
H                  4.1940160000      3.7353500000      0.0853620000
H                  5.8543870000      3.1595840000      0.1084080000
H                  6.3665800000      4.2112180000      2.1550270000
H                  4.7126310000      3.9750010000      2.7638320000
H                  3.1273750000      5.1912030000      1.6287880000
$end

$rem
BASIS  =  6-311++G(d,p)
GUI  =  2
JOB_TYPE  =  SP
METHOD  =  B3LYP
SCF_CONVERGENCE  = 8
SOLVENT_METHOD = sm12
$end

$smx
solvent dimethylformamide
charges CM5
$end

--------------------------------------------------------------

             Standard Nuclear Orientation (Angstroms)
    I     Atom           X                Y                Z
 ----------------------------------------------------------------
    1      C       1.8360960000     2.7988550000     1.3929850000
    2      C       0.4011150000     2.7399800000     1.1929080000
    3      C      -0.1958440000     1.6428260000     0.6147780000
    4      C       0.5915160000     0.4976970000     0.1755080000
    5      C       2.0415800000     0.5602030000     0.3451790000
    6      C       2.6228840000     1.6701220000     0.9295830000
    7      O       2.3768040000     3.8058470000     1.9657250000
    8      O       0.0442780000    -0.5139890000    -0.3456470000
    9      C      -0.4166070000     3.9208360000     1.6571120000
   10      C      -1.6879930000     1.5754250000     0.4112410000
   11      C       2.8268810000    -0.6327070000    -0.1317250000
   12      S       4.3943210000     1.6488760000     1.2453220000
   13      C       4.9701230000     3.3250990000     0.7275070000
   14      C       5.3081890000     4.2724020000     1.8994130000
   15      C       4.9866500000     5.7266050000     1.5755110000
   16      O       5.8322000000     6.5844950000     1.4304570000
   17      O       3.6853850000     6.0051990000     1.4543280000
   18      H       0.2242160000     4.6436380000     2.1601050000
   19      H      -1.2088270000     3.6120910000     2.3487900000
   20      H      -0.9100460000     4.4226760000     0.8155380000
   21      H      -2.0498960000     2.4140030000    -0.1956860000
   22      H      -2.2275120000     1.6220230000     1.3654650000
   23      H      -1.9455520000     0.6416180000    -0.0878760000
   24      H       2.2234420000    -1.2004670000    -0.8400900000
   25      H       3.0759300000    -1.3071690000     0.6976430000
   26      H       3.7713250000    -0.3273530000    -0.5876690000
   27      H       4.1940160000     3.7353500000     0.0853620000
   28      H       5.8543870000     3.1595840000     0.1084080000
   29      H       6.3665800000     4.2112180000     2.1550270000
   30      H       4.7126310000     3.9750010000     2.7638320000
   31      H       3.1273750000     5.1912030000     1.6287880000
 ----------------------------------------------------------------

   18   -1165.1386801431      9.11e-09  Convergence criterion met
 Total energy in the final basis set =    -1165.2139632210

                    Orbital Energies (a.u.)
 --------------------------------------------------------------

 Alpha MOs
 -- Occupied --
-88.8441 -19.1463 -19.1042 -19.0840 -19.0790 -10.2984 -10.2316 -10.2211
-10.2080 -10.1958 -10.1827 -10.1800 -10.1743 -10.1737 -10.1621 -10.1620
-10.1597  -7.9296  -5.8936  -5.8896  -5.8836  -1.0920  -1.0144  -1.0036
 -1.0014  -0.8426  -0.8155  -0.7916  -0.7361  -0.7296  -0.7105  -0.6658
 -0.6445  -0.6177  -0.6033  -0.5528  -0.5495  -0.5143  -0.5093  -0.4789
 -0.4629  -0.4486  -0.4448  -0.4389  -0.4250  -0.4190  -0.4158  -0.4124
 -0.4036  -0.3958  -0.3912  -0.3901  -0.3824  -0.3760  -0.3690  -0.3676
 -0.3572  -0.3531  -0.3469  -0.3209  -0.3127  -0.2846  -0.2749  -0.2573
 -0.2527  -0.2403  -0.2191  -0.1661

 Beta MOs
 -- Occupied --
-88.8441 -19.1461 -19.1041 -19.0785 -19.0714 -10.2984 -10.2291 -10.2202
-10.2080 -10.1955 -10.1827 -10.1782 -10.1737 -10.1725 -10.1622 -10.1621
-10.1598  -7.9296  -5.8935  -5.8896  -5.8834  -1.0918  -1.0125  -0.9947
 -0.9887  -0.8378  -0.8143  -0.7902  -0.7331  -0.7278  -0.7085  -0.6633
 -0.6394  -0.6158  -0.6022  -0.5493  -0.5460  -0.5136  -0.5075  -0.4782
 -0.4608  -0.4471  -0.4402  -0.4366  -0.4202  -0.4160  -0.4141  -0.4107
 -0.3984  -0.3944  -0.3906  -0.3881  -0.3751  -0.3718  -0.3668  -0.3569
 -0.3513  -0.3476  -0.3390  -0.3189  -0.3121  -0.2786  -0.2619  -0.2502
 -0.2414  -0.2338  -0.2135

          Ground-State Mulliken Net Atomic Charges

     Atom                 Charge (a.u.)    Spin (a.u.)
  --------------------------------------------------------
      1 C                    -1.473976       0.179681
      2 C                     0.572962       0.038745
      3 C                     0.068389       0.126171
      4 C                    -3.354555       0.021657
      5 C                    -0.154359       0.126144
      6 C                     1.261274       0.002114
      7 O                    -0.370925       0.186168
      8 O                    -0.339701       0.278937
      9 C                     0.277770       0.007951
     10 C                     0.015144       0.002016
     11 C                     0.474488      -0.004956
     12 S                     0.157899       0.007589
     13 C                     0.066857      -0.001442
     14 C                    -0.039315      -0.004669
     15 C                    -0.390112       0.002233
     16 O                    -0.337715       0.000828
     17 O                    -0.322787       0.002064
     18 H                     0.177277      -0.000752
     19 H                     0.191022       0.001909
     20 H                     0.188271       0.001348
     21 H                     0.211899       0.004493
     22 H                     0.205321       0.004917
     23 H                     0.163381      -0.001999
     24 H                     0.156642      -0.001183
     25 H                     0.202401       0.008675
     26 H                     0.161665       0.002826
     27 H                     0.093285      -0.000039
     28 H                     0.330619       0.000121
     29 H                     0.273170      -0.000536
     30 H                     0.118929       0.004693
     31 H                     0.414778       0.004295
  --------------------------------------------------------
  Sum of atomic charges =    -1.000000

                    Cartesian Multipole Moments
 -----------------------------------------------------------------
    Charge (ESU x 10^10)
                -4.8032
    Dipole Moment (Debye)
         X     -11.7419      Y     -13.7973      Z      -4.1850
       Tot      18.5944
    Quadrupole Moments (Debye-Ang)
        XX    -168.1060     XY     -68.4704     YY    -211.1331
        XZ     -18.9178     YZ     -24.7215     ZZ    -121.2466

 Total job time:  933.75s(wall), 7017.08s(cpu)
        *  Thank you very much for using Q-Chem.  Have a nice day.  *
