 Q-Chem 5.4, Q-Chem, Inc., Pleasanton, CA (2021)
 Q-Chem 5.4.0 for Intel X86 EM64T Linux

User input:
--------------------------------------------------------------
$molecule
0 1
C                 -3.2567610000      0.0619150000      1.0087520000
C                 -1.9377220000     -0.0124970000      0.3025790000
C                 -1.8142350000     -0.2279730000     -1.0204710000
C                 -0.5162220000     -0.3022480000     -1.7221790000
O                 -0.4716810000     -0.5005280000     -2.9268010000
C                  0.7185620000     -0.1265550000     -0.9038940000
C                  1.9737590000     -0.1867580000     -1.5124400000
C                  3.1247140000     -0.0229480000     -0.7482580000
C                  3.0277960000      0.2017870000      0.6273580000
C                  1.7804330000      0.2630190000      1.2399190000
C                  0.6197810000      0.0994600000      0.4790690000
C                 -0.7125520000      0.1672760000      1.1470410000
O                 -0.8183650000      0.3630090000      2.3467640000
H                 -4.0836040000     -0.0799070000      0.3120770000
H                 -3.3143890000     -0.6966080000      1.7942580000
H                 -3.3697850000      1.0275780000      1.5091390000
H                 -2.6845260000     -0.3614680000     -1.6554140000
H                  2.0250280000     -0.3619610000     -2.5801150000
H                  4.0988010000     -0.0698930000     -1.2217270000
H                  3.9267970000      0.3289240000      1.2196500000
H                  1.6841720000      0.4363770000      2.3046930000
$end
$rem
MAX_SCF_CYCLES=200
BASIS  =  6-311++G(d,p)
GUI  =  2
JOB_TYPE  =  SP
METHOD  =  B3LYP
SOLVENT_METHOD = PCM
$end
$pcm
theory = CPCM
$end
$solvent
dielectric 37.219
opticaldielectric 1.43
$end

--------------------------------------------------------------

             Standard Nuclear Orientation (Angstroms)
    I     Atom           X                Y                Z
 ----------------------------------------------------------------
    1      C      -3.2567610000     0.0619150000     1.0087520000
    2      C      -1.9377220000    -0.0124970000     0.3025790000
    3      C      -1.8142350000    -0.2279730000    -1.0204710000
    4      C      -0.5162220000    -0.3022480000    -1.7221790000
    5      O      -0.4716810000    -0.5005280000    -2.9268010000
    6      C       0.7185620000    -0.1265550000    -0.9038940000
    7      C       1.9737590000    -0.1867580000    -1.5124400000
    8      C       3.1247140000    -0.0229480000    -0.7482580000
    9      C       3.0277960000     0.2017870000     0.6273580000
   10      C       1.7804330000     0.2630190000     1.2399190000
   11      C       0.6197810000     0.0994600000     0.4790690000
   12      C      -0.7125520000     0.1672760000     1.1470410000
   13      O      -0.8183650000     0.3630090000     2.3467640000
   14      H      -4.0836040000    -0.0799070000     0.3120770000
   15      H      -3.3143890000    -0.6966080000     1.7942580000
   16      H      -3.3697850000     1.0275780000     1.5091390000
   17      H      -2.6845260000    -0.3614680000    -1.6554140000
   18      H       2.0250280000    -0.3619610000    -2.5801150000
   19      H       4.0988010000    -0.0698930000    -1.2217270000
   20      H       3.9267970000     0.3289240000     1.2196500000
   21      H       1.6841720000     0.4363770000     2.3046930000
 ----------------------------------------------------------------

    9    -574.6032909060      2.71e-06  Convergence criterion met
 Total energy in the final basis set =     -574.6032909060

                    Orbital Energies (a.u.)
 --------------------------------------------------------------

 Alpha MOs
 -- Occupied --
-19.1381 -19.1350 -10.2852 -10.2829 -10.2199 -10.2077 -10.2068 -10.2018
-10.1973 -10.1971 -10.1966 -10.1961 -10.1745  -1.0714  -1.0670  -0.8902
 -0.8461  -0.7848  -0.7779  -0.7282  -0.6840  -0.6470  -0.6225  -0.5876
 -0.5452  -0.5284  -0.5010  -0.4777  -0.4643  -0.4599  -0.4559  -0.4505
 -0.4287  -0.4268  -0.4138  -0.4097  -0.3961  -0.3790  -0.3782  -0.3682
 -0.2988  -0.2904  -0.2788  -0.2777  -0.2774

          Ground-State Mulliken Net Atomic Charges

     Atom                 Charge (a.u.)
  ----------------------------------------
      1 C                    -0.345142
      2 C                     0.862490
      3 C                    -0.436603
      4 C                    -0.806849
      5 O                    -0.311669
      6 C                     0.456961
      7 C                     0.071923
      8 C                    -0.362250
      9 C                    -0.461090
     10 C                     0.102625
     11 C                     0.326059
     12 C                    -0.454672
     13 O                    -0.281096
     14 H                     0.183368
     15 H                     0.198336
     16 H                     0.198264
     17 H                     0.220927
     18 H                     0.193782
     19 H                     0.226804
     20 H                     0.228736
     21 H                     0.189097
  ----------------------------------------
  Sum of atomic charges =     0.000000

                    Cartesian Multipole Moments
 -----------------------------------------------------------------
    Charge (ESU x 10^10)
                 0.0000
    Dipole Moment (Debye)
         X       1.2052      Y       0.1937      Z       0.9404
       Tot       1.5409
    Quadrupole Moments (Debye-Ang)
        XX     -53.8328     XY       0.7284     YY     -76.8733
        XZ       0.0095     YZ      -2.7075     ZZ     -92.7727

 Total job time:  25.90s(wall), 178.52s(cpu)
        *  Thank you very much for using Q-Chem.  Have a nice day.  *
