 Gaussian 16, Revision A.03,
 Gaussian 16:  ES64L-G16RevA.03 25-Dec-2016

 --------------------------------------
 #P UB3LYP/6-311++G(d,p) nosym opt freq
 --------------------------------------

 -------
 Reduced
 -------
 Symbolic Z-matrix:
 Charge = -2 Multiplicity = 1

 SCF Done:  E(UB3LYP) =  -763.204648164     A.U. after   20 cycles
 SCF Done:  E(UB3LYP) =  -763.204648168     A.U. after   10 cycles
 SCF Done:  E(UB3LYP) =  -763.204648183     A.U. after    9 cycles
 Optimization completed.
    -- Stationary point found.
 Normal termination of Gaussian 16 at Mon Jan  8 01:31:04 2024.

 ----------------------------------------------------------------------
 #P Geom=AllCheck Guess=TCheck SCRF=Check GenChk UB3LYP/6-311++G(d,p) F
 req
 ----------------------------------------------------------------------

 Structure from the checkpoint file:  "262-an.chk"
 -------
 Reduced
 -------
 Charge = -2 Multiplicity = 1

                          Input orientation:
 ---------------------------------------------------------------------
 Center     Atomic      Atomic             Coordinates (Angstroms)
 Number     Number       Type             X           Y           Z
 ---------------------------------------------------------------------
      1          6           0        3.306916   -1.948402    0.365600
      2          6           0        2.002977   -1.744561   -0.375888
      3          8           0        1.911440   -1.694257   -1.582707
      4          8           0        2.030735    0.785728    0.438825
      5          6           0        0.841073    1.237337    0.262250
      6          6           0        0.569546    2.632019    0.217656
      7          6           0       -0.717056    3.149705    0.003281
      8          6           0       -1.807102    2.316172   -0.175202
      9          6           0       -1.637951    0.909514   -0.134471
     10          6           0       -2.844704    0.064044   -0.310220
     11          8           0       -3.999074    0.579180   -0.506843
     12          6           0       -2.621114   -1.336020   -0.236227
     13          6           0       -1.343256   -1.876512   -0.011616
     14          6           0       -0.239900   -1.069424    0.139198
     15          8           0        0.983334   -1.711363    0.497986
     16          6           0       -0.332008    0.351034    0.088484
     17          1           0        3.550909   -0.973893    0.796089
     18          1           0        4.086872   -2.272660   -0.326019
     19          1           0        3.184703   -2.672239    1.176745
     20          1           0        1.423663    3.294690    0.345777
     21          1           0       -0.854924    4.232760   -0.026340
     22          1           0       -2.809063    2.692777   -0.343431
     23          1           0       -3.481330   -1.991261   -0.357293
     24          1           0       -1.204684   -2.954368    0.054362
 ---------------------------------------------------------------------

 SCF Done:  E(UB3LYP) =  -763.204648183     A.U. after    2 cycles

 Alpha  occ. eigenvalues --  -18.91131 -18.86617 -18.77572 -18.77103 -10.06265
 Alpha  occ. eigenvalues --   -9.95254  -9.94450  -9.94164  -9.93519  -9.90288
 Alpha  occ. eigenvalues --   -9.90143  -9.89896  -9.89140  -9.87856  -9.87789
 Alpha  occ. eigenvalues --   -9.87747  -0.85378  -0.77503  -0.69316  -0.68854
 Alpha  occ. eigenvalues --   -0.57100  -0.53833  -0.51733  -0.46012  -0.44999
 Alpha  occ. eigenvalues --   -0.42086  -0.35372  -0.34037  -0.32255  -0.26182
 Alpha  occ. eigenvalues --   -0.24913  -0.24183  -0.23363  -0.22052  -0.21728
 Alpha  occ. eigenvalues --   -0.19385  -0.17966  -0.17463  -0.15337  -0.14167
 Alpha  occ. eigenvalues --   -0.13545  -0.12513  -0.11755  -0.11508  -0.10273
 Alpha  occ. eigenvalues --   -0.08298  -0.07833  -0.06863  -0.05690  -0.03941
 Alpha  occ. eigenvalues --   -0.03137  -0.02265   0.02910   0.04447   0.06039
 Alpha  occ. eigenvalues --    0.07487   0.11523
 Alpha virt. eigenvalues --    0.16219   0.18097   0.18571   0.19388   0.20028
 Alpha virt. eigenvalues --    0.20581   0.21910   0.22418   0.24139   0.24857
 Alpha virt. eigenvalues --    0.25489   0.25621   0.26798   0.27378   0.27633

  Beta  occ. eigenvalues --  -18.91131 -18.86617 -18.77572 -18.77103 -10.06265
  Beta  occ. eigenvalues --   -9.95254  -9.94450  -9.94164  -9.93519  -9.90288
  Beta  occ. eigenvalues --   -9.90143  -9.89896  -9.89140  -9.87856  -9.87789
  Beta  occ. eigenvalues --   -9.87747  -0.85378  -0.77503  -0.69316  -0.68854
  Beta  occ. eigenvalues --   -0.57100  -0.53833  -0.51733  -0.46012  -0.44999
  Beta  occ. eigenvalues --   -0.42086  -0.35372  -0.34037  -0.32255  -0.26182
  Beta  occ. eigenvalues --   -0.24913  -0.24183  -0.23363  -0.22052  -0.21728
  Beta  occ. eigenvalues --   -0.19385  -0.17966  -0.17463  -0.15337  -0.14167
  Beta  occ. eigenvalues --   -0.13545  -0.12513  -0.11755  -0.11508  -0.10273
  Beta  occ. eigenvalues --   -0.08298  -0.07833  -0.06863  -0.05690  -0.03941
  Beta  occ. eigenvalues --   -0.03137  -0.02265   0.02910   0.04447   0.06039
  Beta  occ. eigenvalues --    0.07487   0.11523
  Beta virt. eigenvalues --    0.16219   0.18097   0.18571   0.19388   0.20028
  Beta virt. eigenvalues --    0.20581   0.21910   0.22418   0.24139   0.24857
  Beta virt. eigenvalues --    0.25489   0.25621   0.26798   0.27378   0.27633

 Mulliken charges and spin densities:
               1          2
     1  C   -0.443468  -0.000000
     2  C   -0.018481  -0.000000
     3  O   -0.267762   0.000000
     4  O   -0.508418   0.000000
     5  C   -0.369765  -0.000000
     6  C   -0.131160  -0.000000
     7  C   -0.157990   0.000000
     8  C   -0.138209   0.000000
     9  C    0.443846   0.000000
    10  C   -0.987284  -0.000000
    11  O   -0.517708  -0.000000
    12  C    0.043446   0.000000
    13  C    0.206459   0.000000
    14  C   -0.634502   0.000000
    15  O   -0.027518  -0.000000
    16  C    0.729168  -0.000000
    17  H    0.209475  -0.000000
    18  H    0.091144   0.000000
    19  H    0.103842  -0.000000
    20  H    0.057873   0.000000
    21  H    0.065410  -0.000000
    22  H    0.113622  -0.000000
    23  H    0.060076  -0.000000
    24  H    0.077902   0.000000
 Sum of Mulliken charges =  -2.00000  -0.00000

 Dipole moment (field-independent basis, Debye):
    X=              7.3634    Y=             -3.8749    Z=              2.5727  Tot=              8.7094
 Quadrupole moment (field-independent basis, Debye-Ang):
   XX=           -173.4477   YY=           -126.0314   ZZ=           -112.3347
   XY=              6.5403   XZ=             -3.8025   YZ=             -4.5218

  Exact polarizability: 249.441  -2.918 236.762  15.203   2.181 121.694
 Approx polarizability: 390.686  -0.252 369.272  29.968  -1.272 192.568

                      1                      2                      3
                      A                      A                      A
 Frequencies --     50.9513                69.3788               102.0261
 Red. masses --      7.4061                 7.0152                 8.0216
 Frc consts  --      0.0113                 0.0199                 0.0492
 IR Inten    --      1.7238                 0.8218                 9.3521

                      4                      5                      6
                      A                      A                      A
 Frequencies --    126.6176               137.1731               144.5514
 Red. masses --      3.5994                 1.0955                 4.8785
 Frc consts  --      0.0340                 0.0121                 0.0601
 IR Inten    --      9.8111                 0.1068                 1.0984

                      7                      8                      9
                      A                      A                      A
 Frequencies --    181.8856               255.1913               276.1144
 Red. masses --      5.7359                 5.6829                 8.5535
 Frc consts  --      0.1118                 0.2180                 0.3842
 IR Inten    --      0.8009                 0.3588                11.6131

                     10                     11                     12
                      A                      A                      A
 Frequencies --    298.9341               358.7002               367.6087
 Red. masses --      4.2435                 8.7280                 6.3184
 Frc consts  --      0.2234                 0.6616                 0.5031
 IR Inten    --      2.8982                 0.5998                 3.8763

                     13                     14                     15
                      A                      A                      A
 Frequencies --    388.6117               466.0984               475.2308
 Red. masses --     10.1377                 5.4482                 4.2763
 Frc consts  --      0.9020                 0.6974                 0.5690
 IR Inten    --      0.1341                 0.5961                 0.2680

                     16                     17                     18
                      A                      A                      A
 Frequencies --    499.0043               529.9358               533.4206
 Red. masses --      5.4273                 7.2582                 3.3242
 Frc consts  --      0.7962                 1.2010                 0.5573
 IR Inten    --     20.9076                 9.1367                 1.3822

                     19                     20                     21
                      A                      A                      A
 Frequencies --    547.3612               600.2088               619.7269
 Red. masses --      3.0897                 4.8951                 5.4387
 Frc consts  --      0.5454                 1.0390                 1.2307
 IR Inten    --      7.9985                 3.3902                 3.1604

                     22                     23                     24
                      A                      A                      A
 Frequencies --    623.8273               676.0279               693.7516
 Red. masses --      5.0135                 5.2467                 1.7365
 Frc consts  --      1.1495                 1.4128                 0.4924
 IR Inten    --      7.0182                 2.2345                20.8128

                     25                     26                     27
                      A                      A                      A
 Frequencies --    716.2268               755.1233               770.4190
 Red. masses --      1.5386                 3.9664                 2.4826
 Frc consts  --      0.4650                 1.3325                 0.8682
 IR Inten    --     45.7704                46.4200                31.7733

                     28                     29                     30
                      A                      A                      A
 Frequencies --    784.5917               805.9495               813.5636
 Red. masses --      3.1699                 3.7631                 2.9351
 Frc consts  --      1.1497                 1.4402                 1.1446
 IR Inten    --     16.7457                 5.9680                 5.6177

                     31                     32                     33
                      A                      A                      A
 Frequencies --    853.0289               893.7946               916.9424
 Red. masses --      1.4208                 1.2087                 5.5795
 Frc consts  --      0.6091                 0.5689                 2.7639
 IR Inten    --      1.1255                 1.8961                10.3636

                     34                     35                     36
                      A                      A                      A
 Frequencies --    955.6515               992.9797              1037.3053
 Red. masses --      6.0446                 2.5255                 2.0144
 Frc consts  --      3.2525                 1.4672                 1.2770
 IR Inten    --     40.8986                17.7873                35.5011

                     37                     38                     39
                      A                      A                      A
 Frequencies --   1046.1074              1070.4789              1117.2602
 Red. masses --      1.9405                 1.6447                 1.6319
 Frc consts  --      1.2512                 1.1104                 1.2002
 IR Inten    --    124.9376                 4.4439                63.4060

                     40                     41                     42
                      A                      A                      A
 Frequencies --   1144.0319              1156.5858              1199.2066
 Red. masses --      1.3481                 1.7408                 3.4626
 Frc consts  --      1.0396                 1.3720                 2.9339
 IR Inten    --     50.5630                 1.3524                24.2701

                     43                     44                     45
                      A                      A                      A
 Frequencies --   1235.6977              1251.0298              1307.2672
 Red. masses --      4.5709                 3.6319                 4.0363
 Frc consts  --      4.1122                 3.3490                 4.0641
 IR Inten    --     35.1452               295.2629                12.8127

                     46                     47                     48
                      A                      A                      A
 Frequencies --   1322.1175              1353.0840              1368.2124
 Red. masses --      2.4733                 1.4507                 2.8841
 Frc consts  --      2.5472                 1.5649                 3.1810
 IR Inten    --    129.6985               188.8338                10.9651

                     49                     50                     51
                      A                      A                      A
 Frequencies --   1385.8394              1447.0929              1458.7372
 Red. masses --      3.9268                 4.2038                 1.8694
 Frc consts  --      4.4434                 5.1866                 2.3438
 IR Inten    --      3.4441                13.2296               302.4634

                     52                     53                     54
                      A                      A                      A
 Frequencies --   1466.6041              1483.3130              1513.8735
 Red. masses --      1.8224                 1.0643                 5.2312
 Frc consts  --      2.3096                 1.3797                 7.0637
 IR Inten    --    205.2978                 9.3358               892.7032

                     55                     56                     57
                      A                      A                      A
 Frequencies --   1558.2300              1579.8324              1593.7216
 Red. masses --      4.9982                 6.5085                 7.1488
 Frc consts  --      7.1504                 9.5709                10.6981
 IR Inten    --    141.2073                 8.8029                41.1492

                     58                     59                     60
                      A                      A                      A
 Frequencies --   1760.2960              3020.6056              3057.6692
 Red. masses --     11.1994                 1.0331                 1.0845
 Frc consts  --     20.4464                 5.5537                 5.9738
 IR Inten    --    325.1053                87.9688               109.2694

                     61                     62                     63
                      A                      A                      A
 Frequencies --   3092.9045              3100.3085              3113.5958
 Red. masses --      1.1005                 1.0845                 1.1026
 Frc consts  --      6.2026                 6.1415                 6.2981
 IR Inten    --     33.3690                58.1263                15.4228

                     64                     65                     66
                      A                      A                      A
 Frequencies --   3114.1592              3125.9185              3175.3052
 Red. masses --      1.0905                 1.0923                 1.0899
 Frc consts  --      6.2310                 6.2885                 6.4746
 IR Inten    --    123.2574               102.2781                22.9572

 - Thermochemistry -
 -------------------
 Temperature   298.150 Kelvin.  Pressure   1.00000 Atm.
 Atom     1 has atomic number  6 and mass  12.00000

 Molecular mass:   216.04226 amu.
 Principal axes and moments of inertia in atomic units:
                           1         2         3
     Eigenvalues --  2030.860983912.869335562.62738
           X            0.88452   0.46091  -0.07198
           Y           -0.46589   0.88064  -0.08611
           Z            0.02370   0.10971   0.99368
 This molecule is an asymmetric top.
 Rotational symmetry number  1.
 Warning -- assumption of classical behavior for rotation
           may cause significant error
 Rotational temperatures (Kelvin)      0.04265     0.02214     0.01557
 Rotational constants (GHZ):           0.88866     0.46123     0.32444
 Zero-point vibrational energy     442241.5 (Joules/Mol)
                                  105.69825 (Kcal/Mol)
 Warning -- explicit consideration of  21 degrees of freedom as
           vibrations may cause significant error
 Vibrational temperatures:     73.31    99.82   146.79   182.17   197.36
          (Kelvin)            207.98   261.69   367.16   397.27   430.10
                              516.09   528.91   559.13   670.61   683.75
                              717.96   762.46   767.47   787.53   863.57
                              891.65   897.55   972.65   998.15  1030.49
                             1086.45  1108.46  1128.85  1159.58  1170.54
                             1227.32  1285.97  1319.28  1374.97  1428.68
                             1492.45  1505.12  1540.18  1607.49  1646.01
                             1664.07  1725.39  1777.89  1799.95  1880.87
                             1902.23  1946.79  1968.55  1993.91  2082.04
                             2098.80  2110.12  2134.16  2178.13  2241.95
                             2273.03  2293.01  2532.67  4345.98  4399.30
                             4450.00  4460.65  4479.77  4480.58  4497.50
                             4568.56

 Zero-point correction=                           0.168441 (Hartree/Particle)
 Thermal correction to Energy=                    0.181657
 Thermal correction to Enthalpy=                  0.182602
 Thermal correction to Gibbs Free Energy=         0.128510
 Sum of electronic and zero-point Energies=           -763.036207
 Sum of electronic and thermal Energies=              -763.022991
 Sum of electronic and thermal Enthalpies=            -763.022047
 Sum of electronic and thermal Free Energies=         -763.076139

                     E (Thermal)             CV                S
                      KCal/Mol        Cal/Mol-Kelvin    Cal/Mol-Kelvin
 Total                  113.992             51.385            113.846
 Electronic               0.000              0.000              0.000
 Translational            0.889              2.981             42.014
 Rotational               0.889              2.981             32.158
 Vibrational            112.214             45.423             39.674
 Vibration     1          0.595              1.977              4.780
 Vibration     2          0.598              1.969              4.171
 Vibration     3          0.604              1.948              3.415
 Vibration     4          0.611              1.927              2.997
 Vibration     5          0.614              1.916              2.843
 Vibration     6          0.616              1.909              2.743
 Vibration     7          0.630              1.864              2.309
 Vibration     8          0.666              1.754              1.694
 Vibration     9          0.678              1.718              1.558
 Vibration    10          0.692              1.676              1.423
 Vibration    11          0.734              1.557              1.128
 Vibration    12          0.740              1.539              1.090
 Vibration    13          0.757              1.495              1.005
 Vibration    14          0.823              1.325              0.749
 Vibration    15          0.832              1.305              0.723
 Vibration    16          0.854              1.252              0.661
 Vibration    17          0.885              1.184              0.587
 Vibration    18          0.888              1.176              0.580
 Vibration    19          0.903              1.145              0.550
 Vibration    20          0.958              1.031              0.449
 Vibration    21          0.980              0.990              0.417

 Optimization completed.
    -- Stationary point found.
 Normal termination of Gaussian 16 at Mon Jan  8 02:06:09 2024.
