 Q-Chem 5.4, Q-Chem, Inc., Pleasanton, CA (2021)
 Q-Chem 5.4.0 for Intel X86 EM64T Linux

User input:
--------------------------------------------------------------
$molecule
-2 1
C                  3.3069160000     -1.9484020000      0.3656000000
C                  2.0029770000     -1.7445610000     -0.3758880000
O                  1.9114400000     -1.6942570000     -1.5827070000
O                  2.0307350000      0.7857280000      0.4388250000
C                  0.8410730000      1.2373370000      0.2622500000
C                  0.5695460000      2.6320190000      0.2176560000
C                 -0.7170560000      3.1497050000      0.0032810000
C                 -1.8071020000      2.3161720000     -0.1752020000
C                 -1.6379510000      0.9095140000     -0.1344710000
C                 -2.8447040000      0.0640440000     -0.3102200000
O                 -3.9990740000      0.5791800000     -0.5068430000
C                 -2.6211140000     -1.3360200000     -0.2362270000
C                 -1.3432560000     -1.8765120000     -0.0116160000
C                 -0.2399000000     -1.0694240000      0.1391980000
O                  0.9833340000     -1.7113630000      0.4979860000
C                 -0.3320080000      0.3510340000      0.0884840000
H                  3.5509090000     -0.9738930000      0.7960890000
H                  4.0868720000     -2.2726600000     -0.3260190000
H                  3.1847030000     -2.6722390000      1.1767450000
H                  1.4236630000      3.2946900000      0.3457770000
H                 -0.8549240000      4.2327600000     -0.0263400000
H                 -2.8090630000      2.6927770000     -0.3434310000
H                 -3.4813300000     -1.9912610000     -0.3572930000
H                 -1.2046840000     -2.9543680000      0.0543620000
$end
$rem
MAX_SCF_CYCLES=200
BASIS  =  6-311++G(d,p)
GUI  =  2
JOB_TYPE  =  SP
METHOD  =  B3LYP
SOLVENT_METHOD = COSMO
$end
$solvent
dielectric 37.219
opticaldielectric 1.43
$end

--------------------------------------------------------------

             Standard Nuclear Orientation (Angstroms)
    I     Atom           X                Y                Z
 ----------------------------------------------------------------
    1      C      -3.9820082929     0.0116696099     0.3307771138
    2      C      -2.7182041737     0.5277059697    -0.3235302657
    3      O      -2.5781943182     0.6526935959    -1.5202327965
    4      O      -1.5561728880    -1.7835997653     0.2883841830
    5      C      -0.2908063511    -1.5972049599     0.1678454020
    6      C       0.6160009830    -2.6840290550     0.0360604908
    7      C       1.9991727673    -2.5056179530    -0.1198415152
    8      C       2.5623846246    -1.2420127558    -0.1503051823
    9      C       1.7398134327    -0.0958578398    -0.0136913221
   10      C       2.3996631730     1.2331397180    -0.0316870576
   11      O       3.6650367340     1.3493498026    -0.1797436913
   12      C       1.5314861274     2.3442980131     0.1333660156
   13      C       0.1447767169     2.1889086021     0.3018709504
   14      C      -0.4419510774     0.9450175801     0.3058691741
   15      O      -1.8332080479     0.8902479351     0.6197485389
   16      C       0.3198987915    -0.2486322146     0.1524362302
   17      H      -3.7426700488    -1.0010720043     0.6648321721
   18      H      -4.8012548009    -0.0018109245    -0.3906554111
   19      H      -4.2449467164     0.6182106729     1.2024442265
   20      H       0.1796038259    -3.6812700929     0.0475290636
   21      H       2.6391561894    -3.3846687085    -0.2227206226
   22      H       3.6268872912    -1.0797139800    -0.2709341512
   23      H       1.9765823070     3.3371916759     0.1287969402
   24      H      -0.4944102135     3.0592925257     0.4404377068
 ----------------------------------------------------------------

   11    -763.2046577720      5.15e-06  Convergence criterion met
 Total energy in the final basis set =     -763.2046577720
    6    -763.4842573360      2.53e-06  Convergence criterion met
 Total energy in the final basis set =     -763.4842573360

                    Orbital Energies (a.u.)
 --------------------------------------------------------------

 Alpha MOs
 -- Occupied --
-19.1536 -19.1056 -19.0375 -19.0343 -10.2975 -10.1973 -10.1971 -10.1943
-10.1575 -10.1543 -10.1490 -10.1480 -10.1471 -10.1302 -10.1293 -10.1275
 -1.0954  -1.0166  -0.9568  -0.9533  -0.8246  -0.7861  -0.7411  -0.7116
 -0.6990  -0.6694  -0.5985  -0.5906  -0.5723  -0.5082  -0.4865  -0.4848
 -0.4709  -0.4703  -0.4542  -0.4292  -0.4205  -0.4013  -0.3970  -0.3876
 -0.3803  -0.3761  -0.3710  -0.3617  -0.3567  -0.3450  -0.3274  -0.3225
 -0.3054  -0.2867  -0.2857  -0.2750  -0.2251  -0.2201  -0.2033  -0.1861
 -0.1431

          Ground-State Mulliken Net Atomic Charges

     Atom                 Charge (a.u.)
  ----------------------------------------
      1 C                    -0.484521
      2 C                     0.136350
      3 O                    -0.368439
      4 O                    -0.650192
      5 C                    -0.060177
      6 C                    -0.348199
      7 C                    -0.373353
      8 C                    -0.168338
      9 C                     0.353132
     10 C                    -0.532402
     11 O                    -0.684072
     12 C                    -0.153383
     13 C                    -0.004866
     14 C                    -0.712497
     15 O                    -0.050476
     16 C                     0.730744
     17 H                     0.208093
     18 H                     0.158600
     19 H                     0.172136
     20 H                     0.153804
     21 H                     0.178571
     22 H                     0.147117
     23 H                     0.162588
     24 H                     0.189781
  ----------------------------------------
  Sum of atomic charges =    -2.000000

                    Cartesian Multipole Moments
 -----------------------------------------------------------------
    Charge (ESU x 10^10)
                -9.6064
    Dipole Moment (Debye)
         X      -8.9178      Y       0.4830      Z       2.3831
       Tot       9.2433
    Quadrupole Moments (Debye-Ang)
        XX    -158.9060     XY     -21.8253     YY    -121.4211
        XZ      -4.2822     YZ       4.3474     ZZ    -110.5718

 Total job time:  56.27s(wall), 414.91s(cpu)
        *  Thank you very much for using Q-Chem.  Have a nice day.  *
