 Q-Chem 5.4, Q-Chem, Inc., Pleasanton, CA (2021)
 Q-Chem 5.4.0 for Intel X86 EM64T Linux

User input:
--------------------------------------------------------------
$molecule
-1 2
O                  4.5658040000     -1.3935810000     -0.8858290000
C                  3.4251030000     -0.6663710000     -0.5528020000
C                  3.4955780000      0.6734950000     -0.1761680000
C                  2.3286640000      1.3556530000      0.1452870000
O                  2.4174180000      2.6463670000      0.5087840000
C                  1.0680250000      0.6852820000      0.0787650000
C                 -0.1264180000      1.4424780000      0.4197560000
O                 -0.0204820000      2.6675520000      0.7629540000
C                 -1.4139240000      0.7720550000      0.3587710000
C                 -2.6327900000      1.4336000000      0.6735340000
O                 -2.6300020000      2.7574780000      1.0530740000
C                 -3.8374390000      0.7505810000      0.6011130000
C                 -3.8965110000     -0.5943600000      0.2206220000
C                 -2.7328400000     -1.2798640000     -0.0960590000
O                 -2.8213240000     -2.5746750000     -0.4594920000
C                 -1.4701190000     -0.6087640000     -0.0320200000
C                 -0.2743420000     -1.3652190000     -0.3739220000
O                 -0.3723570000     -2.5905810000     -0.7177660000
C                  1.0136600000     -0.6937670000     -0.3135530000
C                  2.2254850000     -1.3639110000     -0.6262050000
O                  2.2656630000     -2.6836760000     -0.9970820000
H                  5.3411520000     -0.9008090000     -0.6035780000
H                  4.4437450000      1.2004510000     -0.1371460000
H                  1.4426870000      2.9139800000      0.6838560000
H                 -3.5466650000      3.0039230000      1.2155220000
H                 -4.7573270000      1.2778550000      0.8469660000
H                 -4.8423970000     -1.1205750000      0.1663540000
H                 -1.8555420000     -2.8455220000     -0.6379680000
H                  3.1994990000     -2.9052740000     -1.1041690000
$end
$rem
MAX_SCF_CYCLES=200
BASIS  =  6-311++G(d,p)
GUI  =  2
JOB_TYPE  =  SP
METHOD  =  B3LYP
SOLVENT_METHOD = COSMO
$end
$solvent
dielectric 37.219
opticaldielectric 1.43
$end

--------------------------------------------------------------

             Standard Nuclear Orientation (Angstroms)
    I     Atom           X                Y                Z
 ----------------------------------------------------------------
    1      O       4.7175082620    -0.7621162085    -0.0165829340
    2      C       3.4543155268    -0.1745692596    -0.0080485993
    3      C       3.2910365361     1.2094107172    -0.0084827912
    4      C       2.0097874302     1.7467270389    -0.0012001824
    5      O       1.8728770941     3.0835892044     0.0010540511
    6      C       0.8722747872     0.8812246050    -0.0031149831
    7      C      -0.4487887520     1.4904031209    -0.0003972972
    8      O      -0.5571977739     2.7624309521     0.0021105366
    9      C      -1.6134213519     0.6217903486     0.0003953907
   10      C      -2.9419475538     1.1291045909     0.0018952351
   11      O      -3.1698909641     2.4873214792     0.0020668926
   12      C      -4.0220035869     0.2593827144     0.0032338158
   13      C      -3.8463197891    -1.1285163539     0.0024755461
   14      C      -2.5684611518    -1.6683363523     0.0003640268
   15      O      -2.4307429618    -3.0090380723    -0.0006787621
   16      C      -1.4286610361    -0.8024287285    -0.0000949340
   17      C      -0.1062625839    -1.4109126582    -0.0037581967
   18      O       0.0100467078    -2.6820596292    -0.0060372880
   19      C       1.0588031539    -0.5413952226    -0.0053744675
   20      C       2.3812871931    -1.0575301136    -0.0031779311
   21      O       2.6496404232    -2.4024486378     0.0079747865
   22      H       5.3729798103    -0.0913605986     0.1934131453
   23      H       4.1450525481     1.8792222307    -0.0238186974
   24      H       0.8562370068     3.2207395392     0.0006493032
   25      H      -4.1249597748     2.6107638473     0.0010204607
   26      H      -5.0295694564     0.6710434841     0.0046233060
   27      H      -4.6960929927    -1.8011473676     0.0032429399
   28      H      -1.4219785041    -3.1516315494    -0.0035108696
   29      H       3.6105721343    -2.4851889711     0.0568343591
 ----------------------------------------------------------------

   10   -1065.2654542785      4.08e-06  Convergence criterion met
 Total energy in the final basis set =    -1065.2654542785
    5   -1065.3628777831      4.55e-06  Convergence criterion met
 Total energy in the final basis set =    -1065.3628777831

                    Orbital Energies (a.u.)
 --------------------------------------------------------------

 Alpha MOs
 -- Occupied --
-19.1652 -19.1512 -19.1502 -19.1306 -19.1282 -19.0925 -19.0912 -10.2424
-10.2416 -10.2401 -10.2395 -10.2373 -10.2358 -10.2328 -10.1885 -10.1849
-10.1832 -10.1812 -10.1750 -10.1731 -10.1699  -1.0819  -1.0630  -1.0581
 -1.0566  -1.0510  -1.0108  -1.0090  -0.8650  -0.8477  -0.7928  -0.7560
 -0.7440  -0.7369  -0.6830  -0.6563  -0.6451  -0.6098  -0.5956  -0.5773
 -0.5575  -0.5489  -0.5376  -0.5055  -0.5003  -0.4836  -0.4722  -0.4646
 -0.4557  -0.4532  -0.4341  -0.4320  -0.4314  -0.4222  -0.4188  -0.4146
 -0.4034  -0.3934  -0.3878  -0.3845  -0.3794  -0.3715  -0.3682  -0.3652
 -0.3591  -0.3576  -0.3148  -0.3056  -0.2705  -0.2601  -0.2496  -0.2482
 -0.2269  -0.2109  -0.1439

 Beta MOs
 -- Occupied --
-19.1650 -19.1507 -19.1499 -19.1303 -19.1278 -19.0885 -19.0865 -10.2408
-10.2405 -10.2393 -10.2378 -10.2369 -10.2349 -10.2325 -10.1882 -10.1845
-10.1831 -10.1812 -10.1741 -10.1723 -10.1688  -1.0809  -1.0619  -1.0569
 -1.0547  -1.0501  -1.0045  -1.0017  -0.8625  -0.8461  -0.7890  -0.7536
 -0.7415  -0.7347  -0.6772  -0.6541  -0.6430  -0.6086  -0.5942  -0.5756
 -0.5564  -0.5476  -0.5366  -0.5035  -0.4990  -0.4819  -0.4712  -0.4633
 -0.4540  -0.4472  -0.4312  -0.4289  -0.4281  -0.4209  -0.4160  -0.4077
 -0.3984  -0.3921  -0.3854  -0.3805  -0.3773  -0.3663  -0.3621  -0.3577
 -0.3564  -0.3536  -0.3068  -0.3005  -0.2574  -0.2567  -0.2448  -0.2442
 -0.2147  -0.2037

          Ground-State Mulliken Net Atomic Charges

     Atom                 Charge (a.u.)    Spin (a.u.)
  --------------------------------------------------------
      1 O                    -0.355283       0.006604
      2 C                    -0.438262       0.048686
      3 C                     0.235076       0.059042
      4 C                    -0.310633       0.023729
      5 O                    -0.458509       0.010377
      6 C                     0.591284      -0.011569
      7 C                    -0.277185       0.106818
      8 O                    -0.510883       0.141730
      9 C                     0.232974       0.012042
     10 C                    -0.243850       0.045774
     11 O                    -0.300491       0.010078
     12 C                    -0.155767       0.062495
     13 C                    -0.125102       0.072508
     14 C                    -0.335173       0.041998
     15 O                    -0.454823       0.014521
     16 C                     0.602362      -0.002301
     17 C                    -0.334390       0.131258
     18 O                    -0.502095       0.166895
     19 C                     0.480967      -0.009551
     20 C                    -0.458840       0.078506
     21 O                    -0.335407       0.014534
     22 H                     0.333061       0.000196
     23 H                     0.223081      -0.005109
     24 H                     0.425336      -0.002876
     25 H                     0.318386      -0.000461
     26 H                     0.196598      -0.005960
     27 H                     0.216064      -0.006288
     28 H                     0.411091      -0.003423
     29 H                     0.330414      -0.000250
  --------------------------------------------------------
  Sum of atomic charges =    -1.000000

                    Cartesian Multipole Moments
 -----------------------------------------------------------------
    Charge (ESU x 10^10)
                -4.8032
    Dipole Moment (Debye)
         X       2.0784      Y       1.9711      Z       0.5227
       Tot       2.9118
    Quadrupole Moments (Debye-Ang)
        XX     -94.1699     XY      -9.3170     YY    -173.7261
        XZ       2.8086     YZ      -0.3372     ZZ    -125.8979

 Total job time:  145.40s(wall), 968.56s(cpu)
        *  Thank you very much for using Q-Chem.  Have a nice day.  *
