 Q-Chem 5.4, Q-Chem, Inc., Pleasanton, CA (2021)
 Q-Chem 5.4.0 for Intel X86 EM64T Linux

User input:
--------------------------------------------------------------
$molecule
0 1
C                 -0.5683610000      2.0739230000      0.0080590000
C                 -1.8542590000      1.2919820000     -0.0315560000
C                 -1.8005780000     -0.0601500000      0.0226300000
C                 -0.4666830000     -0.7411080000      0.1000500000
C                  0.8154180000      0.0350680000      0.0463340000
C                  0.7716180000      1.3877200000     -0.0046060000
O                 -0.6134890000      3.2963370000      0.0525580000
O                 -0.4232310000     -1.9605590000      0.1997850000
C                  1.9613860000      2.3452600000     -0.0621560000
C                  2.8413010000      2.3206210000      1.2038830000
C                  2.7816890000      2.2283650000     -1.3628840000
C                  2.1064770000     -0.7746580000      0.0602670000
C                  2.3150970000     -1.5486890000      1.3792100000
C                  2.2467600000     -1.6980760000     -1.1681820000
C                 -3.1091080000      2.1602490000     -0.1162500000
C                 -4.0067460000      2.0785780000      1.1349170000
C                 -3.8961180000      1.9769880000     -1.4297880000
C                 -3.0295690000     -0.9613680000      0.0167230000
C                 -3.0833570000     -1.8922550000     -1.2128820000
C                 -3.2023270000     -1.7486980000      1.3330350000
H                  1.5097210000      3.3369510000     -0.0847940000
H                  3.5640680000      3.1408410000      1.1604600000
H                  3.4035540000      1.3923530000      1.3228060000
H                  2.2343660000      2.4622990000      2.1019300000
H                  3.3361780000      1.2911920000     -1.4427770000
H                  3.5071980000      3.0459070000     -1.4101670000
H                  2.1347750000      2.3096750000     -2.2404530000
H                  2.9197760000     -0.0560340000     -0.0041280000
H                  2.2369440000     -0.8841770000      2.2442900000
H                  3.3166680000     -1.9894550000      1.3876210000
H                  1.5861620000     -2.3501230000      1.4919780000
H                  1.5173280000     -2.5069220000     -1.1469390000
H                  3.2482900000     -2.1386330000     -1.1796640000
H                  2.1188990000     -1.1394570000     -2.0998340000
H                 -2.7302300000      3.1819920000     -0.1377030000
H                 -4.7875770000      2.8424500000      1.0730030000
H                 -3.4276530000      2.2707590000      2.0419120000
H                 -4.5003600000      1.1117280000      1.2514090000
H                 -4.6765760000      2.7408700000     -1.4956840000
H                 -4.3816960000      1.0025470000     -1.5118630000
H                 -3.2413460000      2.0980900000     -2.2968840000
H                 -3.8917940000     -0.3036530000     -0.0606230000
H                 -4.0495220000     -2.4052290000     -1.2389270000
H                 -2.2968860000     -2.6453670000     -1.1800320000
H                 -2.9830020000     -1.3254690000     -2.1429720000
H                 -4.1697960000     -2.2600170000      1.3264440000
H                 -3.1853230000     -1.0804520000      2.1986130000
H                 -2.4197460000     -2.4959080000      1.4578320000
$end
$rem
MAX_SCF_CYCLES=200
BASIS  =  6-311++G(d,p)
GUI  =  2
JOB_TYPE  =  SP
METHOD  =  B3LYP
SOLVENT_METHOD = COSMO
$end
$solvent
dielectric 37.219
opticaldielectric 1.43
$end

--------------------------------------------------------------

             Standard Nuclear Orientation (Angstroms)
    I     Atom           X                Y                Z
 ----------------------------------------------------------------
    1      C       0.0000828965    -1.6120341844    -0.0642095248
    2      C      -1.3137721909    -0.8790478070    -0.0089779947
    3      C      -1.3088715630     0.4752234568    -0.0109894083
    4      C       0.0000108927     1.2062858600    -0.0477045945
    5      C       1.3089636480     0.4753270989    -0.0095006714
    6      C       1.3139871792    -0.8789823983    -0.0106437278
    7      O      -0.0000474533    -2.8326610592    -0.1557666118
    8      O      -0.0000378617     2.4294453550    -0.1003993320
    9      C       2.5372434444    -1.7945279772     0.0234612649
   10      C       3.4278170101    -1.6894796207    -1.2309532615
   11      C       3.3401898726    -1.6983010680     1.3366528725
   12      C       2.5697381512     1.3309908530     0.0216579087
   13      C       2.7626991678     2.1622325511    -1.2644448150
   14      C       2.6644581327     2.2108939758     1.2858832399
   15      C      -2.5369103579    -1.7945899168     0.0287359204
   16      C      -3.4248482673    -1.6972218280    -1.2282162335
   17      C      -3.3426765546    -1.6905076833     1.3395597593
   18      C      -2.5698814865     1.3306692432     0.0157338695
   19      C      -2.6693779127     2.2109924368     1.2792621626
   20      C      -2.7585374435     2.1613458490    -1.2714321818
   21      H       2.1218127151    -2.8019881003     0.0033068569
   22      H       4.1795367709    -2.4841825046    -1.2108716994
   23      H       3.9569943567    -0.7376625997    -1.3082079707
   24      H       2.8351155732    -1.8182656932    -2.1403763304
   25      H       3.8593713750    -0.7455241245     1.4583115671
   26      H       4.0945149765    -2.4903794400     1.3607236667
   27      H       2.6882542432    -1.8365914571     2.2033085669
   28      H       3.4080222781     0.6401980135     0.0675644243
   29      H       2.7171359079     1.5291274090    -2.1550341504
   30      H       3.7475808460     2.6388043090    -1.2450201086
   31      H       2.0061674421     2.9406225326    -1.3546007751
   32      H       1.9062791007     2.9931447268     1.2874572707
   33      H       3.6491150536     2.6864898196     1.3251768639
   34      H       2.5480767637     1.6125827607     2.1941002506
   35      H      -2.1212816703    -2.8020830367     0.0153966703
   36      H      -4.1778894598    -2.4905543852    -1.2040658204
   37      H      -2.8304379694    -1.8333534594    -2.1354464943
   38      H      -3.9522170699    -0.7450219932    -1.3131968795
   39      H      -4.0953829606    -2.4839900606     1.3676927627
   40      H      -3.8642021535    -0.7380811040     1.4533675929
   41      H      -2.6923001681    -1.8212206827     2.2085662077
   42      H      -3.4082750734     0.6398186653     0.0584544521
   43      H      -3.6537969813     2.6874310579     1.3142022789
   44      H      -1.9105883362     2.9926644805     1.2838048114
   45      H      -2.5573927885     1.6128102868     2.1881198804
   46      H      -3.7440121103     2.6368336074    -1.2560081903
   47      H      -2.7088704532     1.5279603929    -2.1616137255
   48      H      -2.0025353998     2.9405231650    -1.3590319364
 ----------------------------------------------------------------

    9    -853.4511934650      3.07e-06  Convergence criterion met
 Total energy in the final basis set =     -853.4511934650
    4    -853.4594671085      4.52e-06  Convergence criterion met
 Total energy in the final basis set =     -853.4594671085

                    Orbital Energies (a.u.)
 --------------------------------------------------------------

 Alpha MOs
 -- Occupied --
-19.1331 -19.1275 -10.2781 -10.2751 -10.2046 -10.2046 -10.2038 -10.2038
-10.1837 -10.1836 -10.1812 -10.1812 -10.1596 -10.1596 -10.1594 -10.1594
-10.1558 -10.1558 -10.1557 -10.1556  -1.0671  -1.0621  -0.8635  -0.8395
 -0.7963  -0.7939  -0.7773  -0.7364  -0.6881  -0.6879  -0.6871  -0.6827
 -0.6824  -0.6501  -0.6215  -0.5891  -0.5773  -0.5608  -0.5548  -0.5167
 -0.4850  -0.4810  -0.4580  -0.4561  -0.4534  -0.4409  -0.4401  -0.4354
 -0.4317  -0.4258  -0.4248  -0.4232  -0.4182  -0.4108  -0.4090  -0.3988
 -0.3863  -0.3843  -0.3820  -0.3726  -0.3610  -0.3572  -0.3535  -0.3516
 -0.3505  -0.3485  -0.3437  -0.3422  -0.3411  -0.3407  -0.3215  -0.3213
 -0.2872  -0.2800  -0.2644  -0.2548

          Ground-State Mulliken Net Atomic Charges

     Atom                 Charge (a.u.)
  ----------------------------------------
      1 C                    -1.262709
      2 C                     0.629918
      3 C                     0.378516
      4 C                    -0.590823
      5 C                     0.378483
      6 C                     0.629559
      7 O                    -0.224894
      8 O                    -0.199494
      9 C                     0.131567
     10 C                    -0.740648
     11 C                    -0.744902
     12 C                     0.633725
     13 C                    -0.771349
     14 C                    -0.779082
     15 C                     0.131558
     16 C                    -0.739365
     17 C                    -0.746369
     18 C                     0.633548
     19 C                    -0.779167
     20 C                    -0.770707
     21 H                     0.222316
     22 H                     0.170646
     23 H                     0.162038
     24 H                     0.173598
     25 H                     0.162886
     26 H                     0.170226
     27 H                     0.167675
     28 H                     0.164259
     29 H                     0.146681
     30 H                     0.177201
     31 H                     0.179863
     32 H                     0.178876
     33 H                     0.177298
     34 H                     0.147998
     35 H                     0.222157
     36 H                     0.170592
     37 H                     0.173732
     38 H                     0.161952
     39 H                     0.170377
     40 H                     0.162917
     41 H                     0.167487
     42 H                     0.163844
     43 H                     0.177469
     44 H                     0.178919
     45 H                     0.148003
     46 H                     0.177100
     47 H                     0.146758
     48 H                     0.179766
  ----------------------------------------
  Sum of atomic charges =     0.000000

                    Cartesian Multipole Moments
 -----------------------------------------------------------------
    Charge (ESU x 10^10)
                 0.0000
    Dipole Moment (Debye)
         X       0.0006      Y      -0.0846      Z       0.4571
       Tot       0.4649
    Quadrupole Moments (Debye-Ang)
        XX    -111.3001     XY       0.0008     YY    -141.7091
        XZ       0.0051     YZ      -0.4913     ZZ    -125.8673

 Total job time:  184.63s(wall), 1392.50s(cpu)
        *  Thank you very much for using Q-Chem.  Have a nice day.  *
