 Gaussian 16, Revision A.03,
 Gaussian 16:  ES64L-G16RevA.03 25-Dec-2016

 ----------------------------------------------------------------------
 #P UB3LYP/6-311++G(d,p) nosym opt freq SCRF=(PCM,Solvent=n,n-DiMethylF
 ormamide)
 ----------------------------------------------------------------------

 -------
 Reduced
 -------
 Symbolic Z-matrix:
 Charge = -2 Multiplicity = 1

 SCF Done:  E(UB3LYP) =  -767.077232742     A.U. after   17 cycles
 SCF Done:  E(UB3LYP) =  -767.078928496     A.U. after   14 cycles
 SCF Done:  E(UB3LYP) =  -767.078257676     A.U. after   14 cycles
 SCF Done:  E(UB3LYP) =  -767.079540203     A.U. after   12 cycles
 SCF Done:  E(UB3LYP) =  -767.079607547     A.U. after   12 cycles
 SCF Done:  E(UB3LYP) =  -767.079644867     A.U. after   11 cycles
 SCF Done:  E(UB3LYP) =  -767.079659019     A.U. after   11 cycles
 SCF Done:  E(UB3LYP) =  -767.079671101     A.U. after   11 cycles
 SCF Done:  E(UB3LYP) =  -767.079677914     A.U. after   10 cycles
 SCF Done:  E(UB3LYP) =  -767.079683529     A.U. after   11 cycles
 SCF Done:  E(UB3LYP) =  -767.079741517     A.U. after   11 cycles
 SCF Done:  E(UB3LYP) =  -767.079734421     A.U. after   11 cycles
 SCF Done:  E(UB3LYP) =  -767.079745756     A.U. after   12 cycles
 SCF Done:  E(UB3LYP) =  -767.079747533     A.U. after   10 cycles
 SCF Done:  E(UB3LYP) =  -767.079748394     A.U. after   11 cycles
 SCF Done:  E(UB3LYP) =  -767.079748592     A.U. after   10 cycles
 SCF Done:  E(UB3LYP) =  -767.079748680     A.U. after    9 cycles
 SCF Done:  E(UB3LYP) =  -767.079748722     A.U. after    8 cycles
 SCF Done:  E(UB3LYP) =  -767.079748748     A.U. after    8 cycles
 Optimization completed.
    -- Stationary point found.
 Normal termination of Gaussian 16 at Sat Feb 10 11:48:59 2024.

 ----------------------------------------------------------------------
 #P Geom=AllCheck Guess=TCheck SCRF=Check GenChk UB3LYP/6-311++G(d,p) F
 req
 ----------------------------------------------------------------------

 Structure from the checkpoint file:  "051-an.chk"
 -------
 Reduced
 -------
 Charge = -2 Multiplicity = 1

                          Input orientation:
 ---------------------------------------------------------------------
 Center     Atomic      Atomic             Coordinates (Angstroms)
 Number     Number       Type             X           Y           Z
 ---------------------------------------------------------------------
      1          6           0        3.366689    5.973702    0.541134
      2          6           0        2.203392    5.311224    1.049504
      3          6           0        2.249149    3.970376    1.486895
      4          6           0        3.444413    3.189683    1.426388
      5          6           0        4.600033    3.844965    0.900916
      6          6           0        4.563261    5.189930    0.482181
      7          8           0        3.336415    7.237877    0.145949
      8          8           0        3.463300    1.931290    1.837781
      9          6           0        5.822806    5.841017   -0.049436
     10          6           0        5.889523    3.057835    0.805739
     11          6           0        0.910588    6.103262    1.098187
     12          6           0        1.019675    3.280208    2.044725
     13          6           0        0.456262    2.240327    1.064426
     14          6           0       -0.740254    1.468053    1.560915
     15          8           0       -1.196694    1.494814    2.680647
     16          8           0       -1.342024    0.658895    0.642816
     17          1           0        6.663741    5.755530    0.651012
     18          1           0        5.636797    6.899019   -0.236134
     19          1           0        6.165246    5.388161   -0.990903
     20          1           0        5.695472    2.013484    1.053588
     21          1           0        6.661794    3.427925    1.495624
     22          1           0        6.332398    3.101269   -0.197336
     23          1           0        1.038873    7.028024    0.534585
     24          1           0        0.619192    6.383303    2.120997
     25          1           0        0.062234    5.554166    0.673680
     26          1           0        0.237731    3.997436    2.300704
     27          1           0        1.288446    2.751664    2.964480
     28          1           0        1.254365    1.518194    0.850626
     29          1           0        0.189174    2.709720    0.110052
     30          1           0       -0.891640    0.721374   -0.210824
 ---------------------------------------------------------------------

 SCF Done:  E(UB3LYP) =  -767.079748748     A.U. after    1 cycles

 Alpha  occ. eigenvalues --  -19.16976 -19.11515 -19.00070 -18.99869 -10.30636
 Alpha  occ. eigenvalues --  -10.17028 -10.15058 -10.15006 -10.14500 -10.13011
 Alpha  occ. eigenvalues --  -10.12987 -10.12938 -10.11727 -10.11558 -10.11521
 Alpha  occ. eigenvalues --  -10.11498  -1.10639  -1.02533  -0.90576  -0.90060
 Alpha  occ. eigenvalues --   -0.78829  -0.76928  -0.73698  -0.68825  -0.67796
 Alpha  occ. eigenvalues --   -0.65645  -0.61682  -0.59597  -0.58659  -0.51137
 Alpha  occ. eigenvalues --   -0.50142  -0.49583  -0.47632  -0.46101  -0.45099
 Alpha  occ. eigenvalues --   -0.41386  -0.40612  -0.40066  -0.39222  -0.38470
 Alpha  occ. eigenvalues --   -0.37285  -0.36671  -0.36457  -0.35906  -0.35399
 Alpha  occ. eigenvalues --   -0.33859  -0.33749  -0.33371  -0.33032  -0.32755
 Alpha  occ. eigenvalues --   -0.31224  -0.29079  -0.28991  -0.28599  -0.28127
 Alpha  occ. eigenvalues --   -0.20362  -0.18415  -0.18252  -0.17635  -0.10599
 Alpha virt. eigenvalues --   -0.00555  -0.00203   0.00355   0.01181   0.01918
 Alpha virt. eigenvalues --    0.02827   0.03395   0.03493   0.03713   0.04262
 Alpha virt. eigenvalues --    0.04856   0.05246   0.05688   0.05952   0.06808

  Beta  occ. eigenvalues --  -19.16976 -19.11515 -19.00070 -18.99869 -10.30636
  Beta  occ. eigenvalues --  -10.17028 -10.15058 -10.15006 -10.14500 -10.13011
  Beta  occ. eigenvalues --  -10.12987 -10.12938 -10.11727 -10.11558 -10.11521
  Beta  occ. eigenvalues --  -10.11498  -1.10639  -1.02533  -0.90576  -0.90060
  Beta  occ. eigenvalues --   -0.78829  -0.76928  -0.73698  -0.68825  -0.67796
  Beta  occ. eigenvalues --   -0.65645  -0.61682  -0.59597  -0.58659  -0.51137
  Beta  occ. eigenvalues --   -0.50142  -0.49583  -0.47632  -0.46101  -0.45099
  Beta  occ. eigenvalues --   -0.41386  -0.40612  -0.40066  -0.39222  -0.38470
  Beta  occ. eigenvalues --   -0.37285  -0.36671  -0.36457  -0.35906  -0.35399
  Beta  occ. eigenvalues --   -0.33859  -0.33749  -0.33371  -0.33032  -0.32755
  Beta  occ. eigenvalues --   -0.31224  -0.29079  -0.28991  -0.28599  -0.28127
  Beta  occ. eigenvalues --   -0.20362  -0.18415  -0.18252  -0.17635  -0.10599
  Beta virt. eigenvalues --   -0.00555  -0.00203   0.00355   0.01181   0.01918
  Beta virt. eigenvalues --    0.02827   0.03395   0.03493   0.03713   0.04262
  Beta virt. eigenvalues --    0.04856   0.05246   0.05688   0.05952   0.06808

 Mulliken charges and spin densities:
               1          2
     1  C   -1.393757  -0.000000
     2  C    0.980726   0.000000
     3  C    0.830199   0.000000
     4  C   -1.364539  -0.000000
     5  C    0.502656  -0.000000
     6  C    0.543347   0.000000
     7  O   -0.742725   0.000000
     8  O   -0.721679   0.000000
     9  C   -0.505520   0.000000
    10  C   -0.603747  -0.000000
    11  C   -0.580456   0.000000
    12  C   -0.284071  -0.000000
    13  C   -0.335981   0.000000
    14  C   -0.091854  -0.000000
    15  O   -0.363897   0.000000
    16  O   -0.214905   0.000000
    17  H    0.123557   0.000000
    18  H    0.172357   0.000000
    19  H    0.127108   0.000000
    20  H    0.170376   0.000000
    21  H    0.126264  -0.000000
    22  H    0.121142  -0.000000
    23  H    0.163015  -0.000000
    24  H    0.145919  -0.000000
    25  H    0.127062   0.000000
    26  H    0.171336   0.000000
    27  H    0.173821   0.000000
    28  H    0.251948  -0.000000
    29  H    0.172077   0.000000
    30  H    0.300223   0.000000
 Sum of Mulliken charges =  -2.00000  -0.00000

 Dipole moment (field-independent basis, Debye):
    X=            -28.4432    Y=            -42.4828    Z=            -13.9102  Tot=             52.9840
 Quadrupole moment (field-independent basis, Debye-Ang):
   XX=           -224.8773   YY=           -360.1404   ZZ=           -133.4462
   XY=           -142.1238   XZ=            -21.8554   YZ=            -28.7836

  Exact polarizability: 289.987   5.435 278.463 -27.851 -28.399 199.422
 Approx polarizability: 297.137  -1.916 298.104 -28.746 -29.690 222.835

                      1                      2                      3
                      A                      A                      A
 Frequencies --     24.4360                35.9163                57.2343
 Red. masses --      3.8962                 5.6010                 3.8676
 Frc consts  --      0.0014                 0.0043                 0.0075
 IR Inten    --     11.1841                 3.3114                 4.3883

                      4                      5                      6
                      A                      A                      A
 Frequencies --     70.3525                82.8338                94.9210
 Red. masses --      2.0327                 1.2277                 1.2564
 Frc consts  --      0.0059                 0.0050                 0.0067
 IR Inten    --      4.7907                 8.1714                 8.1095

                      7                      8                      9
                      A                      A                      A
 Frequencies --    121.7594               130.3117               144.0526
 Red. masses --      2.6740                 2.1759                 1.7010
 Frc consts  --      0.0234                 0.0218                 0.0208
 IR Inten    --     29.4146                 9.8446                13.2850

                     10                     11                     12
                      A                      A                      A
 Frequencies --    172.7398               184.2922               220.7663
 Red. masses --      3.0544                 6.2424                 3.8708
 Frc consts  --      0.0537                 0.1249                 0.1112
 IR Inten    --      3.0016                 3.6707                 1.9589

                     13                     14                     15
                      A                      A                      A
 Frequencies --    293.5961               317.4824               328.9573
 Red. masses --      2.6565                 2.4845                 3.1257
 Frc consts  --      0.1349                 0.1475                 0.1993
 IR Inten    --     37.7021                 0.1639                 2.9143

                     16                     17                     18
                      A                      A                      A
 Frequencies --    338.4005               348.1522               384.4448
 Red. masses --      3.5731                 3.5492                 7.6954
 Frc consts  --      0.2411                 0.2535                 0.6701
 IR Inten    --      6.3289                 4.1126                17.6586

                     19                     20                     21
                      A                      A                      A
 Frequencies --    391.9333               454.8671               464.6534
 Red. masses --      7.4295                 5.0783                 4.2439
 Frc consts  --      0.6724                 0.6191                 0.5398
 IR Inten    --     15.5824                 1.3293                 3.4869

                     22                     23                     24
                      A                      A                      A
 Frequencies --    485.3125               502.4192               560.7772
 Red. masses --      5.7020                 1.3555                 4.4589
 Frc consts  --      0.7913                 0.2016                 0.8261
 IR Inten    --      1.5095               139.0400                 7.6221

                     25                     26                     27
                      A                      A                      A
 Frequencies --    571.7204               585.9132               608.7841
 Red. masses --      2.7272                 2.3640                 5.5646
 Frc consts  --      0.5252                 0.4782                 1.2151
 IR Inten    --      1.6737                21.2547                85.4301

                     28                     29                     30
                      A                      A                      A
 Frequencies --    657.2252               680.2311               716.1837
 Red. masses --      2.8769                 5.7427                 6.3228
 Frc consts  --      0.7322                 1.5656                 1.9108
 IR Inten    --      2.1943                24.3687                 6.3844

                     31                     32                     33
                      A                      A                      A
 Frequencies --    762.3979               779.3478               855.2899
 Red. masses --      2.1482                 3.8353                 2.4069
 Frc consts  --      0.7357                 1.3725                 1.0374
 IR Inten    --      9.8678                 4.7498                63.9479

                     34                     35                     36
                      A                      A                      A
 Frequencies --    868.5880               902.8652               976.9454
 Red. masses --      3.4501                 3.9982                 1.5326
 Frc consts  --      1.5336                 1.9203                 0.8618
 IR Inten    --     35.2111                33.3979                14.3390

                     37                     38                     39
                      A                      A                      A
 Frequencies --    997.1258              1025.9606              1029.5589
 Red. masses --      2.0397                 1.5183                 3.2307
 Frc consts  --      1.1949                 0.9416                 2.0176
 IR Inten    --      9.0668                 0.9178                 9.4155

                     40                     41                     42
                      A                      A                      A
 Frequencies --   1035.8842              1044.2056              1053.6823
 Red. masses --      1.7160                 2.5753                 1.5622
 Frc consts  --      1.0849                 1.6544                 1.0219
 IR Inten    --      5.5103                15.6826                 1.6408

                     43                     44                     45
                      A                      A                      A
 Frequencies --   1073.3832              1081.2563              1124.7059
 Red. masses --      2.7226                 2.3901                 2.2845
 Frc consts  --      1.8482                 1.6464                 1.7026
 IR Inten    --    284.8363               147.3678               118.1480

                     46                     47                     48
                      A                      A                      A
 Frequencies --   1142.4483              1184.7983              1221.5415
 Red. masses --      4.7063                 1.7887                 2.4585
 Frc consts  --      3.6192                 1.4794                 2.1614
 IR Inten    --     10.7565               189.9488               167.6794

                     49                     50                     51
                      A                      A                      A
 Frequencies --   1261.6685              1277.3747              1304.2021
 Red. masses --      1.4422                 2.6361                 1.9073
 Frc consts  --      1.3526                 2.5343                 1.9114
 IR Inten    --    370.5256               639.2491               108.4526

                     52                     53                     54
                      A                      A                      A
 Frequencies --   1316.6911              1331.2920              1363.5337
 Red. masses --      2.0059                 2.2103                 2.0610
 Frc consts  --      2.0489                 2.3081                 2.2577
 IR Inten    --     12.8479                 6.1848               260.5746

                     55                     56                     57
                      A                      A                      A
 Frequencies --   1369.3807              1374.8871              1380.6312
 Red. masses --      1.4234                 1.5207                 1.3341
 Frc consts  --      1.5726                 1.6937                 1.4983
 IR Inten    --    134.1160                61.8919                48.4427

                     58                     59                     60
                      A                      A                      A
 Frequencies --   1386.2438              1432.4416              1439.8699
 Red. masses --      2.0705                 5.5217                 1.1034
 Frc consts  --      2.3442                 6.6753                 1.3478
 IR Inten    --    748.4748                73.9231                39.9598

                     61                     62                     63
                      A                      A                      A
 Frequencies --   1454.5629              1464.2915              1471.5402
 Red. masses --      1.2062                 1.1338                 1.0790
 Frc consts  --      1.5037                 1.4323                 1.3766
 IR Inten    --      5.1858                41.4744                11.7841

                     64                     65                     66
                      A                      A                      A
 Frequencies --   1476.4298              1483.9177              1493.1868
 Red. masses --      1.0740                 1.0578                 1.0774
 Frc consts  --      1.3794                 1.3723                 1.4153
 IR Inten    --     53.3314                 3.1971                17.2370

                     67                     68                     69
                      A                      A                      A
 Frequencies --   1498.0127              1523.5089              1583.3511
 Red. masses --      1.0571                 3.8881                 7.0743
 Frc consts  --      1.3977                 5.3171                10.4492
 IR Inten    --     15.8057                 5.8017                 0.5082

                     70                     71                     72
                      A                      A                      A
 Frequencies --   1776.0642              2967.1103              2969.7131
 Red. masses --      9.3357                 1.0540                 1.0510
 Frc consts  --     17.3506                 5.4670                 5.4612
 IR Inten    --    581.2605               336.0451                58.6521

                     73                     74                     75
                      A                      A                      A
 Frequencies --   2971.4187              3001.9982              3005.8466
 Red. masses --      1.0494                 1.0920                 1.0891
 Frc consts  --      5.4591                 5.7981                 5.7978
 IR Inten    --    175.0906               131.5102                66.1465

                     76                     77                     78
                      A                      A                      A
 Frequencies --   3007.8684              3016.0095              3027.7161
 Red. masses --      1.0592                 1.0841                 1.0686
 Frc consts  --      5.6463                 5.8100                 5.7716
 IR Inten    --     50.9710               117.4337                60.1221

                     79                     80                     81
                      A                      A                      A
 Frequencies --   3044.7626              3085.6582              3093.9177
 Red. masses --      1.0956                 1.0973                 1.0940
 Frc consts  --      5.9842                 6.1555                 6.1698
 IR Inten    --     36.0142                56.9602                14.7833

                     82                     83                     84
                      A                      A                      A
 Frequencies --   3096.9767              3102.1913              3781.4255
 Red. masses --      1.0926                 1.0919                 1.0663
 Frc consts  --      6.1743                 6.1910                 8.9833
 IR Inten    --     23.8927                27.1952               102.8759

 - Thermochemistry -
 -------------------
 Temperature   298.150 Kelvin.  Pressure   1.00000 Atm.
 Atom     1 has atomic number  6 and mass  12.00000

 Molecular mass:   222.08921 amu.
 Principal axes and moments of inertia in atomic units:
                           1         2         3
     Eigenvalues --  1962.829686251.980607663.19941
           X            0.79183  -0.60420   0.08912
           Y            0.58640   0.79292   0.16557
           Z           -0.17070  -0.07884   0.98216
 This molecule is an asymmetric top.
 Rotational symmetry number  1.
 Warning -- assumption of classical behavior for rotation
           may cause significant error
 Rotational temperatures (Kelvin)      0.04413     0.01385     0.01130
 Rotational constants (GHZ):           0.91946     0.28867     0.23551
 Zero-point vibrational energy     615038.2 (Joules/Mol)
                                  146.99765 (Kcal/Mol)
 Warning -- explicit consideration of  27 degrees of freedom as
           vibrations may cause significant error
 Vibrational temperatures:     35.16    51.68    82.35   101.22   119.18
          (Kelvin)            136.57   175.18   187.49   207.26   248.53
                              265.16   317.63   422.42   456.79   473.30
                              486.88   500.91   553.13   563.90   654.45
                              668.53   698.26   722.87   806.83   822.58
                              843.00   875.90   945.60   978.70  1030.43
                             1096.92  1121.31  1230.57  1249.70  1299.02
                             1405.61  1434.64  1476.13  1481.31  1490.41
                             1502.38  1516.01  1544.36  1555.69  1618.20
                             1643.73  1704.66  1757.53  1815.26  1837.86
                             1876.46  1894.42  1915.43  1961.82  1970.23
                             1978.16  1986.42  1994.50  2060.96  2071.65
                             2092.79  2106.79  2117.22  2124.25  2135.03
                             2148.36  2155.31  2191.99  2278.09  2555.36
                             4269.01  4272.75  4275.21  4319.21  4324.74
                             4327.65  4339.36  4356.21  4380.73  4439.57
                             4451.46  4455.86  4463.36  5440.63

 Zero-point correction=                           0.234256 (Hartree/Particle)
 Thermal correction to Energy=                    0.251193
 Thermal correction to Enthalpy=                  0.252137
 Thermal correction to Gibbs Free Energy=         0.188150
 Sum of electronic and zero-point Energies=           -766.845493
 Sum of electronic and thermal Energies=              -766.828556
 Sum of electronic and thermal Enthalpies=            -766.827612
 Sum of electronic and thermal Free Energies=         -766.891599

                     E (Thermal)             CV                S
                      KCal/Mol        Cal/Mol-Kelvin    Cal/Mol-Kelvin
 Total                  157.626             61.497            134.672
 Electronic               0.000              0.000              0.000
 Translational            0.889              2.981             42.096
 Rotational               0.889              2.981             32.908
 Vibrational            155.848             55.535             59.667
 Vibration     1          0.593              1.985              6.236
 Vibration     2          0.594              1.982              5.472
 Vibration     3          0.596              1.975              4.550
 Vibration     4          0.598              1.968              4.143
 Vibration     5          0.600              1.961              3.823
 Vibration     6          0.603              1.953              3.556
 Vibration     7          0.609              1.931              3.072
 Vibration     8          0.612              1.923              2.941
 Vibration     9          0.616              1.909              2.749
 Vibration    10          0.626              1.876              2.405
 Vibration    11          0.631              1.861              2.284
 Vibration    12          0.647              1.809              1.953
 Vibration    13          0.688              1.686              1.453
 Vibration    14          0.704              1.640              1.323
 Vibration    15          0.712              1.618              1.265
 Vibration    16          0.719              1.599              1.220
 Vibration    17          0.726              1.579              1.175
 Vibration    18          0.753              1.503              1.022
 Vibration    19          0.759              1.487              0.993
 Vibration    20          0.813              1.350              0.781
 Vibration    21          0.822              1.328              0.753
 Vibration    22          0.841              1.283              0.696
 Vibration    23          0.858              1.245              0.652
 Vibration    24          0.916              1.116              0.522
 Vibration    25          0.928              1.092              0.501
 Vibration    26          0.943              1.062              0.475
 Vibration    27          0.968              1.013              0.435

                           ! Non-Optimized Parameters !
 Normal termination of Gaussian 16 at Sat Feb 10 12:23:47 2024.
