 Gaussian 16, Revision A.03,
 Gaussian 16:  ES64L-G16RevA.03 25-Dec-2016

 ----------------------------------------------------------------
 #P UB3LYP/6-311++G(d,p) SCRF=(PCM,Solvent=n,n-DiMethylFormamide)
 ----------------------------------------------------------------

 -------
 Reduced
 -------
 Symbolic Z-matrix:
 Charge = -2 Multiplicity = 1

                         Standard orientation:
 ---------------------------------------------------------------------
 Center     Atomic      Atomic             Coordinates (Angstroms)
 Number     Number       Type             X           Y           Z
 ---------------------------------------------------------------------
      1          6           0       -2.360825    1.454941    0.001380
      2          6           0       -3.749998    1.101745   -0.012516
      3          6           0       -4.195014   -0.211774   -0.015978
      4          6           0       -3.301372   -1.341173   -0.006092
      5          6           0       -1.903439   -0.986005    0.009252
      6          6           0       -1.455916    0.326645    0.012537
      7          8           0       -1.926668    2.670067    0.004130
      8          8           0       -3.713882   -2.558543   -0.007146
      9          6           0       -0.005223    0.720743    0.025716
     10          8           0        0.866137   -0.433257    0.014123
     11          6           0        2.200596   -0.241315    0.004123
     12          6           0        2.836174    1.011261   -0.008212
     13          6           0        2.995388   -1.402968    0.006818
     14          6           0        4.381040   -1.312843   -0.003901
     15          6           0        4.232214    1.082678   -0.013599
     16          6           0        5.016174   -0.066983   -0.012810
     17          1           0       -4.461575    1.926835   -0.022928
     18          1           0       -5.261923   -0.432123   -0.027137
     19          1           0       -1.188559   -1.803068    0.020314
     20          1           0        0.217374    1.327126    0.913404
     21          1           0        0.221024    1.350737   -0.845250
     22          1           0        2.249819    1.919891   -0.015167
     23          1           0        2.491821   -2.363278    0.015863
     24          1           0        4.977607   -2.222292   -0.005263
     25          1           0        4.710145    2.059379   -0.022359
     26          1           0        6.100781    0.000947   -0.020624
 ---------------------------------------------------------------------

 SCF Done:  E(UB3LYP) =  -727.495570606     A.U. after   18 cycles

 The electronic state is 1-A.
 Alpha  occ. eigenvalues --  -19.14652 -19.00994 -19.00766 -10.23498 -10.20726
 Alpha  occ. eigenvalues --  -10.17650 -10.17626 -10.17110 -10.16983 -10.16781
 Alpha  occ. eigenvalues --  -10.16180 -10.16049 -10.12773 -10.11593 -10.11448
 Alpha  occ. eigenvalues --  -10.11397  -1.06289  -0.92727  -0.92368  -0.85291
 Alpha  occ. eigenvalues --   -0.78145  -0.75281  -0.74660  -0.71470  -0.66748
 Alpha  occ. eigenvalues --   -0.62982  -0.60873  -0.59138  -0.55140  -0.52830
 Alpha  occ. eigenvalues --   -0.51504  -0.48375  -0.46852  -0.46181  -0.44253
 Alpha  occ. eigenvalues --   -0.42431  -0.42036  -0.41394  -0.40055  -0.38324
 Alpha  occ. eigenvalues --   -0.37944  -0.36680  -0.35448  -0.34875  -0.34545
 Alpha  occ. eigenvalues --   -0.32936  -0.32290  -0.31467  -0.30956  -0.30189
 Alpha  occ. eigenvalues --   -0.25874  -0.22417  -0.21993  -0.20910  -0.19016
 Alpha  occ. eigenvalues --   -0.18716  -0.10848
 Alpha virt. eigenvalues --   -0.01586  -0.00164  -0.00093   0.00828   0.01290
 Alpha virt. eigenvalues --    0.01985   0.02386   0.02550   0.03807   0.04087
 Alpha virt. eigenvalues --    0.04135   0.04477   0.06196   0.06374   0.06624

  Beta  occ. eigenvalues --  -19.14652 -19.00994 -19.00766 -10.23498 -10.20726
  Beta  occ. eigenvalues --  -10.17650 -10.17626 -10.17110 -10.16983 -10.16781
  Beta  occ. eigenvalues --  -10.16180 -10.16049 -10.12773 -10.11593 -10.11448
  Beta  occ. eigenvalues --  -10.11397  -1.06289  -0.92727  -0.92368  -0.85291
  Beta  occ. eigenvalues --   -0.78145  -0.75281  -0.74660  -0.71470  -0.66748
  Beta  occ. eigenvalues --   -0.62982  -0.60873  -0.59138  -0.55140  -0.52830
  Beta  occ. eigenvalues --   -0.51504  -0.48375  -0.46852  -0.46181  -0.44253
  Beta  occ. eigenvalues --   -0.42431  -0.42036  -0.41394  -0.40055  -0.38324
  Beta  occ. eigenvalues --   -0.37944  -0.36680  -0.35448  -0.34875  -0.34545
  Beta  occ. eigenvalues --   -0.32936  -0.32290  -0.31467  -0.30956  -0.30189
  Beta  occ. eigenvalues --   -0.25874  -0.22417  -0.21993  -0.20910  -0.19016
  Beta  occ. eigenvalues --   -0.18716  -0.10848
  Beta virt. eigenvalues --   -0.01586  -0.00164  -0.00093   0.00828   0.01290
  Beta virt. eigenvalues --    0.01985   0.02386   0.02550   0.03807   0.04087
  Beta virt. eigenvalues --    0.04135   0.04477   0.06196   0.06374   0.06624

 Mulliken charges and spin densities:
               1          2
     1  C   -1.014167  -0.000000
     2  C    0.090458   0.000000
     3  C   -0.019282  -0.000000
     4  C   -0.464582   0.000000
     5  C   -0.379457  -0.000000
     6  C    0.471498   0.000000
     7  O   -0.716295  -0.000000
     8  O   -0.735773  -0.000000
     9  C   -0.083580  -0.000000
    10  O   -0.128708   0.000000
    11  C    0.374250  -0.000000
    12  C    0.074024   0.000000
    13  C   -0.151478   0.000000
    14  C   -0.269838  -0.000000
    15  C   -0.346089   0.000000
    16  C   -0.380634  -0.000000
    17  H    0.120670  -0.000000
    18  H    0.124903  -0.000000
    19  H    0.123856  -0.000000
    20  H    0.198939  -0.000000
    21  H    0.192495  -0.000000
    22  H    0.172786   0.000000
    23  H    0.175412  -0.000000
    24  H    0.197048  -0.000000
    25  H    0.208066  -0.000000
    26  H    0.165479   0.000000
 Sum of Mulliken charges =  -2.00000   0.00000

 Dipole moment (field-independent basis, Debye):
    X=             25.5825    Y=              1.3050    Z=              0.0195  Tot=             25.6158
 Quadrupole moment (field-independent basis, Debye-Ang):
   XX=           -185.6722   YY=           -153.1505   ZZ=           -106.3083
   XY=            -17.4557   XZ=             -0.1656   YZ=             -0.1549

 Normal termination of Gaussian 16 at Wed Jan 24 22:52:01 2024.
