 Gaussian 16, Revision A.03,
 Gaussian 16:  ES64L-G16RevA.03 25-Dec-2016

 ----------------------------------------------------------------
 #P UB3LYP/6-311++G(d,p) SCRF=(PCM,Solvent=n,n-DiMethylFormamide)
 ----------------------------------------------------------------

 -------
 Reduced
 -------
 Symbolic Z-matrix:
 Charge = -2 Multiplicity = 1

                         Standard orientation:
 ---------------------------------------------------------------------
 Center     Atomic      Atomic             Coordinates (Angstroms)
 Number     Number       Type             X           Y           Z
 ---------------------------------------------------------------------
      1          6           0        1.127694   -1.003672   -0.934351
      2          6           0       -0.230498   -0.998006   -1.415856
      3          6           0       -1.281501   -0.959365   -0.481715
      4          6           0       -1.126820   -0.984624    0.953106
      5          6           0        0.231362   -0.970146    1.434433
      6          6           0        1.282445   -0.950603    0.499716
      7          8           0        2.137606   -1.047617   -1.726768
      8          8           0       -2.136890   -1.012799    1.746080
      9         16           0        3.004391   -0.859150    1.023989
     10          6           0        3.745338    0.557132    0.134663
     11          6           0        4.368904    0.383144   -1.100303
     12          6           0        3.711925    1.804918    0.751887
     13          6           0        4.308541    2.901063    0.126860
     14          6           0        4.974597    1.481575   -1.711931
     15          6           0        4.942837    2.738828   -1.106412
     16          8           0        3.790968   -2.057121    0.662500
     17          8           0        3.076353   -0.439774    2.447628
     18          1           0        4.347152   -0.593818   -1.559269
     19          1           0        3.229291    1.901117    1.716622
     20          1           0        5.458012    1.356452   -2.676298
     21          1           0        4.278626    3.876454    0.603297
     22          1           0        5.404022    3.591448   -1.597353
     23         16           0       -3.003275   -0.877763   -1.008035
     24          6           0       -3.745318    0.554001   -0.144883
     25          6           0       -3.711772    1.790576   -0.784206
     26          6           0       -4.370540    0.401648    1.092084
     27          6           0       -4.978069    1.510308    1.683052
     28          6           0       -4.310035    2.897291   -0.179683
     29          6           0       -4.946231    2.756594    1.055242
     30          1           0       -3.227840    1.869943   -1.749821
     31          1           0       -4.348748   -0.566975    1.568407
     32          1           0       -5.462959    1.402027    2.648717
     33          1           0       -4.280005    3.864075   -0.673339
     34          1           0       -5.408813    3.617486    1.530170
     35          8           0       -3.789649   -2.069210   -0.625082
     36          8           0       -3.074742   -0.484365   -2.439108
     37          6           0       -0.377484   -1.085801   -2.916534
     38          6           0        0.378268   -1.028121    2.936590
     39          1           0        0.608049   -1.325342   -3.319429
     40          1           0       -0.716610   -0.141309   -3.356254
     41          1           0       -1.104953   -1.841708   -3.221084
     42          1           0       -0.607753   -1.257361    3.344251
     43          1           0        0.719624   -0.075779    3.357211
     44          1           0        1.104001   -1.779444    3.256331
 ---------------------------------------------------------------------

 SCF Done:  E(UB3LYP) =  -2019.99917974     A.U. after   18 cycles

 The electronic state is 1-A.
 Alpha  occ. eigenvalues --  -89.03421 -89.03421 -19.10265 -19.10264 -19.09707
 Alpha  occ. eigenvalues --  -19.09707 -19.02821 -19.02819 -10.19918 -10.19917
 Alpha  occ. eigenvalues --  -10.19586 -10.19585 -10.18373 -10.18372 -10.18131
 Alpha  occ. eigenvalues --  -10.18131 -10.17926 -10.17925 -10.17921 -10.17921
 Alpha  occ. eigenvalues --  -10.17757 -10.17757 -10.17633 -10.17632 -10.15957
 Alpha  occ. eigenvalues --  -10.15956 -10.13937 -10.13936  -8.09779  -8.09779
 Alpha  occ. eigenvalues --   -6.06078  -6.06077  -6.05962  -6.05961  -6.05846
 Alpha  occ. eigenvalues --   -6.05845  -1.08993  -1.08986  -0.98458  -0.98454
 Alpha  occ. eigenvalues --   -0.95621  -0.95238  -0.86515  -0.86514  -0.81473
 Alpha  occ. eigenvalues --   -0.77944  -0.76732  -0.76044  -0.75285  -0.75277
 Alpha  occ. eigenvalues --   -0.71397  -0.70881  -0.67261  -0.63926  -0.62374
 Alpha  occ. eigenvalues --   -0.61330  -0.61232  -0.60911  -0.58047  -0.55464
 Alpha  occ. eigenvalues --   -0.53270  -0.53025  -0.52144  -0.48887  -0.48309
 Alpha  occ. eigenvalues --   -0.47163  -0.46703  -0.46583  -0.46005  -0.45865
 Alpha  occ. eigenvalues --   -0.44688  -0.44544  -0.43724  -0.43688  -0.42819
 Alpha  occ. eigenvalues --   -0.42750  -0.40822  -0.39712  -0.39360  -0.38392
 Alpha  occ. eigenvalues --   -0.38078  -0.37898  -0.37400  -0.37215  -0.36740
 Alpha  occ. eigenvalues --   -0.36687  -0.35363  -0.35340  -0.35170  -0.34801
 Alpha  occ. eigenvalues --   -0.33605  -0.33541  -0.32269  -0.31985  -0.31023
 Alpha  occ. eigenvalues --   -0.30998  -0.29243  -0.29124  -0.28436  -0.27752
 Alpha  occ. eigenvalues --   -0.26518  -0.26293  -0.26150  -0.26015  -0.24041
 Alpha  occ. eigenvalues --   -0.23358  -0.21258  -0.20502  -0.13557
 Alpha virt. eigenvalues --   -0.04376  -0.02990  -0.01612  -0.01469  -0.01115
 Alpha virt. eigenvalues --   -0.00378   0.00263   0.00949   0.01167   0.01773
 Alpha virt. eigenvalues --    0.02142   0.02809   0.03091   0.03427   0.03791

  Beta  occ. eigenvalues --  -89.03421 -89.03421 -19.10265 -19.10264 -19.09707
  Beta  occ. eigenvalues --  -19.09707 -19.02821 -19.02819 -10.19918 -10.19917
  Beta  occ. eigenvalues --  -10.19586 -10.19585 -10.18373 -10.18372 -10.18131
  Beta  occ. eigenvalues --  -10.18131 -10.17926 -10.17925 -10.17921 -10.17921
  Beta  occ. eigenvalues --  -10.17757 -10.17757 -10.17633 -10.17632 -10.15957
  Beta  occ. eigenvalues --  -10.15956 -10.13937 -10.13936  -8.09779  -8.09779
  Beta  occ. eigenvalues --   -6.06078  -6.06077  -6.05962  -6.05961  -6.05846
  Beta  occ. eigenvalues --   -6.05845  -1.08993  -1.08986  -0.98458  -0.98454
  Beta  occ. eigenvalues --   -0.95621  -0.95238  -0.86515  -0.86514  -0.81473
  Beta  occ. eigenvalues --   -0.77944  -0.76732  -0.76044  -0.75285  -0.75277
  Beta  occ. eigenvalues --   -0.71397  -0.70881  -0.67261  -0.63926  -0.62374
  Beta  occ. eigenvalues --   -0.61330  -0.61232  -0.60911  -0.58047  -0.55464
  Beta  occ. eigenvalues --   -0.53270  -0.53025  -0.52144  -0.48887  -0.48309
  Beta  occ. eigenvalues --   -0.47163  -0.46703  -0.46583  -0.46005  -0.45865
  Beta  occ. eigenvalues --   -0.44688  -0.44544  -0.43724  -0.43688  -0.42819
  Beta  occ. eigenvalues --   -0.42750  -0.40822  -0.39712  -0.39360  -0.38392
  Beta  occ. eigenvalues --   -0.38078  -0.37898  -0.37400  -0.37215  -0.36740
  Beta  occ. eigenvalues --   -0.36687  -0.35363  -0.35340  -0.35170  -0.34801
  Beta  occ. eigenvalues --   -0.33605  -0.33541  -0.32269  -0.31985  -0.31023
  Beta  occ. eigenvalues --   -0.30998  -0.29243  -0.29124  -0.28436  -0.27752
  Beta  occ. eigenvalues --   -0.26518  -0.26293  -0.26150  -0.26015  -0.24041
  Beta  occ. eigenvalues --   -0.23358  -0.21258  -0.20502  -0.13557
  Beta virt. eigenvalues --   -0.04376  -0.02990  -0.01612  -0.01469  -0.01115
  Beta virt. eigenvalues --   -0.00378   0.00263   0.00949   0.01167   0.01773
  Beta virt. eigenvalues --    0.02142   0.02809   0.03091   0.03427   0.03791

 Mulliken charges and spin densities:
               1          2
     1  C   -0.890790  -0.000000
     2  C    0.468505   0.000000
     3  C    0.297174   0.000000
     4  C   -0.890259  -0.000000
     5  C    0.466058   0.000000
     6  C    0.297467   0.000000
     7  O   -0.505055   0.000000
     8  O   -0.505121   0.000000
     9  S    0.156336   0.000000
    10  C    0.042906  -0.000000
    11  C   -0.191319  -0.000000
    12  C    0.283949   0.000000
    13  C   -0.525547  -0.000000
    14  C   -0.404237   0.000000
    15  C   -0.291434   0.000000
    16  O   -0.203528   0.000000
    17  O   -0.230167   0.000000
    18  H    0.266587   0.000000
    19  H    0.235869  -0.000000
    20  H    0.204385  -0.000000
    21  H    0.203576   0.000000
    22  H    0.185353  -0.000000
    23  S    0.157241  -0.000000
    24  C    0.042728   0.000000
    25  C    0.286629   0.000000
    26  C   -0.194230  -0.000000
    27  C   -0.403804  -0.000000
    28  C   -0.525716   0.000000
    29  C   -0.291793  -0.000000
    30  H    0.235813   0.000000
    31  H    0.266582  -0.000000
    32  H    0.204407   0.000000
    33  H    0.203586   0.000000
    34  H    0.185335  -0.000000
    35  O   -0.203034   0.000000
    36  O   -0.230354   0.000000
    37  C   -0.592118  -0.000000
    38  C   -0.592017  -0.000000
    39  H    0.164145   0.000000
    40  H    0.163605   0.000000
    41  H    0.162331  -0.000000
    42  H    0.164178   0.000000
    43  H    0.163583   0.000000
    44  H    0.162197   0.000000
 Sum of Mulliken charges =  -2.00000   0.00000

 Dipole moment (field-independent basis, Debye):
    X=             -0.0100    Y=             15.5290    Z=             -0.1435  Tot=             15.5297
 Quadrupole moment (field-independent basis, Debye-Ang):
   XX=           -270.1298   YY=           -197.6163   ZZ=           -219.7572
   XY=             -0.1562   XZ=            -20.5643   YZ=             -0.2220

 Normal termination of Gaussian 16 at Wed Jan 24 23:10:25 2024.
