 Gaussian 16, Revision A.03,
 Gaussian 16:  ES64L-G16RevA.03 25-Dec-2016

 ----------------------------------------------------------------------
 #P UB3LYP/6-311++G(d,p) nosym opt freq SCRF=(PCM,Solvent=n,n-DiMethylF
 ormamide)
 ----------------------------------------------------------------------

 -------
 Radical
 -------
 Symbolic Z-matrix:
 Charge = -1 Multiplicity = 2

 SCF Done:  E(UB3LYP) =  -993.046391588     A.U. after   19 cycles
 SCF Done:  E(UB3LYP) =  -993.046825161     A.U. after   15 cycles
 SCF Done:  E(UB3LYP) =  -993.047071601     A.U. after   14 cycles
 SCF Done:  E(UB3LYP) =  -993.047128564     A.U. after   13 cycles
 SCF Done:  E(UB3LYP) =  -993.047171786     A.U. after   12 cycles
 SCF Done:  E(UB3LYP) =  -993.047191477     A.U. after   12 cycles
 SCF Done:  E(UB3LYP) =  -993.047202689     A.U. after   12 cycles
 SCF Done:  E(UB3LYP) =  -993.047206024     A.U. after   11 cycles
 SCF Done:  E(UB3LYP) =  -993.047208338     A.U. after   10 cycles
 SCF Done:  E(UB3LYP) =  -993.047209829     A.U. after    9 cycles
 SCF Done:  E(UB3LYP) =  -993.047211473     A.U. after   11 cycles
 SCF Done:  E(UB3LYP) =  -993.047212550     A.U. after   11 cycles
 SCF Done:  E(UB3LYP) =  -993.047213548     A.U. after   11 cycles
 SCF Done:  E(UB3LYP) =  -993.047213727     A.U. after    9 cycles
 SCF Done:  E(UB3LYP) =  -993.047213844     A.U. after    9 cycles
 Optimization completed.
    -- Stationary point found.
 Normal termination of Gaussian 16 at Sat Feb 10 19:18:27 2024.

 ----------------------------------------------------------------------
 #P Geom=AllCheck Guess=TCheck SCRF=Check GenChk UB3LYP/6-311++G(d,p) F
 req
 ----------------------------------------------------------------------

 Structure from the checkpoint file:  "171-rad.chk"
 -------
 Radical
 -------
 Charge = -1 Multiplicity = 2

                          Input orientation:
 ---------------------------------------------------------------------
 Center     Atomic      Atomic             Coordinates (Angstroms)
 Number     Number       Type             X           Y           Z
 ---------------------------------------------------------------------
      1          6           0       -1.342243    1.895631   -4.263842
      2          6           0       -1.282598    0.518414   -4.343467
      3          6           0       -1.004485   -0.240724   -3.186417
      4          6           0       -1.130742    2.568961   -3.038306
      5          6           0       -0.853677    1.806432   -1.875708
      6          6           0       -0.794505    0.396950   -1.979977
      7          6           0       -1.196728    4.024947   -2.991145
      8          6           0       -0.630605    2.446563   -0.585510
      9          6           0       -0.989115    4.674105   -1.712459
     10          6           0       -0.716439    3.892194   -0.518291
     11          6           0       -1.033264    6.114179   -1.620351
     12          6           0       -0.770420    6.719925   -0.384905
     13          6           0       -0.513559    5.968242    0.760005
     14          6           0       -0.505328    4.569189    0.737507
     15          8           0       -1.429190    4.667167   -4.075283
     16          8           0       -0.362850    1.711667    0.429924
     17          1           0       -1.553677    2.493436   -5.141556
     18          1           0       -1.448850    0.019458   -5.292286
     19          1           0       -0.956701   -1.322844   -3.246572
     20          1           0       -0.580433   -0.170001   -1.082657
     21          1           0       -0.329488    6.490719    1.689858
     22          1           0       -0.775333    7.799335   -0.305801
     23          7           0       -1.335381    6.881934   -2.718450
     24          6           0       -1.242438    8.323821   -2.740626
     25          1           0       -1.408494    6.348650   -3.582924
     26          1           0       -0.237177    8.688184   -2.484991
     27          1           0       -1.951120    8.793297   -2.047333
     28          1           0       -1.482458    8.669035   -3.746703
     29          7           0       -0.318677    3.852164    1.902851
     30          6           0        0.157397    4.450259    3.131881
     31          6           0        0.304838    3.376974    4.209582
     32          8           0        0.746621    3.927360    5.453110
     33          1           0       -0.166368    2.856847    1.728142
     34          1           0       -0.545761    5.209225    3.494979
     35          1           0        1.127750    4.955748    2.991569
     36          1           0        0.991908    2.591804    3.871237
     37          1           0       -0.662821    2.913963    4.412021
     38          1           0        1.649742    4.245762    5.343619
 ---------------------------------------------------------------------

 SCF Done:  E(UB3LYP) =  -993.047213844     A.U. after    1 cycles

 Alpha  occ. eigenvalues --  -19.13277 -19.06956 -19.06932 -14.30550 -14.30537
 Alpha  occ. eigenvalues --  -10.22081 -10.21989 -10.21987 -10.20524 -10.20516
 Alpha  occ. eigenvalues --  -10.19905 -10.19118 -10.17019 -10.16971 -10.16960
 Alpha  occ. eigenvalues --  -10.16898 -10.16853 -10.16808 -10.16694 -10.16693
 Alpha  occ. eigenvalues --  -10.16017 -10.15927  -1.03138  -0.99454  -0.99159
 Alpha  occ. eigenvalues --   -0.92623  -0.92042  -0.85474  -0.82809  -0.77940
 Alpha  occ. eigenvalues --   -0.75612  -0.74688  -0.73727  -0.71376  -0.67533
 Alpha  occ. eigenvalues --   -0.66026  -0.64202  -0.62317  -0.61002  -0.57844
 Alpha  occ. eigenvalues --   -0.56326  -0.53100  -0.52582  -0.51610  -0.50057
 Alpha  occ. eigenvalues --   -0.48940  -0.47547  -0.46676  -0.45796  -0.45726
 Alpha  occ. eigenvalues --   -0.44931  -0.43703  -0.43091  -0.42089  -0.41693
 Alpha  occ. eigenvalues --   -0.41202  -0.40880  -0.40576  -0.39662  -0.38893
 Alpha  occ. eigenvalues --   -0.38180  -0.37351  -0.37099  -0.36756  -0.36166
 Alpha  occ. eigenvalues --   -0.34436  -0.34321  -0.33589  -0.33252  -0.31156
 Alpha  occ. eigenvalues --   -0.29051  -0.26490  -0.25312  -0.25077  -0.24103
 Alpha  occ. eigenvalues --   -0.23943  -0.23292  -0.18151  -0.13105
 Alpha virt. eigenvalues --   -0.04176  -0.01844  -0.00699  -0.00067   0.00235
 Alpha virt. eigenvalues --    0.01315   0.01558   0.01678   0.02060   0.02321
 Alpha virt. eigenvalues --    0.03162   0.03711   0.04047   0.04129   0.04851

  Beta  occ. eigenvalues --  -19.13277 -19.06515 -19.06500 -14.30460 -14.30447
  Beta  occ. eigenvalues --  -10.22081 -10.21823 -10.21814 -10.20480 -10.20458
  Beta  occ. eigenvalues --  -10.19909 -10.19123 -10.16978 -10.16976 -10.16930
  Beta  occ. eigenvalues --  -10.16913 -10.16785 -10.16744 -10.16691 -10.16685
  Beta  occ. eigenvalues --  -10.15884 -10.15780  -1.03138  -0.98714  -0.98395
  Beta  occ. eigenvalues --   -0.92413  -0.91846  -0.85279  -0.82628  -0.77561
  Beta  occ. eigenvalues --   -0.75492  -0.74513  -0.73559  -0.71271  -0.67281
  Beta  occ. eigenvalues --   -0.65459  -0.64083  -0.62179  -0.60857  -0.57731
  Beta  occ. eigenvalues --   -0.56170  -0.52903  -0.52489  -0.51521  -0.49963
  Beta  occ. eigenvalues --   -0.48847  -0.47351  -0.46548  -0.45695  -0.45615
  Beta  occ. eigenvalues --   -0.44808  -0.43468  -0.42983  -0.42054  -0.41246
  Beta  occ. eigenvalues --   -0.40875  -0.40664  -0.40128  -0.39528  -0.38717
  Beta  occ. eigenvalues --   -0.38074  -0.36976  -0.36434  -0.36055  -0.35706
  Beta  occ. eigenvalues --   -0.34269  -0.34124  -0.33158  -0.32542  -0.30488
  Beta  occ. eigenvalues --   -0.29045  -0.25047  -0.24715  -0.24071  -0.23731
  Beta  occ. eigenvalues --   -0.23557  -0.22910  -0.16844
  Beta virt. eigenvalues --   -0.08033  -0.03291  -0.00882  -0.00682  -0.00059
  Beta virt. eigenvalues --    0.00240   0.01346   0.01595   0.01987   0.02226
  Beta virt. eigenvalues --    0.02474   0.03174   0.03742   0.04069   0.04155

 Mulliken charges and spin densities:
               1          2
     1  C   -0.065259   0.020567
     2  C   -0.408819   0.035697
     3  C   -0.432762   0.032044
     4  C    0.313888   0.039198
     5  C    0.246342   0.027630
     6  C   -0.083375   0.022825
     7  C   -0.408022   0.086228
     8  C   -0.417880   0.091100
     9  C    0.132214  -0.021013
    10  C    0.342110  -0.008965
    11  C    0.060420   0.042887
    12  C   -0.237486   0.109440
    13  C   -0.395736   0.089829
    14  C   -0.275969   0.049903
    15  O   -0.484210   0.157816
    16  O   -0.467942   0.162255
    17  H    0.168764  -0.000497
    18  H    0.178328  -0.002850
    19  H    0.178111  -0.002560
    20  H    0.158390  -0.000976
    21  H    0.179647  -0.007255
    22  H    0.187766  -0.008143
    23  N   -0.316602   0.040551
    24  C   -0.364660  -0.003442
    25  H    0.388727  -0.003699
    26  H    0.153449   0.004331
    27  H    0.148823   0.003047
    28  H    0.153528  -0.000159
    29  N   -0.135497   0.039756
    30  C   -0.212414  -0.000896
    31  C   -0.315635  -0.000372
    32  O   -0.324332   0.000005
    33  H    0.416842  -0.001651
    34  H    0.157437   0.002282
    35  H    0.158696   0.005078
    36  H    0.160159   0.000303
    37  H    0.187537  -0.000277
    38  H    0.275425  -0.000016
 Sum of Mulliken charges =  -1.00000   1.00000

 Dipole moment (field-independent basis, Debye):
    X=              6.1224    Y=            -14.4305    Z=              6.8031  Tot=             17.0881
 Quadrupole moment (field-independent basis, Debye-Ang):
   XX=           -140.5237   YY=           -175.4848   ZZ=           -180.7982
   XY=             23.6288   XZ=             -4.4917   YZ=             30.0045

  Exact polarizability: 203.637  -1.682 583.423  63.996  70.321 511.923
 Approx polarizability: 229.993  -7.406 601.952  65.550  46.451 547.879

                      1                      2                      3
                      A                      A                      A
 Frequencies --     30.5269                46.4232                58.0179
 Red. masses --      6.7357                 3.7931                 2.5393
 Frc consts  --      0.0037                 0.0048                 0.0050
 IR Inten    --      2.8186                17.2447                 3.9842

                      4                      5                      6
                      A                      A                      A
 Frequencies --     64.5621                67.5726                72.6493
 Red. masses --      4.7813                 3.1171                 6.0862
 Frc consts  --      0.0117                 0.0084                 0.0189
 IR Inten    --     11.0861                11.0333                 0.3318

                      7                      8                      9
                      A                      A                      A
 Frequencies --    112.1058               134.6205               149.2337
 Red. masses --      3.4960                 4.5055                 3.5066
 Frc consts  --      0.0259                 0.0481                 0.0460
 IR Inten    --      2.0109                 1.6625                13.9623

                     10                     11                     12
                      A                      A                      A
 Frequencies --    175.9776               181.3198               217.2335
 Red. masses --      3.6817                 6.5972                 1.1666
 Frc consts  --      0.0672                 0.1278                 0.0324
 IR Inten    --      3.2506                 3.2809                 1.3356

                     13                     14                     15
                      A                      A                      A
 Frequencies --    233.2810               247.4292               267.1309
 Red. masses --      3.6033                 5.5529                 5.6923
 Frc consts  --      0.1155                 0.2003                 0.2393
 IR Inten    --      6.6919                11.6968                 5.6654

                     16                     17                     18
                      A                      A                      A
 Frequencies --    296.6378               319.2879               329.0431
 Red. masses --      1.2164                 4.1637                 4.4054
 Frc consts  --      0.0631                 0.2501                 0.2810
 IR Inten    --    187.5779                11.7918                 9.5286

                     19                     20                     21
                      A                      A                      A
 Frequencies --    362.7709               381.3877               397.5367
 Red. masses --      5.2061                 6.8403                 8.9091
 Frc consts  --      0.4037                 0.5862                 0.8295
 IR Inten    --      1.8652                30.9574                 2.1113

                     22                     23                     24
                      A                      A                      A
 Frequencies --    419.3646               438.2604               441.1778
 Red. masses --      6.6451                12.3877                 3.3599
 Frc consts  --      0.6886                 1.4019                 0.3853
 IR Inten    --      0.5745                26.1618                 6.1962

                     25                     26                     27
                      A                      A                      A
 Frequencies --    474.7598               487.6368               503.1014
 Red. masses --      6.8331                 7.9248                 4.5570
 Frc consts  --      0.9074                 1.1103                 0.6796
 IR Inten    --     38.3188                10.1165                 2.1853

                     28                     29                     30
                      A                      A                      A
 Frequencies --    532.7922               580.9235               601.9168
 Red. masses --      5.2853                 3.2788                 3.4621
 Frc consts  --      0.8840                 0.6519                 0.7390
 IR Inten    --     49.5648                69.7235                19.7624

                     31                     32                     33
                      A                      A                      A
 Frequencies --    626.4304               637.3215               650.3797
 Red. masses --      2.7085                 2.0166                 2.4449
 Frc consts  --      0.6262                 0.4826                 0.6093
 IR Inten    --      7.0685                98.6430                61.8812

                     34                     35                     36
                      A                      A                      A
 Frequencies --    661.5824               679.8078               727.5598
 Red. masses --      1.8258                 2.3478                 3.0085
 Frc consts  --      0.4708                 0.6393                 0.9383
 IR Inten    --    113.8298                83.7662                62.7557

                     37                     38                     39
                      A                      A                      A
 Frequencies --    727.5886               739.5334               781.3642
 Red. masses --      3.2729                 5.8842                 4.2773
 Frc consts  --      1.0208                 1.8961                 1.5386
 IR Inten    --     42.9279                 2.6533                12.0811

                     40                     41                     42
                      A                      A                      A
 Frequencies --    789.4679               795.8748               799.8639
 Red. masses --      1.6189                 5.9083                 2.1208
 Frc consts  --      0.5945                 2.2050                 0.7994
 IR Inten    --    100.5466                 0.1748                 6.5162

                     43                     44                     45
                      A                      A                      A
 Frequencies --    822.6716               860.5823               885.3546
 Red. masses --      1.1536                 6.4916                 1.4417
 Frc consts  --      0.4600                 2.8326                 0.6658
 IR Inten    --      4.1975                35.4479                 0.1212

                     46                     47                     48
                      A                      A                      A
 Frequencies --    892.0511               895.6783               948.6702
 Red. masses --      1.4102                 5.8581                 5.3114
 Frc consts  --      0.6611                 2.7689                 2.8164
 IR Inten    --      2.5692                75.6740                31.2827

                     49                     50                     51
                      A                      A                      A
 Frequencies --    991.1430              1001.4667              1021.9988
 Red. masses --      1.3591                 1.2763                 4.5849
 Frc consts  --      0.7867                 0.7542                 2.8215
 IR Inten    --      3.2290                 0.0524               268.5036

                     52                     53                     54
                      A                      A                      A
 Frequencies --   1034.3951              1048.9623              1064.5944
 Red. masses --      2.8588                 2.2793                 3.1044
 Frc consts  --      1.8022                 1.4776                 2.0730
 IR Inten    --     58.0626                24.1956                94.2051

                     55                     56                     57
                      A                      A                      A
 Frequencies --   1093.5077              1107.8198              1111.1170
 Red. masses --      1.6244                 2.0336                 2.2981
 Frc consts  --      1.1444                 1.4705                 1.6717
 IR Inten    --     19.3599                 8.5972                86.3651

                     58                     59                     60
                      A                      A                      A
 Frequencies --   1143.0606              1144.5391              1150.7392
 Red. masses --      1.3698                 3.3433                 1.3054
 Frc consts  --      1.0545                 2.5804                 1.0185
 IR Inten    --     19.0450                71.2137                17.8255

                     61                     62                     63
                      A                      A                      A
 Frequencies --   1173.6217              1189.5113              1197.7711
 Red. masses --      2.3369                 1.8954                 1.5125
 Frc consts  --      1.8965                 1.5801                 1.2785
 IR Inten    --     24.4716               117.8399               146.5581

                     64                     65                     66
                      A                      A                      A
 Frequencies --   1199.8398              1230.5695              1247.0087
 Red. masses --      1.2133                 3.6094                 2.0709
 Frc consts  --      1.0291                 3.2203                 1.8973
 IR Inten    --     26.5204                32.7175                78.1991

                     67                     68                     69
                      A                      A                      A
 Frequencies --   1272.0319              1284.8193              1306.6266
 Red. masses --      2.1363                 2.7245                 1.2428
 Frc consts  --      2.0366                 2.6499                 1.2501
 IR Inten    --      4.1518               207.0808                60.7087

                     70                     71                     72
                      A                      A                      A
 Frequencies --   1318.2061              1335.4109              1349.5011
 Red. masses --      4.2578                 2.0316                 1.5081
 Frc consts  --      4.3592                 2.1346                 1.6181
 IR Inten    --    217.0725               525.1664               177.4890

                     73                     74                     75
                      A                      A                      A
 Frequencies --   1355.2065              1384.5836              1387.3723
 Red. masses --      7.0286                 5.5743                 1.2549
 Frc consts  --      7.6056                 6.2962                 1.4231
 IR Inten    --    124.5698               209.4614               197.1807

                     76                     77                     78
                      A                      A                      A
 Frequencies --   1396.2039              1424.3801              1436.6657
 Red. masses --      2.8229                 1.4159                 4.7852
 Frc consts  --      3.2422                 1.6925                 5.8191
 IR Inten    --    823.5178                15.8508                50.5412

                     79                     80                     81
                      A                      A                      A
 Frequencies --   1457.5772              1472.5176              1475.0969
 Red. masses --      1.5666                 2.6546                 1.0473
 Frc consts  --      1.9610                 3.3913                 1.3427
 IR Inten    --    512.1036               402.1166                12.5089

                     82                     83                     84
                      A                      A                      A
 Frequencies --   1478.9401              1495.9136              1500.6206
 Red. masses --      2.3135                 3.1227                 1.1433
 Frc consts  --      2.9814                 4.1172                 1.5169
 IR Inten    --    151.1197               575.0251                16.0443

                     85                     86                     87
                      A                      A                      A
 Frequencies --   1509.9253              1516.8943              1538.4651
 Red. masses --      1.0915                 1.1416                 1.9804
 Frc consts  --      1.4662                 1.5477                 2.7617
 IR Inten    --     10.6654               126.0324               723.9414

                     88                     89                     90
                      A                      A                      A
 Frequencies --   1550.3273              1586.7557              1595.3669
 Red. masses --      2.6088                 2.9189                 2.6804
 Frc consts  --      3.6944                 4.3300                 4.0195
 IR Inten    --      0.4515               741.1182                67.3490

                     91                     92                     93
                      A                      A                      A
 Frequencies --   1623.7656              1626.7118              2932.2030
 Red. masses --      5.7374                 7.0045                 1.0720
 Frc consts  --      8.9128                10.9207                 5.4305
 IR Inten    --      5.2316               116.0146               239.0787

                     94                     95                     96
                      A                      A                      A
 Frequencies --   2968.2453              3004.7357              3010.6058
 Red. masses --      1.0474                 1.0745                 1.0943
 Frc consts  --      5.4373                 5.7156                 5.8438
 IR Inten    --    303.8784                11.6687               102.6350

                     97                     98                     99
                      A                      A                      A
 Frequencies --   3017.3379              3089.0297              3108.6204
 Red. masses --      1.0797                 1.0980                 1.0945
 Frc consts  --      5.7915                 6.1728                 6.2315
 IR Inten    --    151.7258                53.7064                37.5335

                    100                    101                    102
                      A                      A                      A
 Frequencies --   3156.9951              3171.9650              3184.1485
 Red. masses --      1.0862                 1.0914                 1.0857
 Frc consts  --      6.3782                 6.4698                 6.4858
 IR Inten    --     16.7197                36.0951                40.4442

                    103                    104                    105
                      A                      A                      A
 Frequencies --   3193.9168              3197.9453              3200.1107
 Red. masses --      1.0918                 1.0925                 1.0924
 Frc consts  --      6.5619                 6.5826                 6.5914
 IR Inten    --     20.5829                44.0044                28.8902

                    106                    107                    108
                      A                      A                      A
 Frequencies --   3346.8486              3401.3716              3817.1557
 Red. masses --      1.0804                 1.0809                 1.0666
 Frc consts  --      7.1304                 7.3677                 9.1567
 IR Inten    --    160.1758               154.3884                61.0513

 - Thermochemistry -
 -------------------
 Temperature   298.150 Kelvin.  Pressure   1.00000 Atm.
 Atom     1 has atomic number  6 and mass  12.00000

 Molecular mass:   296.11609 amu.
 Principal axes and moments of inertia in atomic units:
                           1         2         3
     Eigenvalues --  5121.503968760.43919**********
           X            0.19534  -0.08953   0.97664
           Y            0.21596   0.97531   0.04621
           Z            0.95666  -0.20189  -0.20985
 This molecule is an asymmetric top.
 Rotational symmetry number  1.
 Warning -- assumption of classical behavior for rotation
           may cause significant error
 Rotational temperatures (Kelvin)      0.01691     0.00989     0.00626
 Rotational constants (GHZ):           0.35239     0.20601     0.13048
 Zero-point vibrational energy     784626.2 (Joules/Mol)
                                  187.53015 (Kcal/Mol)
 Warning -- explicit consideration of  30 degrees of freedom as
           vibrations may cause significant error
 Vibrational temperatures:     43.92    66.79    83.47    92.89    97.22
          (Kelvin)            104.53   161.30   193.69   214.71   253.19
                              260.88   312.55   335.64   356.00   384.34
                              426.80   459.38   473.42   521.95   548.73
                              571.97   603.37   630.56   634.76   683.07
                              701.60   723.85   766.57   835.82   866.02
                              901.29   916.96   935.75   951.87   978.09
                             1046.80  1046.84  1064.02  1124.21  1135.87
                             1145.09  1150.83  1183.64  1238.19  1273.83
                             1283.46  1288.68  1364.92  1426.03  1440.89
                             1470.43  1488.26  1509.22  1531.71  1573.31
                             1593.91  1598.65  1644.61  1646.74  1655.66
                             1688.58  1711.44  1723.33  1726.30  1770.52
                             1794.17  1830.17  1848.57  1879.94  1896.60
                             1921.36  1941.63  1949.84  1992.11  1996.12
                             2008.83  2049.37  2067.04  2097.13  2118.62
                             2122.34  2127.86  2152.29  2159.06  2172.45
                             2182.47  2213.51  2230.58  2282.99  2295.38
                             2336.24  2340.48  4218.79  4270.64  4323.14
                             4331.59  4341.28  4444.42  4472.61  4542.21
                             4563.75  4581.28  4595.33  4601.13  4604.25
                             4815.37  4893.82  5492.04

 Zero-point correction=                           0.298848 (Hartree/Particle)
 Thermal correction to Energy=                    0.318332
 Thermal correction to Enthalpy=                  0.319277
 Thermal correction to Gibbs Free Energy=         0.249493
 Sum of electronic and zero-point Energies=           -992.748366
 Sum of electronic and thermal Energies=              -992.728881
 Sum of electronic and thermal Enthalpies=            -992.727937
 Sum of electronic and thermal Free Energies=         -992.797721

                     E (Thermal)             CV                S
                      KCal/Mol        Cal/Mol-Kelvin    Cal/Mol-Kelvin
 Total                  199.757             75.246            146.873
 Electronic               0.000              0.000              1.377
 Translational            0.889              2.981             42.954
 Rotational               0.889              2.981             34.783
 Vibrational            197.979             69.284             67.758
 Vibration     1          0.594              1.984              5.795
 Vibration     2          0.595              1.979              4.964
 Vibration     3          0.596              1.974              4.523
 Vibration     4          0.597              1.971              4.313
 Vibration     5          0.598              1.970              4.223
 Vibration     6          0.599              1.967              4.080
 Vibration     7          0.607              1.939              3.232
 Vibration     8          0.613              1.919              2.879
 Vibration     9          0.618              1.904              2.682
 Vibration    10          0.628              1.872              2.371
 Vibration    11          0.630              1.865              2.315
 Vibration    12          0.646              1.815              1.982
 Vibration    13          0.654              1.790              1.854
 Vibration    14          0.661              1.767              1.749
 Vibration    15          0.672              1.733              1.615
 Vibration    16          0.690              1.680              1.436
 Vibration    17          0.705              1.637              1.314
 Vibration    18          0.712              1.617              1.265
 Vibration    19          0.737              1.549              1.110
 Vibration    20          0.751              1.510              1.034
 Vibration    21          0.764              1.475              0.972
 Vibration    22          0.782              1.428              0.894
 Vibration    23          0.798              1.387              0.832
 Vibration    24          0.801              1.380              0.823
 Vibration    25          0.831              1.306              0.724
 Vibration    26          0.844              1.277              0.690
 Vibration    27          0.858              1.243              0.650
 Vibration    28          0.888              1.177              0.581
 Vibration    29          0.938              1.073              0.484
 Vibration    30          0.960              1.028              0.446

                           ! Non-Optimized Parameters !
 Normal termination of Gaussian 16 at Sat Feb 10 21:41:05 2024.
