 Gaussian 16, Revision A.03,
 Gaussian 16:  ES64L-G16RevA.03 25-Dec-2016

 ----------------------------------------------------------------
 #P UB3LYP/6-311++G(d,p) SCRF=(PCM,Solvent=n,n-DiMethylFormamide)
 ----------------------------------------------------------------

 -------
 Reduced
 -------
 Symbolic Z-matrix:
 Charge = -2 Multiplicity = 1

                         Standard orientation:
 ---------------------------------------------------------------------
 Center     Atomic      Atomic             Coordinates (Angstroms)
 Number     Number       Type             X           Y           Z
 ---------------------------------------------------------------------
      1          6           0        2.927119   -1.468269    0.003624
      2          6           0        1.619998   -0.709560   -0.000399
      3          6           0        1.619957    0.709654    0.000423
      4          6           0        2.927098    1.468332   -0.003612
      5          6           0        0.425413    1.493291    0.005847
      6          8           0        0.419549    2.789028    0.009271
      7          6           0       -0.810072    0.721344    0.000325
      8          6           0       -2.056685    1.391144   -0.012964
      9          6           0       -3.260686    0.708978   -0.008322
     10          6           0       -3.260656   -0.709066    0.008336
     11          6           0       -2.056645   -1.391213    0.012960
     12          6           0       -0.810028   -0.721387   -0.000316
     13          6           0        0.425482   -1.493266   -0.005812
     14          8           0        0.419748   -2.789009   -0.009342
     15          1           0        3.527818   -1.284629   -0.902895
     16          1           0        3.569687   -1.196328    0.856290
     17          1           0        2.700565   -2.536114    0.056771
     18          1           0        2.700697    2.536200   -0.056997
     19          1           0        3.569771    1.196209   -0.856147
     20          1           0        3.527688    1.284802    0.903002
     21          1           0       -2.021591    2.476402   -0.024621
     22          1           0       -4.204623    1.253527   -0.014402
     23          1           0       -4.204585   -1.253630    0.014439
     24          1           0       -2.021577   -2.476473    0.024590
 ---------------------------------------------------------------------

 SCF Done:  E(UB3LYP) =  -614.155620166     A.U. after   16 cycles

 The electronic state is 1-A.
 Alpha  occ. eigenvalues --  -19.00766 -19.00765 -10.15962 -10.15960 -10.14532
 Alpha  occ. eigenvalues --  -10.14486 -10.14078 -10.14077 -10.13109 -10.13109
 Alpha  occ. eigenvalues --  -10.12994 -10.12955 -10.11965 -10.11919  -0.92410
 Alpha  occ. eigenvalues --   -0.92047  -0.81886  -0.77178  -0.72015  -0.71644
 Alpha  occ. eigenvalues --   -0.69170  -0.63870  -0.61601  -0.56359  -0.55060
 Alpha  occ. eigenvalues --   -0.51297  -0.47262  -0.45419  -0.42387  -0.41783
 Alpha  occ. eigenvalues --   -0.40130  -0.39459  -0.37365  -0.36783  -0.36335
 Alpha  occ. eigenvalues --   -0.35690  -0.35574  -0.34610  -0.34384  -0.32135
 Alpha  occ. eigenvalues --   -0.30603  -0.30384  -0.29964  -0.29255  -0.22402
 Alpha  occ. eigenvalues --   -0.21609  -0.19569  -0.19265  -0.18342  -0.10321
 Alpha virt. eigenvalues --   -0.00086  -0.00070   0.00792   0.01641   0.01686
 Alpha virt. eigenvalues --    0.02849   0.03041   0.03565   0.04704   0.05317
 Alpha virt. eigenvalues --    0.05820   0.05999   0.06197   0.07322   0.07847

  Beta  occ. eigenvalues --  -19.00766 -19.00765 -10.15962 -10.15960 -10.14532
  Beta  occ. eigenvalues --  -10.14486 -10.14078 -10.14077 -10.13109 -10.13109
  Beta  occ. eigenvalues --  -10.12994 -10.12955 -10.11965 -10.11919  -0.92410
  Beta  occ. eigenvalues --   -0.92047  -0.81886  -0.77178  -0.72015  -0.71644
  Beta  occ. eigenvalues --   -0.69170  -0.63870  -0.61601  -0.56359  -0.55060
  Beta  occ. eigenvalues --   -0.51297  -0.47262  -0.45419  -0.42387  -0.41783
  Beta  occ. eigenvalues --   -0.40130  -0.39459  -0.37365  -0.36783  -0.36335
  Beta  occ. eigenvalues --   -0.35690  -0.35574  -0.34610  -0.34384  -0.32135
  Beta  occ. eigenvalues --   -0.30603  -0.30384  -0.29964  -0.29255  -0.22402
  Beta  occ. eigenvalues --   -0.21609  -0.19569  -0.19265  -0.18342  -0.10321
  Beta virt. eigenvalues --   -0.00086  -0.00070   0.00792   0.01641   0.01686
  Beta virt. eigenvalues --    0.02849   0.03041   0.03565   0.04704   0.05317
  Beta virt. eigenvalues --    0.05820   0.05999   0.06197   0.07322   0.07847

 Mulliken charges and spin densities:
               1          2
     1  C   -0.511633   0.000000
     2  C    0.835195  -0.000000
     3  C    0.836199   0.000000
     4  C   -0.512162  -0.000000
     5  C   -1.227668   0.000000
     6  O   -0.702074   0.000000
     7  C    0.622240  -0.000000
     8  C   -0.215812   0.000000
     9  C   -0.515575  -0.000000
    10  C   -0.515809   0.000000
    11  C   -0.215799   0.000000
    12  C    0.620169  -0.000000
    13  C   -1.227161   0.000000
    14  O   -0.702085  -0.000000
    15  H    0.127693  -0.000000
    16  H    0.123113  -0.000000
    17  H    0.168581  -0.000000
    18  H    0.168535   0.000000
    19  H    0.123114   0.000000
    20  H    0.127711   0.000000
    21  H    0.143267  -0.000000
    22  H    0.153349  -0.000000
    23  H    0.153332   0.000000
    24  H    0.143277   0.000000
 Sum of Mulliken charges =  -2.00000   0.00000

 Dipole moment (field-independent basis, Debye):
    X=             -1.3271    Y=              0.0000    Z=              0.0002  Tot=              1.3271
 Quadrupole moment (field-independent basis, Debye-Ang):
   XX=           -104.4490   YY=           -151.6426   ZZ=            -94.3604
   XY=              0.0018   XZ=             -0.0001   YZ=             -0.2710

 Normal termination of Gaussian 16 at Sun Jan 21 08:47:48 2024.
