 Gaussian 16, Revision A.03,
 Gaussian 16:  ES64L-G16RevA.03 25-Dec-2016

 ----------------------------------------------------------------
 #P UB3LYP/6-311++G(d,p) SCRF=(PCM,Solvent=n,n-DiMethylFormamide)
 ----------------------------------------------------------------

 ------------------
 Quinone PCM in DMF
 ------------------
 Symbolic Z-matrix:
 Charge =  0 Multiplicity = 1

                         Standard orientation:
 ---------------------------------------------------------------------
 Center     Atomic      Atomic             Coordinates (Angstroms)
 Number     Number       Type             X           Y           Z
 ---------------------------------------------------------------------
      1          6           0        4.852886   -0.810670    0.000164
      2          6           0        3.482518   -0.195878    0.000029
      3          6           0        3.290062    1.167765   -0.000013
      4          6           0        2.002477    1.745296   -0.000038
      5          8           0        1.932070    3.082102   -0.000053
      6          6           0        0.869660    0.913829   -0.000051
      7          6           0       -0.461807    1.492487   -0.000138
      8          8           0       -0.614486    2.748525   -0.000228
      9          6           0       -1.622423    0.611649   -0.000033
     10          6           0       -2.918339    1.156653    0.000108
     11          8           0       -3.165040    2.472723    0.000208
     12          6           0       -4.033742    0.289610    0.000172
     13          6           0       -3.868367   -1.072803    0.000040
     14          6           0       -2.578074   -1.647558   -0.000087
     15          8           0       -2.503694   -2.984465   -0.000182
     16          6           0       -1.449314   -0.807758   -0.000058
     17          6           0       -0.112536   -1.385401    0.000031
     18          8           0        0.038097   -2.641602    0.000028
     19          6           0        1.046854   -0.504729    0.000005
     20          6           0        2.341423   -1.048963    0.000012
     21          8           0        2.577270   -2.367852    0.000005
     22          1           0        4.990433   -1.451242   -0.875413
     23          1           0        4.990413   -1.450803    0.876068
     24          1           0        5.625867   -0.041638   -0.000016
     25          1           0        4.138811    1.842086   -0.000036
     26          1           0        0.974382    3.322848   -0.000083
     27          1           0       -2.291031    2.932272    0.000112
     28          1           0       -5.021526    0.734386    0.000313
     29          1           0       -4.720864   -1.741175    0.000080
     30          1           0       -1.546001   -3.222921   -0.000157
     31          1           0        1.698109   -2.820438    0.000034
 ---------------------------------------------------------------------

 SCF Done:  E(UB3LYP) =  -1029.32538804     A.U. after   14 cycles

 The electronic state is 1-A.
 Alpha  occ. eigenvalues --  -19.16807 -19.16783 -19.16780 -19.16738 -19.14685
 Alpha  occ. eigenvalues --  -19.14494 -10.29413 -10.29243 -10.27131 -10.27072
 Alpha  occ. eigenvalues --  -10.27037 -10.26958 -10.21705 -10.21548 -10.21486
 Alpha  occ. eigenvalues --  -10.21413 -10.21165 -10.20693 -10.20625 -10.20147
 Alpha  occ. eigenvalues --  -10.17831  -1.10144  -1.09936  -1.08987  -1.08859
 Alpha  occ. eigenvalues --   -1.05918  -1.05759  -0.89935  -0.88097  -0.83263
 Alpha  occ. eigenvalues --   -0.79565  -0.78035  -0.76598  -0.73148  -0.70311
 Alpha  occ. eigenvalues --   -0.68389  -0.66070  -0.64044  -0.63020  -0.58923
 Alpha  occ. eigenvalues --   -0.56484  -0.55985  -0.55280  -0.54922  -0.54629
 Alpha  occ. eigenvalues --   -0.50450  -0.48950  -0.48165  -0.47754  -0.47414
 Alpha  occ. eigenvalues --   -0.46656  -0.45567  -0.44608  -0.44345  -0.44086
 Alpha  occ. eigenvalues --   -0.43836  -0.42950  -0.42949  -0.41953  -0.40434
 Alpha  occ. eigenvalues --   -0.39902  -0.39729  -0.39615  -0.39316  -0.38238
 Alpha  occ. eigenvalues --   -0.38010  -0.34170  -0.33224  -0.30889  -0.29760
 Alpha  occ. eigenvalues --   -0.29006  -0.28111  -0.24880  -0.22827
 Alpha virt. eigenvalues --   -0.12854  -0.06926  -0.04555  -0.00835  -0.00680
 Alpha virt. eigenvalues --    0.00100   0.00473   0.01287   0.01960   0.02448
 Alpha virt. eigenvalues --    0.03188   0.03444   0.03562   0.03722   0.03978

  Beta  occ. eigenvalues --  -19.16807 -19.16783 -19.16780 -19.16738 -19.14685
  Beta  occ. eigenvalues --  -19.14494 -10.29413 -10.29243 -10.27131 -10.27072
  Beta  occ. eigenvalues --  -10.27037 -10.26958 -10.21705 -10.21548 -10.21486
  Beta  occ. eigenvalues --  -10.21413 -10.21165 -10.20693 -10.20625 -10.20147
  Beta  occ. eigenvalues --  -10.17831  -1.10144  -1.09936  -1.08987  -1.08859
  Beta  occ. eigenvalues --   -1.05918  -1.05759  -0.89935  -0.88097  -0.83263
  Beta  occ. eigenvalues --   -0.79565  -0.78035  -0.76598  -0.73148  -0.70311
  Beta  occ. eigenvalues --   -0.68389  -0.66070  -0.64044  -0.63020  -0.58923
  Beta  occ. eigenvalues --   -0.56484  -0.55985  -0.55280  -0.54922  -0.54629
  Beta  occ. eigenvalues --   -0.50450  -0.48950  -0.48165  -0.47754  -0.47414
  Beta  occ. eigenvalues --   -0.46656  -0.45567  -0.44608  -0.44345  -0.44086
  Beta  occ. eigenvalues --   -0.43836  -0.42950  -0.42949  -0.41953  -0.40434
  Beta  occ. eigenvalues --   -0.39902  -0.39729  -0.39615  -0.39316  -0.38238
  Beta  occ. eigenvalues --   -0.38010  -0.34170  -0.33224  -0.30889  -0.29760
  Beta  occ. eigenvalues --   -0.29006  -0.28111  -0.24880  -0.22827
  Beta virt. eigenvalues --   -0.12854  -0.06926  -0.04555  -0.00835  -0.00680
  Beta virt. eigenvalues --    0.00100   0.00473   0.01287   0.01960   0.02448
  Beta virt. eigenvalues --    0.03188   0.03444   0.03562   0.03722   0.03978

 Mulliken charges and spin densities:
               1          2
     1  C   -0.100949  -0.000000
     2  C    1.031811  -0.000000
     3  C   -0.831993   0.000000
     4  C   -0.364427  -0.000000
     5  O   -0.327092   0.000000
     6  C    0.622820   0.000000
     7  C   -0.533331   0.000000
     8  O   -0.415379  -0.000000
     9  C    0.410605   0.000000
    10  C   -0.332683   0.000000
    11  O   -0.331564  -0.000000
    12  C   -0.056376  -0.000000
    13  C   -0.088409  -0.000000
    14  C   -0.295655   0.000000
    15  O   -0.333134  -0.000000
    16  C    0.458718   0.000000
    17  C   -0.428511  -0.000000
    18  O   -0.420320   0.000000
    19  C    0.166972   0.000000
    20  C   -0.253104   0.000000
    21  O   -0.333280  -0.000000
    22  H    0.194090  -0.000000
    23  H    0.194118   0.000000
    24  H    0.182714  -0.000000
    25  H    0.193546   0.000000
    26  H    0.376583  -0.000000
    27  H    0.376761   0.000000
    28  H    0.231634   0.000000
    29  H    0.230788  -0.000000
    30  H    0.376592   0.000000
    31  H    0.398456   0.000000
 Sum of Mulliken charges =  -0.00000   0.00000

 Dipole moment (field-independent basis, Debye):
    X=              1.1503    Y=             -0.5388    Z=              0.0005  Tot=              1.2702
 Quadrupole moment (field-independent basis, Debye-Ang):
   XX=           -103.6192   YY=           -137.7776   ZZ=           -121.5876
   XY=              1.7214   XZ=             -0.0002   YZ=              0.0003

 Normal termination of Gaussian 16 at Tue Jan 16 05:13:42 2024.
