 Q-Chem 5.4, Q-Chem, Inc., Pleasanton, CA (2021)
 Q-Chem 5.4.0 for Intel X86 EM64T Linux

User input:
--------------------------------------------------------------
$molecule
-2 1
C                  4.3662360000      2.6797810000     -0.3371340000
C                  3.7321200000      1.3844810000     -0.4698910000
C                  3.2363290000      0.6942070000      0.6330370000
C                  3.2994480000      1.2266030000      1.9751590000
C                  3.9641620000      2.5036900000      2.1087640000
C                  4.4673820000      3.1902880000      1.0137770000
O                  4.8191360000      3.3385000000     -1.3398470000
O                  2.8085710000      0.6028540000      2.9831330000
C                  6.3739880000      4.5803430000      0.8253370000
C                  4.7381310000      2.3631680000      4.3420210000
H                  6.6517660000      5.6233300000      1.0105620000
H                  6.4893630000      4.3408350000     -0.2350510000
H                  7.0241800000      3.9285840000      1.4307330000
H                  4.6766260000      2.9412220000      5.2699780000
H                  5.7985970000      2.2505340000      4.0651960000
C                  2.5953770000     -0.6782160000      0.5035720000
C                  1.0987320000     -0.6313050000      0.3225280000
C                  0.3322160000     -1.2625550000     -0.5807700000
C                 -1.1773210000     -1.1084600000     -0.5624520000
C                 -1.9287390000     -2.3894320000     -0.1178940000
C                 -3.4261380000     -2.2412470000     -0.1229050000
C                 -4.3490510000     -3.0017780000     -0.7318970000
C                 -5.8281280000     -2.7028940000     -0.5770690000
C                 -6.5455340000     -2.2453960000     -1.8727680000
C                 -8.0415720000     -2.1985410000     -1.7151380000
C                 -8.8723770000     -1.1524480000     -1.8215140000
C                -10.3608490000     -1.3190270000     -1.6301500000
C                  0.8705530000     -2.1646650000     -1.6686440000
C                 -4.0279240000     -4.2208850000     -1.5652960000
C                 -8.4438720000      0.2598400000     -2.1348820000
H                  2.7822970000     -1.1973590000      1.4527280000
H                  3.0711950000     -1.2532630000     -0.2950270000
H                  0.6011450000      0.0010040000      1.0558510000
H                 -1.5366400000     -0.8299930000     -1.5636300000
H                 -1.4507130000     -0.2880040000      0.1087110000
H                 -1.5967410000     -2.6252410000      0.9022000000
H                 -1.6177570000     -3.2294910000     -0.7423910000
H                 -3.7948650000     -1.3989750000      0.4640640000
H                 -5.9722200000     -1.9359930000      0.1898020000
H                 -6.3351180000     -3.6070190000     -0.2097990000
H                 -6.3090160000     -2.9516900000     -2.6788560000
H                 -6.1368380000     -1.2807200000     -2.1815600000
H                 -8.4944590000     -3.1627310000     -1.4818830000
H                -10.6402640000     -2.3566570000     -1.4268710000
H                -10.9124100000     -0.9911000000     -2.5212900000
H                  1.9557380000     -2.1082000000     -1.7505440000
H                  0.4459320000     -1.8901370000     -2.6433350000
H                  0.6070240000     -3.2170270000     -1.4978530000
H                 -2.9592520000     -4.4264490000     -1.6222930000
H                 -4.4006520000     -4.1150800000     -2.5900750000
H                 -4.5207720000     -5.1085550000     -1.1476630000
H                 -7.3641170000      0.3731290000     -2.2383810000
H                 -8.7845250000      0.9450350000     -1.3483130000
H                 -8.9129920000      0.6038420000     -3.0660570000
H                -10.7250100000     -0.6997780000     -0.7994060000
O                  4.0390220000      3.1094270000      3.3565370000
O                  5.0183500000      4.4479180000      1.2258090000
C                  3.6295150000      0.8280350000     -1.8706120000
H                  4.2824920000      1.3788690000      4.4780970000
H                  4.2599600000     -0.0632870000     -2.0116310000
H                  3.9681520000      1.5917340000     -2.5732350000
H                  2.6035860000      0.5370910000     -2.1250910000
$end
$rem
MAX_SCF_CYCLES=200
BASIS  =  6-311++G(d,p)
GUI  =  2
JOB_TYPE  =  SP
THRESH = 14
SCF_CONVERGENCE  = 8
METHOD  =  B3LYP
SOLVENT_METHOD = COSMO
$end
$solvent
dielectric 37.219
opticaldielectric 1.43
$end

--------------------------------------------------------------

             Standard Nuclear Orientation (Angstroms)
    I     Atom           X                Y                Z
 ----------------------------------------------------------------
    1      C       5.0193997010    -0.3772204657     1.5474720461
    2      C       3.9518281266     0.5485136483     1.2299237883
    3      C       3.4904078353     0.7167583924    -0.0729661168
    4      C       4.0250050315    -0.0301331328    -1.1887975823
    5      C       5.1140736754    -0.9275947931    -0.8739352940
    6      C       5.5826341839    -1.0913627135     0.4211611620
    7      O       5.4519868779    -0.5569971289     2.7412103663
    8      O       3.5715030489     0.1021609369    -2.3816382504
    9      C       7.7723310588    -1.5188641695     1.2119702900
   10      C       6.2452607656    -0.9900802340    -2.9530511181
   11      H       8.4370180291    -2.3751939756     1.3674736497
   12      H       7.5648903369    -1.0233322875     2.1640809370
   13      H       8.2602106267    -0.8138862368     0.5198551339
   14      H       6.5942694525    -1.7352020563    -3.6755605591
   15      H       7.1100288407    -0.4026174049    -2.6052433602
   16      C       2.3897801275     1.7075259468    -0.4166576141
   17      C       1.0070214539     1.1054628836    -0.3961065428
   18      C      -0.1085714387     1.5599703533     0.1962160681
   19      C      -1.4221300593     0.8130608736     0.0566712655
   20      C      -2.4677591902     1.5502462543    -0.8187529323
   21      C      -3.7773821243     0.8186612383    -0.9364763562
   22      C      -5.0184008304     1.2596087370    -0.6786296229
   23      C      -6.2233549450     0.3658638019    -0.9028565167
   24      C      -6.9893741714    -0.0395940990     0.3823011090
   25      C      -8.2991634794    -0.7168843782     0.0808012720
   26      C      -8.7036902973    -1.9559403941     0.3921878634
   27      C     -10.0756139267    -2.4481137762    -0.0021578673
   28      C      -0.1739732161     2.8200269667     1.0299180270
   29      C      -5.3400840019     2.6573324366    -0.2024083322
   30      C      -7.8767028255    -2.9686520342     1.1451023931
   31      H       2.5773297535     2.0320811616    -1.4485658966
   32      H       2.4462178760     2.5874384533     0.2294158690
   33      H       0.9372804829     0.1804998425    -0.9659746732
   34      H      -1.8635146380     0.6447065279     1.0495699861
   35      H      -1.2341245477    -0.1751868483    -0.3750362442
   36      H      -2.0319342869     1.6655208970    -1.8203460311
   37      H      -2.6186069521     2.5605909332    -0.4329368967
   38      H      -3.6862740047    -0.2084601414    -1.2923349116
   39      H      -5.9164431621    -0.5442489784    -1.4267750823
   40      H      -6.9286819497     0.8836295568    -1.5690401010
   41      H      -7.1989916487     0.8625242283     0.9712093186
   42      H      -6.3392851372    -0.6636454626     0.9994954445
   43      H      -9.0054148691    -0.0941593123    -0.4692890413
   44      H     -10.6567806487    -1.6838320770    -0.5257892610
   45      H     -10.6505898125    -2.7621096655     0.8791454096
   46      H       0.8153560213     3.2237283939     1.2438694424
   47      H      -0.6704737956     2.6230529277     1.9892821729
   48      H      -0.7529062555     3.6110168980     0.5346864215
   49      H      -4.4540270776     3.2816234770    -0.0895859796
   50      H      -5.8603751983     2.6422411562     0.7616259945
   51      H      -6.0159038337     3.1549268098    -0.9101808221
   52      H      -6.8766355020    -2.6127929858     1.3953961937
   53      H      -7.7734781463    -3.8894750496     0.5571763041
   54      H      -8.3795427680    -3.2549083984     2.0782192760
   55      H     -10.0078678286    -3.3296410290    -0.6537239195
   56      O       5.6653602354    -1.7138864408    -1.8775723627
   57      O       6.5781071244    -2.0346865143     0.6432655393
   58      C       3.3602061582     1.3139868329     2.3901882008
   59      H       5.5085399971    -0.3289263257    -3.4168248950
   60      H       3.5849230349     2.3902942843     2.3366460739
   61      H       3.7905812063     0.9281695726     3.3162079739
   62      H       2.2690624437     1.2173772404     2.4350241960
 ----------------------------------------------------------------

  142   -1236.1804403344      4.76e-09  Convergence criterion met
 Total energy in the final basis set =    -1236.1804403344
   12   -1236.4396903766      2.99e-09  Convergence criterion met
 Total energy in the final basis set =    -1236.4396903766

                    Orbital Energies (a.u.)
 --------------------------------------------------------------

 Alpha MOs
 -- Occupied --
-19.1113 -19.1109 -19.0121 -19.0121 -10.1870 -10.1870 -10.1731 -10.1707
-10.1679 -10.1673 -10.1631 -10.1625 -10.1623 -10.1619 -10.1603 -10.1592
-10.1579 -10.1565 -10.1564 -10.1562 -10.1560 -10.1555 -10.1504 -10.1460
-10.1405 -10.1308 -10.1201 -10.1188  -1.0313  -1.0137  -0.9329  -0.9303
 -0.8226  -0.8110  -0.8005  -0.7825  -0.7586  -0.7409  -0.7274  -0.7066
 -0.6867  -0.6804  -0.6781  -0.6725  -0.6701  -0.6488  -0.6215  -0.6067
 -0.6004  -0.5827  -0.5306  -0.5233  -0.5167  -0.5116  -0.4992  -0.4806
 -0.4733  -0.4635  -0.4628  -0.4560  -0.4439  -0.4419  -0.4409  -0.4338
 -0.4268  -0.4248  -0.4203  -0.4160  -0.4102  -0.4050  -0.4041  -0.3965
 -0.3923  -0.3835  -0.3802  -0.3788  -0.3682  -0.3677  -0.3665  -0.3638
 -0.3604  -0.3587  -0.3574  -0.3535  -0.3523  -0.3429  -0.3406  -0.3309
 -0.3269  -0.3249  -0.3225  -0.3180  -0.3164  -0.3125  -0.3061  -0.3044
 -0.2664  -0.2551  -0.2428  -0.2307  -0.2230  -0.2150  -0.1954  -0.1881
 -0.1826  -0.1083

          Ground-State Mulliken Net Atomic Charges

     Atom                 Charge (a.u.)
  ----------------------------------------
      1 C                    -0.674502
      2 C                     0.585795
      3 C                     0.905574
      4 C                    -0.555473
      5 C                    -0.037090
      6 C                    -0.461789
      7 O                    -0.745523
      8 O                    -0.706421
      9 C                    -0.276058
     10 C                    -0.263666
     11 H                     0.149974
     12 H                     0.172461
     13 H                     0.114412
     14 H                     0.149098
     15 H                     0.113396
     16 C                     0.054035
     17 C                    -0.691931
     18 C                     1.069899
     19 C                    -0.995704
     20 C                    -0.250817
     21 C                    -0.263304
     22 C                     0.600196
     23 C                    -0.587211
     24 C                    -0.282706
     25 C                    -0.015891
     26 C                     0.297941
     27 C                    -0.646240
     28 C                    -0.833279
     29 C                    -0.787200
     30 C                    -0.694994
     31 H                     0.189894
     32 H                     0.160898
     33 H                     0.239380
     34 H                     0.184395
     35 H                     0.122050
     36 H                     0.169515
     37 H                     0.132537
     38 H                     0.199483
     39 H                     0.175347
     40 H                     0.138638
     41 H                     0.126131
     42 H                     0.156319
     43 H                     0.200926
     44 H                     0.161488
     45 H                     0.153845
     46 H                     0.110798
     47 H                     0.165291
     48 H                     0.168712
     49 H                     0.134031
     50 H                     0.175585
     51 H                     0.168912
     52 H                     0.147959
     53 H                     0.154449
     54 H                     0.153742
     55 H                     0.159654
     56 O                    -0.264156
     57 O                    -0.253701
     58 C                    -0.610586
     59 H                     0.165600
     60 H                     0.150554
     61 H                     0.166619
     62 H                     0.152710
  ----------------------------------------
  Sum of atomic charges =    -2.000000

                    Cartesian Multipole Moments
 -----------------------------------------------------------------
    Charge (ESU x 10^10)
                -9.6064
    Dipole Moment (Debye)
         X     -42.7788      Y       5.7080      Z      -1.1830
       Tot      43.1741
    Quadrupole Moments (Debye-Ang)
        XX    -377.5445     XY      35.9426     YY    -191.2846
        XZ     -26.1505     YZ       4.3614     ZZ    -234.0571

 Total job time:  4627.03s(wall), 35897.62s(cpu)
        *  Thank you very much for using Q-Chem.  Have a nice day.  *
