 Gaussian 16, Revision A.03,
 Gaussian 16:  ES64L-G16RevA.03 25-Dec-2016

 --------------------------------------
 #P UB3LYP/6-311++G(d,p) nosym opt freq
 --------------------------------------

 --------
 Oxidized
 --------
 Symbolic Z-matrix:
 Charge =  0 Multiplicity = 1

 SCF Done:  E(UB3LYP) =  -783.630079479     A.U. after   16 cycles
 SCF Done:  E(UB3LYP) =  -783.651020393     A.U. after   14 cycles
 SCF Done:  E(UB3LYP) =  -783.653395114     A.U. after   13 cycles
 SCF Done:  E(UB3LYP) =  -783.653632262     A.U. after   13 cycles
 SCF Done:  E(UB3LYP) =  -783.653802218     A.U. after   12 cycles
 SCF Done:  E(UB3LYP) =  -783.653810902     A.U. after   11 cycles
 SCF Done:  E(UB3LYP) =  -783.653820735     A.U. after   11 cycles
 SCF Done:  E(UB3LYP) =  -783.653824949     A.U. after   10 cycles
 SCF Done:  E(UB3LYP) =  -783.653826157     A.U. after    9 cycles
 SCF Done:  E(UB3LYP) =  -783.653826693     A.U. after    9 cycles
 SCF Done:  E(UB3LYP) =  -783.653826837     A.U. after    8 cycles
 Optimization completed.
    -- Stationary point found.
 Normal termination of Gaussian 16 at Thu Dec 21 06:30:42 2023.

 ----------------------------------------------------------------------
 #P Geom=AllCheck Guess=TCheck SCRF=Check GenChk UB3LYP/6-311++G(d,p) F
 req
 ----------------------------------------------------------------------

 Structure from the checkpoint file:  "170.chk"
 --------
 Oxidized
 --------
 Charge =  0 Multiplicity = 1

                          Input orientation:
 ---------------------------------------------------------------------
 Center     Atomic      Atomic             Coordinates (Angstroms)
 Number     Number       Type             X           Y           Z
 ---------------------------------------------------------------------
      1          6           0        3.927650    1.270087   -1.300974
      2          7           0        2.531042    1.058927   -0.984059
      3          6           0        2.049697    0.002416   -0.283140
      4          6           0        2.928231   -1.001184    0.199008
      5          6           0        2.453405   -2.082902    0.913914
      6          6           0        1.090230   -2.223712    1.185582
      7          6           0        0.200373   -1.261319    0.729722
      8          6           0       -1.248317   -1.462344    1.049173
      9          8           0       -1.628070   -2.433872    1.684076
     10          6           0       -2.210059   -0.436856    0.565512
     11          6           0       -3.572942   -0.586243    0.842158
     12          6           0       -4.482655    0.364259    0.396437
     13          6           0       -4.035888    1.472194   -0.329892
     14          6           0       -2.683142    1.626813   -0.608323
     15          6           0       -1.759974    0.674450   -0.163369
     16          6           0       -0.313212    0.867902   -0.478281
     17          8           0        0.027603    1.867244   -1.124989
     18          6           0        0.647001   -0.134550   -0.008285
     19          1           0        4.337724    0.459019   -1.914045
     20          1           0        4.544183    1.366034   -0.399590
     21          1           0        4.012197    2.196931   -1.867649
     22          1           0        1.831398    1.727696   -1.289378
     23          1           0        3.988589   -0.916499    0.002320
     24          1           0        3.153004   -2.832259    1.267902
     25          1           0        0.706869   -3.066683    1.744434
     26          1           0       -3.892516   -1.453508    1.406559
     27          1           0       -5.538614    0.246594    0.611926
     28          1           0       -4.746262    2.213846   -0.677592
     29          1           0       -2.317543    2.477517   -1.169155
 ---------------------------------------------------------------------

 SCF Done:  E(UB3LYP) =  -783.653826837     A.U. after    1 cycles

 Alpha  occ. eigenvalues --  -19.11957 -19.11781 -14.34066 -10.27241 -10.27047
 Alpha  occ. eigenvalues --  -10.24396 -10.21712 -10.20264 -10.20185 -10.20064
 Alpha  occ. eigenvalues --  -10.19895 -10.19670 -10.19661 -10.19581 -10.19292
 Alpha  occ. eigenvalues --  -10.19223 -10.19055 -10.18144  -1.05310  -1.05110
 Alpha  occ. eigenvalues --   -0.95828  -0.88579  -0.86783  -0.80715  -0.77359
 Alpha  occ. eigenvalues --   -0.77075  -0.76614  -0.70870  -0.68347  -0.65807
 Alpha  occ. eigenvalues --   -0.64356  -0.60761  -0.58763  -0.55775  -0.55176
 Alpha  occ. eigenvalues --   -0.52601  -0.49940  -0.49551  -0.48389  -0.47160
 Alpha  occ. eigenvalues --   -0.46461  -0.46453  -0.44708  -0.44543  -0.44395
 Alpha  occ. eigenvalues --   -0.43662  -0.42627  -0.41157  -0.40791  -0.39079
 Alpha  occ. eigenvalues --   -0.38979  -0.38510  -0.37138  -0.36491  -0.36300
 Alpha  occ. eigenvalues --   -0.31943  -0.28371  -0.27681  -0.27313  -0.27254
 Alpha  occ. eigenvalues --   -0.26446  -0.22007
 Alpha virt. eigenvalues --   -0.10993  -0.06181  -0.03288  -0.01413  -0.01212
 Alpha virt. eigenvalues --   -0.00467   0.00324   0.01375   0.01673   0.02574
 Alpha virt. eigenvalues --    0.02712   0.03491   0.03860   0.03896   0.04650

  Beta  occ. eigenvalues --  -19.11957 -19.11781 -14.34066 -10.27241 -10.27047
  Beta  occ. eigenvalues --  -10.24396 -10.21712 -10.20264 -10.20185 -10.20064
  Beta  occ. eigenvalues --  -10.19895 -10.19670 -10.19661 -10.19581 -10.19292
  Beta  occ. eigenvalues --  -10.19223 -10.19055 -10.18144  -1.05310  -1.05110
  Beta  occ. eigenvalues --   -0.95828  -0.88579  -0.86783  -0.80715  -0.77359
  Beta  occ. eigenvalues --   -0.77075  -0.76614  -0.70870  -0.68347  -0.65807
  Beta  occ. eigenvalues --   -0.64356  -0.60761  -0.58763  -0.55775  -0.55176
  Beta  occ. eigenvalues --   -0.52601  -0.49940  -0.49551  -0.48389  -0.47160
  Beta  occ. eigenvalues --   -0.46461  -0.46453  -0.44708  -0.44543  -0.44395
  Beta  occ. eigenvalues --   -0.43662  -0.42627  -0.41157  -0.40791  -0.39079
  Beta  occ. eigenvalues --   -0.38979  -0.38510  -0.37138  -0.36491  -0.36300
  Beta  occ. eigenvalues --   -0.31943  -0.28371  -0.27681  -0.27313  -0.27254
  Beta  occ. eigenvalues --   -0.26446  -0.22007
  Beta virt. eigenvalues --   -0.10993  -0.06181  -0.03288  -0.01413  -0.01212
  Beta virt. eigenvalues --   -0.00467   0.00324   0.01375   0.01673   0.02574
  Beta virt. eigenvalues --    0.02712   0.03491   0.03860   0.03896   0.04650

 Mulliken charges and spin densities:
               1          2
     1  C   -0.341750   0.000000
     2  N   -0.259720  -0.000000
     3  C    0.118274   0.000000
     4  C    0.059230   0.000000
     5  C   -0.406841  -0.000000
     6  C    0.047926   0.000000
     7  C    0.608766   0.000000
     8  C   -0.710389  -0.000000
     9  O   -0.212248   0.000000
    10  C    0.072414  -0.000000
    11  C    0.089983   0.000000
    12  C   -0.365846  -0.000000
    13  C   -0.407720   0.000000
    14  C    0.147445  -0.000000
    15  C    0.035369   0.000000
    16  C   -0.333299  -0.000000
    17  O   -0.262465  -0.000000
    18  C    0.037811  -0.000000
    19  H    0.159895  -0.000000
    20  H    0.159778  -0.000000
    21  H    0.155423   0.000000
    22  H    0.390320   0.000000
    23  H    0.156088   0.000000
    24  H    0.183852  -0.000000
    25  H    0.172629   0.000000
    26  H    0.178402   0.000000
    27  H    0.172948  -0.000000
    28  H    0.174368   0.000000
    29  H    0.179354  -0.000000
 Sum of Mulliken charges =  -0.00000   0.00000

 Dipole moment (field-independent basis, Debye):
    X=              1.9323    Y=              1.3880    Z=             -1.0964  Tot=              2.6196
 Quadrupole moment (field-independent basis, Debye-Ang):
   XX=            -78.9819   YY=           -108.3556   ZZ=           -108.5935
   XY=             -5.7845   XZ=             -0.5194   YZ=              0.9512

  Exact polarizability: 293.497 -17.296 187.039 -16.924 -53.164 128.778
 Approx polarizability: 429.101 -16.936 343.854 -27.827-112.682 223.783

                      1                      2                      3
                      A                      A                      A
 Frequencies --     40.5500                63.6122               108.3986
 Red. masses --      6.5096                 4.2451                 3.9226
 Frc consts  --      0.0063                 0.0101                 0.0272
 IR Inten    --      5.8053                 0.4524                 0.7328

                      4                      5                      6
                      A                      A                      A
 Frequencies --    126.2705               158.4625               176.1044
 Red. masses --      5.0391                 2.5610                 3.7950
 Frc consts  --      0.0473                 0.0379                 0.0693
 IR Inten    --      1.2631                 0.9556                 0.4884

                      7                      8                      9
                      A                      A                      A
 Frequencies --    179.0805               217.1708               271.8227
 Red. masses --      2.4173                 2.0457                 4.1429
 Frc consts  --      0.0457                 0.0568                 0.1804
 IR Inten    --      0.0894                 0.0137                 1.0109

                     10                     11                     12
                      A                      A                      A
 Frequencies --    272.6340               322.5140               344.2203
 Red. masses --      4.7506                 4.7209                 7.4309
 Frc consts  --      0.2080                 0.2893                 0.5188
 IR Inten    --      0.5238                 1.0187                 0.8913

                     13                     14                     15
                      A                      A                      A
 Frequencies --    375.3792               425.5317               427.1177
 Red. masses --      8.2228                12.6551                 3.4505
 Frc consts  --      0.6827                 1.3501                 0.3709
 IR Inten    --      8.5338                20.7541                 0.4224

                     16                     17                     18
                      A                      A                      A
 Frequencies --    433.4143               476.8765               481.2287
 Red. masses --      5.0017                10.7848                 6.6810
 Frc consts  --      0.5536                 1.4450                 0.9116
 IR Inten    --      0.0408                 1.6750                 1.9287

                     19                     20                     21
                      A                      A                      A
 Frequencies --    490.9096               557.4295               603.6464
 Red. masses --      3.8802                 4.1972                 5.8723
 Frc consts  --      0.5509                 0.7684                 1.2607
 IR Inten    --      2.2391                 7.1998                 3.0239

                     22                     23                     24
                      A                      A                      A
 Frequencies --    635.0920               654.4456               673.7180
 Red. masses --      5.3395                 1.1733                 3.3475
 Frc consts  --      1.2689                 0.2961                 0.8952
 IR Inten    --      0.4433                49.8420                14.7087

                     25                     26                     27
                      A                      A                      A
 Frequencies --    676.0509               706.0343               725.5548
 Red. masses --      5.8839                 6.7072                 2.5722
 Frc consts  --      1.5844                 1.9699                 0.7978
 IR Inten    --     10.4004                 1.1530                37.8160

                     28                     29                     30
                      A                      A                      A
 Frequencies --    746.3763               786.7148               793.1780
 Red. masses --      2.2396                 2.2775                 6.1599
 Frc consts  --      0.7351                 0.8305                 2.2833
 IR Inten    --     55.0830                 6.9689                 1.0024

                     31                     32                     33
                      A                      A                      A
 Frequencies --    809.1629               827.1215               871.3889
 Red. masses --      2.5348                 2.3672                 6.1180
 Frc consts  --      0.9779                 0.9542                 2.7371
 IR Inten    --      0.6463                29.2503                16.8327

                     34                     35                     36
                      A                      A                      A
 Frequencies --    909.1040               916.3543               928.9600
 Red. masses --      1.3761                 1.4291                 6.5260
 Frc consts  --      0.6701                 0.7071                 3.3181
 IR Inten    --      0.4944                 0.2669                 2.2348

                     37                     38                     39
                      A                      A                      A
 Frequencies --    997.3527              1000.0530              1001.8126
 Red. masses --      1.3226                 5.6189                 1.3811
 Frc consts  --      0.7751                 3.3109                 0.8167
 IR Inten    --      0.1042                95.2233                 2.1326

                     40                     41                     42
                      A                      A                      A
 Frequencies --   1016.1605              1056.3464              1094.4854
 Red. masses --      1.3207                 2.0657                 2.1062
 Frc consts  --      0.8035                 1.3581                 1.4865
 IR Inten    --      0.0016                 1.1844                16.0845

                     43                     44                     45
                      A                      A                      A
 Frequencies --   1111.6564              1114.3950              1144.0425
 Red. masses --      2.1139                 2.3706                 1.2767
 Frc consts  --      1.5391                 1.7345                 0.9845
 IR Inten    --      0.3153                 1.8609                 0.1672

                     46                     47                     48
                      A                      A                      A
 Frequencies --   1175.3397              1176.6572              1187.8690
 Red. masses --      1.5272                 2.2105                 1.5730
 Frc consts  --      1.2430                 1.8032                 1.3077
 IR Inten    --      0.2193                12.4190                16.0509

                     49                     50                     51
                      A                      A                      A
 Frequencies --   1202.7604              1216.0308              1262.8762
 Red. masses --      1.2841                 1.7751                 1.9967
 Frc consts  --      1.0945                 1.5465                 1.8762
 IR Inten    --     39.0531                 2.4074                44.1220

                     52                     53                     54
                      A                      A                      A
 Frequencies --   1290.8234              1317.2876              1339.9289
 Red. masses --      3.6601                 2.6344                 2.1129
 Frc consts  --      3.5931                 2.6934                 2.2351
 IR Inten    --    622.9418               114.6344               131.0936

                     55                     56                     57
                      A                      A                      A
 Frequencies --   1358.3003              1380.8085              1429.9317
 Red. masses --      7.5908                 7.9793                 2.6187
 Frc consts  --      8.2514                 8.9636                 3.1548
 IR Inten    --     16.1592                17.4025                47.5617

                     58                     59                     60
                      A                      A                      A
 Frequencies --   1462.7055              1480.4326              1489.4210
 Red. masses --      1.3664                 2.3773                 1.0399
 Frc consts  --      1.7224                 3.0699                 1.3592
 IR Inten    --     11.4671                 3.4483                 9.2655

                     61                     62                     63
                      A                      A                      A
 Frequencies --   1493.9842              1507.2991              1517.0265
 Red. masses --      2.3514                 2.4917                 1.1194
 Frc consts  --      3.0922                 3.3354                 1.5178
 IR Inten    --      1.8364                 1.1516                 9.5583

                     64                     65                     66
                      A                      A                      A
 Frequencies --   1555.7348              1610.6873              1612.1839
 Red. masses --      3.0600                 4.9930                 3.8182
 Frc consts  --      4.3636                 7.6319                 5.8471
 IR Inten    --    172.8142                44.8065                71.0436

                     67                     68                     69
                      A                      A                      A
 Frequencies --   1626.7437              1632.0308              1669.2560
 Red. masses --      4.9550                 5.0716                 8.4265
 Frc consts  --      7.7256                 7.9588                13.8339
 IR Inten    --     31.4029               242.7806               228.7826

                     70                     71                     72
                      A                      A                      A
 Frequencies --   1719.8667              2997.6480              3039.3155
 Red. masses --     12.0952                 1.0387                 1.1040
 Frc consts  --     21.0791                 5.4995                 6.0087
 IR Inten    --    174.8615               105.4849                34.8407

                     73                     74                     75
                      A                      A                      A
 Frequencies --   3121.8392              3168.4989              3170.6438
 Red. masses --      1.0962                 1.0870                 1.0887
 Frc consts  --      6.2944                 6.4294                 6.4482
 IR Inten    --     14.7324                 3.6127                11.8523

                     76                     77                     78
                      A                      A                      A
 Frequencies --   3183.3742              3200.6465              3203.9627
 Red. masses --      1.0921                 1.0931                 1.0911
 Frc consts  --      6.5207                 6.5974                 6.5990
 IR Inten    --     13.8746                 3.7662                 8.7220

                     79                     80                     81
                      A                      A                      A
 Frequencies --   3204.8782              3211.6818              3485.6770
 Red. masses --      1.0936                 1.0930                 1.0796
 Frc consts  --      6.6182                 6.6423                 7.7281
 IR Inten    --      8.4530                 3.8411                95.2444

 - Thermochemistry -
 -------------------
 Temperature   298.150 Kelvin.  Pressure   1.00000 Atm.
 Atom     1 has atomic number  6 and mass  12.00000

 Molecular mass:   237.07898 amu.
 Principal axes and moments of inertia in atomic units:
                           1         2         3
     Eigenvalues --  2277.874085418.539727685.04484
           X            0.99312  -0.00797   0.11686
           Y           -0.05327   0.85782   0.51118
           Z           -0.10431  -0.51389   0.85149
 This molecule is an asymmetric top.
 Rotational symmetry number  1.
 Warning -- assumption of classical behavior for rotation
           may cause significant error
 Rotational temperatures (Kelvin)      0.03802     0.01598     0.01127
 Rotational constants (GHZ):           0.79229     0.33307     0.23484
 Zero-point vibrational energy     588874.2 (Joules/Mol)
                                  140.74432 (Kcal/Mol)
 Warning -- explicit consideration of  21 degrees of freedom as
           vibrations may cause significant error
 Vibrational temperatures:     58.34    91.52   155.96   181.68   227.99
          (Kelvin)            253.38   257.66   312.46   391.09   392.26
                              464.03   495.26   540.09   612.25   614.53
                              623.59   686.12   692.38   706.31   802.02
                              868.51   913.76   941.60   969.33   972.69
                             1015.83  1043.91  1073.87  1131.91  1141.21
                             1164.20  1190.04  1253.73  1308.00  1318.43
                             1336.57  1434.97  1438.85  1441.38  1462.03
                             1519.85  1574.72  1599.43  1603.37  1646.02
                             1691.05  1692.95  1709.08  1730.50  1749.60
                             1817.00  1857.21  1895.28  1927.86  1954.29
                             1986.68  2057.35  2104.51  2130.01  2142.94
                             2149.51  2168.67  2182.66  2238.36  2317.42
                             2319.57  2340.52  2348.13  2401.69  2474.50
                             4312.95  4372.90  4491.63  4558.76  4561.85
                             4580.17  4605.02  4609.79  4611.10  4620.89
                             5015.11

 Zero-point correction=                           0.224290 (Hartree/Particle)
 Thermal correction to Energy=                    0.238277
 Thermal correction to Enthalpy=                  0.239221
 Thermal correction to Gibbs Free Energy=         0.183381
 Sum of electronic and zero-point Energies=           -783.429536
 Sum of electronic and thermal Energies=              -783.415550
 Sum of electronic and thermal Enthalpies=            -783.414606
 Sum of electronic and thermal Free Energies=         -783.470446

                     E (Thermal)             CV                S
                      KCal/Mol        Cal/Mol-Kelvin    Cal/Mol-Kelvin
 Total                  149.521             55.823            117.525
 Electronic               0.000              0.000              0.000
 Translational            0.889              2.981             42.291
 Rotational               0.889              2.981             32.917
 Vibrational            147.744             49.862             42.317
 Vibration     1          0.594              1.981              5.232
 Vibration     2          0.597              1.972              4.342
 Vibration     3          0.606              1.943              3.297
 Vibration     4          0.611              1.927              3.002
 Vibration     5          0.621              1.893              2.568
 Vibration     6          0.628              1.872              2.369
 Vibration     7          0.629              1.868              2.338
 Vibration     8          0.646              1.815              1.983
 Vibration     9          0.675              1.725              1.585
 Vibration    10          0.676              1.724              1.579
 Vibration    11          0.708              1.630              1.297
 Vibration    12          0.723              1.587              1.193
 Vibration    13          0.746              1.523              1.058
 Vibration    14          0.787              1.415              0.873
 Vibration    15          0.789              1.411              0.868
 Vibration    16          0.794              1.397              0.848
 Vibration    17          0.833              1.301              0.719
 Vibration    18          0.838              1.292              0.707
 Vibration    19          0.847              1.270              0.681
 Vibration    20          0.913              1.123              0.529
 Vibration    21          0.962              1.024              0.443

                           ! Non-Optimized Parameters !
 Normal termination of Gaussian 16 at Thu Dec 21 07:25:42 2023.
