 Gaussian 16, Revision A.03,
 Gaussian 16:  ES64L-G16RevA.03 25-Dec-2016

 ----------------------------------------------------------------
 #P UB3LYP/6-311++G(d,p) SCRF=(PCM,Solvent=n,n-DiMethylFormamide)
 ----------------------------------------------------------------

 ------------------
 Radical PCM in DMF
 ------------------
 Symbolic Z-matrix:
 Charge = -1 Multiplicity = 2

                         Standard orientation:
 ---------------------------------------------------------------------
 Center     Atomic      Atomic             Coordinates (Angstroms)
 Number     Number       Type             X           Y           Z
 ---------------------------------------------------------------------
      1          7           0        2.753010   -2.207505   -0.125479
      2          6           0        2.493016   -0.850344   -0.029010
      3          6           0        3.551611    0.059627    0.017287
      4          6           0        3.314426    1.440924    0.045190
      5          6           0        2.023831    1.931189    0.022685
      6          6           0        0.924903    1.048247   -0.007718
      7          6           0       -0.420397    1.632791   -0.012832
      8          8           0       -0.603068    2.876108   -0.015287
      9          6           0       -1.539807    0.694051   -0.010932
     10          6           0       -2.863069    1.188225   -0.017056
     11          6           0       -3.945701    0.332109   -0.006618
     12          6           0       -3.737078   -1.065164    0.011671
     13          6           0       -2.451914   -1.569577    0.019074
     14          6           0       -1.328879   -0.712234    0.006239
     15          6           0        0.012393   -1.294899    0.010991
     16          8           0        0.151861   -2.557514    0.052504
     17          6           0        1.138115   -0.368787   -0.021027
     18          1           0        3.638639   -2.518147    0.241995
     19          1           0        1.928596   -2.788905    0.037299
     20          1           0        4.569681   -0.321455    0.010637
     21          1           0        4.157807    2.125183    0.077401
     22          1           0        1.813402    2.993014    0.034008
     23          1           0       -2.990770    2.264576   -0.028946
     24          1           0       -4.956407    0.729883   -0.012129
     25          1           0       -4.587520   -1.740733    0.019514
     26          1           0       -2.263535   -2.636590    0.033187
 ---------------------------------------------------------------------

 SCF Done:  E(UB3LYP) =  -744.475816835     A.U. after   19 cycles

 The electronic state is 2-A.
 Alpha  occ. eigenvalues --  -19.07787 -19.07257 -14.30374 -10.22713 -10.22058
 Alpha  occ. eigenvalues --  -10.21541 -10.17225 -10.17224 -10.17167 -10.17146
 Alpha  occ. eigenvalues --  -10.17046 -10.17032 -10.17003 -10.16898 -10.16879
 Alpha  occ. eigenvalues --  -10.16120 -10.15607  -1.00398  -0.99913  -0.91158
 Alpha  occ. eigenvalues --   -0.85717  -0.83525  -0.78177  -0.74976  -0.73708
 Alpha  occ. eigenvalues --   -0.72765  -0.66406  -0.63539  -0.61975  -0.58267
 Alpha  occ. eigenvalues --   -0.55689  -0.54298  -0.52538  -0.49674  -0.47471
 Alpha  occ. eigenvalues --   -0.47066  -0.45646  -0.44410  -0.43668  -0.42311
 Alpha  occ. eigenvalues --   -0.42249  -0.41176  -0.40589  -0.39505  -0.38280
 Alpha  occ. eigenvalues --   -0.37382  -0.37146  -0.35561  -0.34451  -0.34363
 Alpha  occ. eigenvalues --   -0.33481  -0.30831  -0.26690  -0.25611  -0.24722
 Alpha  occ. eigenvalues --   -0.24682  -0.23626  -0.21126  -0.13849
 Alpha virt. eigenvalues --   -0.04777  -0.02016  -0.00271   0.00429   0.00521
 Alpha virt. eigenvalues --    0.01097   0.02112   0.02230   0.04027   0.04373
 Alpha virt. eigenvalues --    0.04453   0.04472   0.05272   0.05914   0.06493

  Beta  occ. eigenvalues --  -19.07292 -19.06719 -14.30355 -10.22524 -10.21871
  Beta  occ. eigenvalues --  -10.21545 -10.17211 -10.17182 -10.17113 -10.17062
  Beta  occ. eigenvalues --  -10.16966 -10.16966 -10.16962 -10.16901 -10.16868
  Beta  occ. eigenvalues --  -10.16016 -10.15563  -0.99533  -0.98957  -0.91077
  Beta  occ. eigenvalues --   -0.85485  -0.83365  -0.77793  -0.74757  -0.73525
  Beta  occ. eigenvalues --   -0.72534  -0.65691  -0.63360  -0.61733  -0.58192
  Beta  occ. eigenvalues --   -0.55470  -0.54080  -0.52398  -0.49587  -0.47244
  Beta  occ. eigenvalues --   -0.46811  -0.45554  -0.44311  -0.43550  -0.42245
  Beta  occ. eigenvalues --   -0.41132  -0.40790  -0.40305  -0.39267  -0.37393
  Beta  occ. eigenvalues --   -0.37025  -0.35723  -0.35475  -0.34297  -0.33440
  Beta  occ. eigenvalues --   -0.33206  -0.30204  -0.24936  -0.24748  -0.24240
  Beta  occ. eigenvalues --   -0.24204  -0.23142  -0.20342
  Beta virt. eigenvalues --   -0.08189  -0.03790  -0.00996  -0.00255   0.00449
  Beta virt. eigenvalues --    0.00810   0.01108   0.02125   0.02231   0.04049
  Beta virt. eigenvalues --    0.04385   0.04477   0.04562   0.05844   0.06262

 Mulliken charges and spin densities:
               1          2
     1  N   -0.416422   0.008527
     2  C    0.174331   0.020002
     3  C   -0.245359   0.089361
     4  C   -0.436611   0.031728
     5  C   -0.046322   0.062256
     6  C    0.467165   0.042269
     7  C   -0.521103   0.105291
     8  O   -0.463988   0.201370
     9  C    0.023683   0.020277
    10  C    0.084657   0.032329
    11  C   -0.438434   0.030171
    12  C   -0.489447   0.043982
    13  C    0.166693   0.026249
    14  C    0.081043   0.033716
    15  C   -0.429250   0.100894
    16  O   -0.459316   0.181314
    17  C    0.191838  -0.004939
    18  H    0.263176  -0.000643
    19  H    0.309568  -0.002701
    20  H    0.161572  -0.006376
    21  H    0.182124  -0.002467
    22  H    0.152819  -0.003864
    23  H    0.160906  -0.001914
    24  H    0.179480  -0.002631
    25  H    0.179105  -0.003585
    26  H    0.168092  -0.000617
 Sum of Mulliken charges =  -1.00000   1.00000

 Dipole moment (field-independent basis, Debye):
    X=              1.4395    Y=             -2.6500    Z=              0.8749  Tot=              3.1400
 Quadrupole moment (field-independent basis, Debye-Ang):
   XX=            -95.0425   YY=           -131.0650   ZZ=           -107.3733
   XY=              1.2933   XZ=              3.1352   YZ=             -2.0747

 Normal termination of Gaussian 16 at Sun Jan 14 01:15:16 2024.
