 Gaussian 16, Revision A.03,
 Gaussian 16:  ES64L-G16RevA.03 25-Dec-2016

 --------------------------------------
 #P UB3LYP/6-311++G(d,p) nosym opt freq
 --------------------------------------

 -------
 Radical
 -------
 Symbolic Z-matrix:
 Charge = -1 Multiplicity = 2

 SCF Done:  E(UB3LYP) =  -744.399361968     A.U. after   23 cycles
 SCF Done:  E(UB3LYP) =  -744.399362033     A.U. after   10 cycles
 Optimization completed.
    -- Stationary point found.
 Normal termination of Gaussian 16 at Wed Dec 27 19:56:19 2023.

 ----------------------------------------------------------------------
 #P Geom=AllCheck Guess=TCheck SCRF=Check GenChk UB3LYP/6-311++G(d,p) F
 req
 ----------------------------------------------------------------------

 Structure from the checkpoint file:  "150-rad.chk"
 -------
 Radical
 -------
 Charge = -1 Multiplicity = 2

                          Input orientation:
 ---------------------------------------------------------------------
 Center     Atomic      Atomic             Coordinates (Angstroms)
 Number     Number       Type             X           Y           Z
 ---------------------------------------------------------------------
      1          7           0       -2.921517    1.881009    0.110382
      2          6           0       -2.529102    0.553169    0.069867
      3          6           0       -3.493203   -0.457035    0.041377
      4          6           0       -3.122742   -1.804440   -0.069417
      5          6           0       -1.791601   -2.160516   -0.157596
      6          6           0       -0.784380   -1.174631   -0.116493
      7          6           0        0.610732   -1.620361   -0.197354
      8          8           0        0.912876   -2.833562   -0.324092
      9          6           0        1.633681   -0.580294   -0.118922
     10          6           0        2.998087   -0.938593   -0.191633
     11          6           0        3.992644    0.015188   -0.112292
     12          6           0        3.650132    1.376794    0.045639
     13          6           0        2.322672    1.748871    0.120101
     14          6           0        1.287977    0.790119    0.038811
     15          6           0       -0.102954    1.234420    0.119072
     16          8           0       -0.363069    2.467244    0.285973
     17          6           0       -1.134108    0.209133    0.011994
     18          1           0       -3.824270    2.065974    0.518670
     19          1           0       -2.153733    2.522568    0.317961
     20          1           0       -4.543277   -0.179406    0.086099
     21          1           0       -3.894893   -2.568493   -0.092778
     22          1           0       -1.479097   -3.192541   -0.253229
     23          1           0        3.229141   -1.990938   -0.310649
     24          1           0        5.036725   -0.278531   -0.170649
     25          1           0        4.431083    2.129087    0.107909
     26          1           0        2.032198    2.785766    0.241250
 ---------------------------------------------------------------------

 SCF Done:  E(UB3LYP) =  -744.399362033     A.U. after    1 cycles

 Alpha  occ. eigenvalues --  -18.94988 -18.94219 -14.18874 -10.10005 -10.09613
 Alpha  occ. eigenvalues --  -10.09206 -10.05686 -10.05637 -10.05336 -10.04992
 Alpha  occ. eigenvalues --  -10.04948 -10.04927 -10.04817 -10.04679 -10.04655
 Alpha  occ. eigenvalues --  -10.04550 -10.03512  -0.87547  -0.86776  -0.79475
 Alpha  occ. eigenvalues --   -0.73579  -0.71487  -0.66120  -0.62896  -0.61750
 Alpha  occ. eigenvalues --   -0.60704  -0.54150  -0.51640  -0.50023  -0.46412
 Alpha  occ. eigenvalues --   -0.43551  -0.42562  -0.40618  -0.38088  -0.35569
 Alpha  occ. eigenvalues --   -0.34953  -0.33877  -0.32582  -0.31750  -0.30298
 Alpha  occ. eigenvalues --   -0.29612  -0.28702  -0.27906  -0.27304  -0.25755
 Alpha  occ. eigenvalues --   -0.25610  -0.24765  -0.23602  -0.22504  -0.22133
 Alpha  occ. eigenvalues --   -0.21305  -0.18698  -0.14186  -0.13412  -0.12629
 Alpha  occ. eigenvalues --   -0.11831  -0.10615  -0.08994  -0.01226
 Alpha virt. eigenvalues --    0.07432   0.08083   0.08371   0.09559   0.09891
 Alpha virt. eigenvalues --    0.10308   0.11327   0.12301   0.12624   0.13011
 Alpha virt. eigenvalues --    0.14621   0.15408   0.15487   0.16144   0.16796

  Beta  occ. eigenvalues --  -18.94455 -18.93625 -14.18860 -10.09829 -10.09620
  Beta  occ. eigenvalues --  -10.09075 -10.05634 -10.05584 -10.05282 -10.05002
  Beta  occ. eigenvalues --  -10.04959 -10.04908 -10.04727 -10.04583 -10.04548
  Beta  occ. eigenvalues --  -10.04460 -10.03500  -0.86637  -0.85748  -0.79397
  Beta  occ. eigenvalues --   -0.73354  -0.71325  -0.65722  -0.62703  -0.61552
  Beta  occ. eigenvalues --   -0.60500  -0.53442  -0.51475  -0.49777  -0.46346
  Beta  occ. eigenvalues --   -0.43354  -0.42356  -0.40490  -0.38004  -0.35390
  Beta  occ. eigenvalues --   -0.34675  -0.33769  -0.32488  -0.31645  -0.30267
  Beta  occ. eigenvalues --   -0.28566  -0.28531  -0.27406  -0.27031  -0.25463
  Beta  occ. eigenvalues --   -0.25250  -0.23521  -0.22747  -0.22354  -0.21224
  Beta  occ. eigenvalues --   -0.20944  -0.18069  -0.12781  -0.12099  -0.11922
  Beta  occ. eigenvalues --   -0.11341  -0.10067  -0.08294
  Beta virt. eigenvalues --    0.04529   0.08054   0.08328   0.08363   0.09577
  Beta virt. eigenvalues --    0.10298   0.10925   0.11328   0.12393   0.12764
  Beta virt. eigenvalues --    0.13007   0.14618   0.15451   0.15505   0.16243

 Mulliken charges and spin densities:
               1          2
     1  N   -0.373498   0.005808
     2  C    0.185470   0.020251
     3  C   -0.212484   0.079061
     4  C   -0.404835   0.046824
     5  C   -0.042973   0.035827
     6  C    0.542388   0.065300
     7  C   -0.698262   0.064634
     8  O   -0.363827   0.222762
     9  C    0.084302   0.040264
    10  C    0.078065   0.015669
    11  C   -0.370254   0.040622
    12  C   -0.454453   0.041343
    13  C    0.174906   0.023910
    14  C    0.150587   0.037289
    15  C   -0.546619   0.087467
    16  O   -0.384339   0.196994
    17  C    0.206777   0.000684
    18  H    0.210583  -0.000853
    19  H    0.298241  -0.003066
    20  H    0.094852  -0.005882
    21  H    0.125494  -0.003446
    22  H    0.147478  -0.002554
    23  H    0.153096  -0.001300
    24  H    0.121230  -0.003452
    25  H    0.120489  -0.003541
    26  H    0.157588  -0.000613
 Sum of Mulliken charges =  -1.00000   1.00000

 Dipole moment (field-independent basis, Debye):
    X=             -1.3742    Y=              1.8376    Z=              0.9313  Tot=              2.4764
 Quadrupole moment (field-independent basis, Debye-Ang):
   XX=           -112.2378   YY=           -129.5243   ZZ=           -107.2180
   XY=              2.3857   XZ=             -2.3196   YZ=             -0.7227

  Exact polarizability: 330.758  16.316 233.109  -4.573  12.043  99.808
 Approx polarizability: 497.543  10.563 442.114  -8.252  26.165 158.949

                      1                      2                      3
                      A                      A                      A
 Frequencies --     54.3654                86.8126               135.6989
 Red. masses --      6.7884                 5.0382                 5.0700
 Frc consts  --      0.0118                 0.0224                 0.0550
 IR Inten    --      5.9967                 0.1611                 0.0034

                      4                      5                      6
                      A                      A                      A
 Frequencies --    168.6097               207.5439               223.6838
 Red. masses --      7.4858                 4.3552                 4.9078
 Frc consts  --      0.1254                 0.1105                 0.1447
 IR Inten    --      1.4341                 1.1120                 5.6217

                      7                      8                      9
                      A                      A                      A
 Frequencies --    261.2149               322.9518               351.3295
 Red. masses --      3.8650                 6.1089                 6.3214
 Frc consts  --      0.1554                 0.3754                 0.4597
 IR Inten    --     12.4756                 5.2630                 1.7456

                     10                     11                     12
                      A                      A                      A
 Frequencies --    380.1834               396.4272               416.2423
 Red. masses --      2.5669                 2.4478                 6.1182
 Frc consts  --      0.2186                 0.2267                 0.6246
 IR Inten    --     63.9563                67.8457                 6.3691

                     13                     14                     15
                      A                      A                      A
 Frequencies --    422.9999               441.2115               454.4307
 Red. masses --      5.2930                 3.2902                 4.1564
 Frc consts  --      0.5580                 0.3774                 0.5057
 IR Inten    --     32.1283                10.7523                13.9561

                     16                     17                     18
                      A                      A                      A
 Frequencies --    497.6933               498.3941               559.2215
 Red. masses --      5.9450                 4.7765                 5.5398
 Frc consts  --      0.8676                 0.6990                 1.0207
 IR Inten    --      5.3041                 0.8616                 2.4152

                     19                     20                     21
                      A                      A                      A
 Frequencies --    564.9919               610.5452               646.5660
 Red. masses --      4.1521                 6.3258                 4.0400
 Frc consts  --      0.7809                 1.3893                 0.9951
 IR Inten    --     11.2573                19.5607                 8.0330

                     22                     23                     24
                      A                      A                      A
 Frequencies --    665.4582               698.1132               708.1080
 Red. masses --      6.3795                 6.5621                 2.1502
 Frc consts  --      1.6645                 1.8843                 0.6352
 IR Inten    --      5.2268                 1.1588                56.4611

                     25                     26                     27
                      A                      A                      A
 Frequencies --    715.3350               751.4347               767.9764
 Red. masses --      1.6015                 1.4755                 2.1905
 Frc consts  --      0.4828                 0.4909                 0.7612
 IR Inten    --     76.3847                68.0285                12.0130

                     28                     29                     30
                      A                      A                      A
 Frequencies --    784.8793               800.0494               816.0035
 Red. masses --      2.0620                 5.3540                 4.5254
 Frc consts  --      0.7484                 2.0191                 1.7754
 IR Inten    --     22.0000                 1.9629                11.9928

                     31                     32                     33
                      A                      A                      A
 Frequencies --    853.2029               866.6431               883.1001
 Red. masses --      1.4751                 1.5434                 6.7139
 Frc consts  --      0.6327                 0.6830                 3.0849
 IR Inten    --      1.0216                 0.1277                26.6166

                     34                     35                     36
                      A                      A                      A
 Frequencies --    933.1295               958.8967               980.9011
 Red. masses --      6.4127                 1.2790                 1.3219
 Frc consts  --      3.2898                 0.6929                 0.7494
 IR Inten    --      1.5651                 0.8794                 1.6625

                     37                     38                     39
                      A                      A                      A
 Frequencies --    981.5201              1019.1260              1040.8482
 Red. masses --      1.2975                 3.6864                 1.9899
 Frc consts  --      0.7365                 2.2559                 1.2702
 IR Inten    --      1.1509                16.1324                19.6483

                     40                     41                     42
                      A                      A                      A
 Frequencies --   1072.9390              1109.7884              1144.7661
 Red. masses --      2.1571                 2.1267                 1.3784
 Frc consts  --      1.4631                 1.5432                 1.0643
 IR Inten    --     28.8293                16.2690                27.4083

                     43                     44                     45
                      A                      A                      A
 Frequencies --   1153.9865              1174.1741              1183.2599
 Red. masses --      1.4513                 1.3529                 2.2598
 Frc consts  --      1.1387                 1.0990                 1.8641
 IR Inten    --     34.9903                12.3068                 9.2180

                     46                     47                     48
                      A                      A                      A
 Frequencies --   1208.2099              1233.7256              1254.7692
 Red. masses --      1.9923                 2.8752                 2.0934
 Frc consts  --      1.7136                 2.5784                 1.9420
 IR Inten    --      8.0670                30.8118                77.1366

                     49                     50                     51
                      A                      A                      A
 Frequencies --   1309.3433              1353.4231              1362.0993
 Red. masses --      2.8558                 5.6362                 4.5496
 Frc consts  --      2.8845                 6.0828                 4.9733
 IR Inten    --      3.2934                 3.4563                 6.1708

                     52                     53                     54
                      A                      A                      A
 Frequencies --   1366.8316              1417.8656              1449.5079
 Red. masses --      4.9938                 2.6705                 2.6793
 Frc consts  --      5.4968                 3.1631                 3.3168
 IR Inten    --     12.7860               323.9564                40.4778

                     55                     56                     57
                      A                      A                      A
 Frequencies --   1479.5038              1482.9286              1511.7266
 Red. masses --      2.9437                 3.1278                 3.8303
 Frc consts  --      3.7965                 4.0525                 5.1574
 IR Inten    --      6.0689                27.2322               106.6597

                     58                     59                     60
                      A                      A                      A
 Frequencies --   1532.7452              1561.3308              1604.1712
 Red. masses --      6.1466                 4.1245                 2.4551
 Frc consts  --      8.5080                 5.9240                 3.7223
 IR Inten    --    542.1433               127.1088                53.3841

                     61                     62                     63
                      A                      A                      A
 Frequencies --   1609.4738              1620.9034              1625.2280
 Red. masses --      2.2871                 6.0994                 6.4460
 Frc consts  --      3.4906                 9.4417                10.0316
 IR Inten    --    167.5757                42.2866                 0.8361

                     64                     65                     66
                      A                      A                      A
 Frequencies --   3124.6977              3132.7917              3146.2623
 Red. masses --      1.0850                 1.0846                 1.0923
 Frc consts  --      6.2415                 6.2719                 6.3704
 IR Inten    --     32.3556                18.5095                66.5464

                     67                     68                     69
                      A                      A                      A
 Frequencies --   3152.1459              3182.9778              3187.0643
 Red. masses --      1.0913                 1.0916                 1.0922
 Frc consts  --      6.3885                 6.5161                 6.5365
 IR Inten    --     52.3425                15.2258                26.3209

                     70                     71                     72
                      A                      A                      A
 Frequencies --   3195.2904              3363.1464              3639.3480
 Red. masses --      1.0915                 1.0625                 1.0865
 Frc consts  --      6.5661                 7.0806                 8.4786
 IR Inten    --     12.6819               126.2558                17.7814

 - Thermochemistry -
 -------------------
 Temperature   298.150 Kelvin.  Pressure   1.00000 Atm.
 Atom     1 has atomic number  7 and mass  14.00307

 Molecular mass:   223.06333 amu.
 Principal axes and moments of inertia in atomic units:
                           1         2         3
     Eigenvalues --  2027.867074432.250636457.25165
           X            0.99530  -0.09423   0.02210
           Y            0.09592   0.99083  -0.09511
           Z           -0.01293   0.09678   0.99522
 This molecule is an asymmetric top.
 Rotational symmetry number  1.
 Warning -- assumption of classical behavior for rotation
           may cause significant error
 Rotational temperatures (Kelvin)      0.04271     0.01954     0.01341
 Rotational constants (GHZ):           0.88997     0.40718     0.27949
 Zero-point vibrational energy     507648.9 (Joules/Mol)
                                  121.33100 (Kcal/Mol)
 Warning -- explicit consideration of  20 degrees of freedom as
           vibrations may cause significant error
 Vibrational temperatures:     78.22   124.90   195.24   242.59   298.61
          (Kelvin)            321.83   375.83   464.66   505.48   547.00
                              570.37   598.88   608.60   634.80   653.82
                              716.07   717.08   804.59   812.90   878.44
                              930.26   957.45  1004.43  1018.81  1029.21
                             1081.15  1104.95  1129.27  1151.09  1174.05
                             1227.57  1246.91  1270.58  1342.57  1379.64
                             1411.30  1412.19  1466.29  1497.55  1543.72
                             1596.74  1647.06  1660.33  1689.37  1702.45
                             1738.34  1775.06  1805.33  1883.85  1947.27
                             1959.76  1966.57  2039.99  2085.52  2128.68
                             2133.60  2175.04  2205.28  2246.41  2308.04
                             2315.67  2332.12  2338.34  4495.74  4507.39
                             4526.77  4535.23  4579.60  4585.47  4597.31
                             4838.82  5236.21

 Zero-point correction=                           0.193353 (Hartree/Particle)
 Thermal correction to Energy=                    0.205761
 Thermal correction to Enthalpy=                  0.206705
 Thermal correction to Gibbs Free Energy=         0.154269
 Sum of electronic and zero-point Energies=           -744.206009
 Sum of electronic and thermal Energies=              -744.193601
 Sum of electronic and thermal Enthalpies=            -744.192657
 Sum of electronic and thermal Free Energies=         -744.245093

                     E (Thermal)             CV                S
                      KCal/Mol        Cal/Mol-Kelvin    Cal/Mol-Kelvin
 Total                  129.117             51.575            110.360
 Electronic               0.000              0.000              1.377
 Translational            0.889              2.981             42.109
 Rotational               0.889              2.981             32.429
 Vibrational            127.339             45.614             34.445
 Vibration     1          0.596              1.976              4.652
 Vibration     2          0.601              1.958              3.731
 Vibration     3          0.614              1.918              2.864
 Vibration     4          0.625              1.881              2.451
 Vibration     5          0.641              1.829              2.065
 Vibration     6          0.649              1.805              1.929
 Vibration     7          0.669              1.744              1.654
 Vibration     8          0.708              1.630              1.295
 Vibration     9          0.728              1.573              1.160
 Vibration    10          0.750              1.512              1.038
 Vibration    11          0.763              1.478              0.976
 Vibration    12          0.779              1.435              0.905
 Vibration    13          0.785              1.420              0.882
 Vibration    14          0.801              1.380              0.823
 Vibration    15          0.813              1.351              0.782
 Vibration    16          0.853              1.255              0.664
 Vibration    17          0.854              1.254              0.662
 Vibration    18          0.915              1.120              0.525
 Vibration    19          0.921              1.107              0.514
 Vibration    20          0.970              1.010              0.432

 Optimization completed.
    -- Stationary point found.
 Normal termination of Gaussian 16 at Wed Dec 27 20:50:22 2023.
