 Gaussian 16, Revision A.03,
 Gaussian 16:  ES64L-G16RevA.03 25-Dec-2016

 --------------------------------------
 #P UB3LYP/6-311++G(d,p) nosym opt freq
 --------------------------------------

 --------
 Oxidized
 --------
 Symbolic Z-matrix:
 Charge =  0 Multiplicity = 1

 SCF Done:  E(UB3LYP) =  -1389.21602136     A.U. after   23 cycles
 SCF Done:  E(UB3LYP) =  -1389.22777949     A.U. after   16 cycles
 SCF Done:  E(UB3LYP) =  -1389.22801556     A.U. after   18 cycles
 SCF Done:  E(UB3LYP) =  -1389.22897011     A.U. after   16 cycles
 SCF Done:  E(UB3LYP) =  -1389.22957624     A.U. after   15 cycles
 SCF Done:  E(UB3LYP) =  -1389.22959822     A.U. after   15 cycles
 SCF Done:  E(UB3LYP) =  -1389.22964008     A.U. after   15 cycles
 SCF Done:  E(UB3LYP) =  -1389.22965798     A.U. after   12 cycles
 SCF Done:  E(UB3LYP) =  -1389.22966486     A.U. after   14 cycles
 SCF Done:  E(UB3LYP) =  -1389.22966872     A.U. after   14 cycles
 SCF Done:  E(UB3LYP) =  -1389.22967032     A.U. after   12 cycles
 SCF Done:  E(UB3LYP) =  -1389.22967066     A.U. after   12 cycles
 Optimization completed.
    -- Stationary point found.
 Normal termination of Gaussian 16 at Wed Dec 20 03:40:41 2023.

 ----------------------------------------------------------------------
 #P Geom=AllCheck Guess=TCheck SCRF=Check GenChk UB3LYP/6-311++G(d,p) F
 req
 ----------------------------------------------------------------------

 Structure from the checkpoint file:  "097.chk"
 --------
 Oxidized
 --------
 Charge =  0 Multiplicity = 1

                          Input orientation:
 ---------------------------------------------------------------------
 Center     Atomic      Atomic             Coordinates (Angstroms)
 Number     Number       Type             X           Y           Z
 ---------------------------------------------------------------------
      1          6           0        1.205153    4.260612    5.324393
      2          6           0        1.552670    4.015572    3.909376
      3          6           0        1.077199    2.951522    3.254646
      4          6           0        0.174783    1.971119    3.905069
      5          6           0       -0.129163    2.174778    5.356502
      6          6           0        0.350591    3.234000    6.030699
      7          8           0        1.578475    5.257500    5.909350
      8          8           0       -0.308755    1.056785    3.265949
      9          1           0        2.197317    4.754133    3.446570
     10          1           0        1.302556    2.751700    2.213089
     11         16           0       -1.121251    0.871657    6.196396
     12          6           0        0.202309    3.512303    7.511720
     13          8           0        1.042665    3.177230    8.300776
     14          8           0       -0.880577    4.244828    7.765071
     15          6           0       -1.094594    4.578267    9.156015
     16          1           0       -1.987793    5.197784    9.167994
     17          1           0       -0.237040    5.126052    9.546394
     18          1           0       -1.246348    3.664409    9.730526
     19          6           0       -2.705808    0.876435    5.346395
     20          6           0       -2.957822   -0.083758    4.369928
     21          6           0       -3.661839    1.819414    5.722781
     22          6           0       -4.205657   -0.093071    3.752192
     23          6           0       -4.900941    1.803871    5.087897
     24          6           0       -5.171106    0.849074    4.107237
     25          8           0       -0.447562   -0.402306    5.962105
     26          8           0       -1.350906    1.366996    7.556389
     27          1           0       -2.189868   -0.798538    4.107323
     28          1           0       -3.441779    2.536087    6.504137
     29          1           0       -4.422626   -0.836406    2.994203
     30          1           0       -5.657284    2.527798    5.367506
     31          1           0       -6.139577    0.837383    3.620132
 ---------------------------------------------------------------------

 SCF Done:  E(UB3LYP) =  -1389.22967066     A.U. after    2 cycles

 Alpha  occ. eigenvalues --  -89.07135 -19.18964 -19.16551 -19.16266 -19.13370
 Alpha  occ. eigenvalues --  -19.13228 -19.13218 -10.33158 -10.31406 -10.31383
 Alpha  occ. eigenvalues --  -10.26184 -10.26105 -10.23883 -10.23772 -10.23607
 Alpha  occ. eigenvalues --  -10.22996 -10.21272 -10.20910 -10.20769 -10.20536
 Alpha  occ. eigenvalues --  -10.20381  -8.13477  -6.09715  -6.09690  -6.09592
 Alpha  occ. eigenvalues --   -1.13472  -1.12852  -1.09754  -1.09520  -1.04762
 Alpha  occ. eigenvalues --   -1.02535  -0.89824  -0.89428  -0.83749  -0.79957
 Alpha  occ. eigenvalues --   -0.78169  -0.76613  -0.73534  -0.70773  -0.67093
 Alpha  occ. eigenvalues --   -0.64925  -0.64079  -0.60674  -0.59314  -0.56405
 Alpha  occ. eigenvalues --   -0.56040  -0.54898  -0.52907  -0.51748  -0.50396
 Alpha  occ. eigenvalues --   -0.49943  -0.49479  -0.48871  -0.48171  -0.47506
 Alpha  occ. eigenvalues --   -0.47235  -0.46422  -0.45697  -0.45564  -0.45291
 Alpha  occ. eigenvalues --   -0.44400  -0.43543  -0.41096  -0.40346  -0.39813
 Alpha  occ. eigenvalues --   -0.38193  -0.37947  -0.35774  -0.35349  -0.33916
 Alpha  occ. eigenvalues --   -0.33466  -0.33210  -0.32439  -0.32043  -0.31407
 Alpha  occ. eigenvalues --   -0.30796  -0.29439  -0.28733  -0.28412
 Alpha virt. eigenvalues --   -0.16004  -0.07618  -0.05332  -0.04081  -0.03092
 Alpha virt. eigenvalues --   -0.01903  -0.01600  -0.00869  -0.00325   0.00807
 Alpha virt. eigenvalues --    0.01149   0.01570   0.02064   0.02887   0.03337

  Beta  occ. eigenvalues --  -89.07135 -19.18964 -19.16551 -19.16266 -19.13370
  Beta  occ. eigenvalues --  -19.13228 -19.13218 -10.33158 -10.31406 -10.31383
  Beta  occ. eigenvalues --  -10.26184 -10.26105 -10.23883 -10.23772 -10.23607
  Beta  occ. eigenvalues --  -10.22996 -10.21272 -10.20910 -10.20769 -10.20536
  Beta  occ. eigenvalues --  -10.20381  -8.13477  -6.09715  -6.09690  -6.09592
  Beta  occ. eigenvalues --   -1.13472  -1.12852  -1.09754  -1.09520  -1.04762
  Beta  occ. eigenvalues --   -1.02535  -0.89824  -0.89428  -0.83749  -0.79957
  Beta  occ. eigenvalues --   -0.78169  -0.76613  -0.73534  -0.70773  -0.67093
  Beta  occ. eigenvalues --   -0.64925  -0.64079  -0.60674  -0.59314  -0.56405
  Beta  occ. eigenvalues --   -0.56040  -0.54898  -0.52907  -0.51748  -0.50396
  Beta  occ. eigenvalues --   -0.49943  -0.49479  -0.48871  -0.48171  -0.47506
  Beta  occ. eigenvalues --   -0.47235  -0.46422  -0.45697  -0.45564  -0.45291
  Beta  occ. eigenvalues --   -0.44400  -0.43543  -0.41096  -0.40346  -0.39813
  Beta  occ. eigenvalues --   -0.38193  -0.37947  -0.35774  -0.35349  -0.33916
  Beta  occ. eigenvalues --   -0.33466  -0.33210  -0.32439  -0.32043  -0.31407
  Beta  occ. eigenvalues --   -0.30796  -0.29439  -0.28733  -0.28412
  Beta virt. eigenvalues --   -0.16004  -0.07618  -0.05332  -0.04081  -0.03092
  Beta virt. eigenvalues --   -0.01903  -0.01600  -0.00869  -0.00325   0.00807
  Beta virt. eigenvalues --    0.01149   0.01570   0.02064   0.02887   0.03337

 Mulliken charges and spin densities:
               1          2
     1  C   -0.264544   0.000000
     2  C   -0.089955  -0.000000
     3  C    0.171024   0.000000
     4  C   -0.284651   0.000000
     5  C   -0.215979  -0.000000
     6  C    0.504970   0.000000
     7  O   -0.152874   0.000000
     8  O   -0.149295  -0.000000
     9  H    0.230655   0.000000
    10  H    0.236723   0.000000
    11  S    0.458446   0.000000
    12  C   -0.693941  -0.000000
    13  O   -0.091484   0.000000
    14  O    0.080573   0.000000
    15  C   -0.225075  -0.000000
    16  H    0.151136   0.000000
    17  H    0.180351   0.000000
    18  H    0.195681   0.000000
    19  C    0.704470   0.000000
    20  C   -0.159367  -0.000000
    21  C   -0.351847   0.000000
    22  C   -0.419543   0.000000
    23  C   -0.447333   0.000000
    24  C   -0.290418  -0.000000
    25  O   -0.038214   0.000000
    26  O   -0.044376   0.000000
    27  H    0.272125   0.000000
    28  H    0.174323  -0.000000
    29  H    0.191898  -0.000000
    30  H    0.197932  -0.000000
    31  H    0.168592   0.000000
 Sum of Mulliken charges =  -0.00000  -0.00000

 Dipole moment (field-independent basis, Debye):
    X=             -3.7957    Y=              3.0144    Z=             -3.8825  Tot=              6.2103
 Quadrupole moment (field-independent basis, Debye-Ang):
   XX=           -108.0697   YY=           -121.2647   ZZ=           -165.9483
   XY=             -9.4256   XZ=            -26.5168   YZ=             13.7632

  Exact polarizability: 210.614  33.665 197.851  18.426  42.985 194.515
 Approx polarizability: 309.596  38.112 363.021  47.410 101.193 314.260

                      1                      2                      3
                      A                      A                      A
 Frequencies --     21.9125                35.0747                43.8758
 Red. masses --      6.0181                 5.2007                 5.0477
 Frc consts  --      0.0017                 0.0038                 0.0057
 IR Inten    --      0.1782                 0.0889                 0.6049

                      4                      5                      6
                      A                      A                      A
 Frequencies --     63.9414                70.1264                84.5649
 Red. masses --      5.0722                 4.7763                 7.1523
 Frc consts  --      0.0122                 0.0138                 0.0301
 IR Inten    --      4.8039                 4.0368                 2.3761

                      7                      8                      9
                      A                      A                      A
 Frequencies --    113.3990               136.9915               141.5944
 Red. masses --      2.6637                 2.2353                 2.9850
 Frc consts  --      0.0202                 0.0247                 0.0353
 IR Inten    --      1.3390                 1.8150                 0.1297

                     10                     11                     12
                      A                      A                      A
 Frequencies --    163.8948               178.6286               197.5569
 Red. masses --      7.8813                 6.6443                 6.0045
 Frc consts  --      0.1247                 0.1249                 0.1381
 IR Inten    --      0.5691                 1.4322                 3.8703

                     13                     14                     15
                      A                      A                      A
 Frequencies --    209.6903               244.5547               253.7043
 Red. masses --      8.0292                11.6315                 7.8954
 Frc consts  --      0.2080                 0.4099                 0.2994
 IR Inten    --      0.8586                 2.2459                 1.9336

                     16                     17                     18
                      A                      A                      A
 Frequencies --    264.6936               295.1726               301.6541
 Red. masses --      4.7679                 6.0326                 8.0736
 Frc consts  --      0.1968                 0.3097                 0.4329
 IR Inten    --      0.6886                 7.9739                 1.9514

                     19                     20                     21
                      A                      A                      A
 Frequencies --    311.0321               357.5928               411.2212
 Red. masses --      7.1050                 6.9366                 2.9500
 Frc consts  --      0.4050                 0.5226                 0.2939
 IR Inten    --      8.0247                 9.5274                 0.4331

                     22                     23                     24
                      A                      A                      A
 Frequencies --    413.5808               445.1858               453.3684
 Red. masses --      7.5524                11.0602                 5.2802
 Frc consts  --      0.7611                 1.2915                 0.6394
 IR Inten    --      9.2289                12.8049                13.6628

                     25                     26                     27
                      A                      A                      A
 Frequencies --    492.6141               508.7250               544.4791
 Red. masses --      7.7890                 8.5576                 5.6696
 Frc consts  --      1.1136                 1.3049                 0.9903
 IR Inten    --     30.6091                28.6910                 6.1967

                     28                     29                     30
                      A                      A                      A
 Frequencies --    588.7322               598.3014               626.4466
 Red. masses --      6.4825                 8.3716                 6.4472
 Frc consts  --      1.3238                 1.7656                 1.4907
 IR Inten    --     40.2739               115.0062                 0.0555

                     31                     32                     33
                      A                      A                      A
 Frequencies --    639.0819               670.9833               701.0255
 Red. masses --      3.0020                 8.5350                 2.1157
 Frc consts  --      0.7224                 2.2640                 0.6126
 IR Inten    --      4.1518                14.5065                35.3173

                     34                     35                     36
                      A                      A                      A
 Frequencies --    705.7187               721.7280               766.1443
 Red. masses --      6.1885                 7.1212                 1.6317
 Frc consts  --      1.8159                 2.1855                 0.5643
 IR Inten    --     14.5148                53.3148                23.1183

                     37                     38                     39
                      A                      A                      A
 Frequencies --    791.5028               806.3946               855.0210
 Red. masses --      6.5144                 9.4784                 1.2450
 Frc consts  --      2.4045                 3.6315                 0.5363
 IR Inten    --     17.7562                 5.2116                 0.3179

                     40                     41                     42
                      A                      A                      A
 Frequencies --    860.7876               879.9475               907.2809
 Red. masses --      2.1109                 9.7321                 6.8266
 Frc consts  --      0.9215                 4.4399                 3.3109
 IR Inten    --     42.4345                11.9217                21.6204

                     43                     44                     45
                      A                      A                      A
 Frequencies --    946.8741               985.9464               994.2591
 Red. masses --      1.3511                 7.0868                 1.3816
 Frc consts  --      0.7137                 4.0589                 0.8047
 IR Inten    --      0.0868                26.1296                 0.1389

                     46                     47                     48
                      A                      A                      A
 Frequencies --   1013.2167              1014.3950              1014.8667
 Red. masses --      1.3871                 4.9910                 1.2613
 Frc consts  --      0.8390                 3.0259                 0.7654
 IR Inten    --      0.2862                 2.7531                 0.0284

                     49                     50                     51
                      A                      A                      A
 Frequencies --   1040.1162              1060.8291              1079.1553
 Red. masses --      3.6509                 4.0437                 3.7225
 Frc consts  --      2.3271                 2.6811                 2.5542
 IR Inten    --      9.8137                93.1080                71.6892

                     52                     53                     54
                      A                      A                      A
 Frequencies --   1101.5864              1114.9773              1121.5437
 Red. masses --      1.5664                 1.5785                 5.6798
 Frc consts  --      1.1199                 1.1562                 4.2093
 IR Inten    --      7.1030                68.0793               145.8533

                     55                     56                     57
                      A                      A                      A
 Frequencies --   1169.0487              1185.8201              1200.8628
 Red. masses --      1.2800                 1.1215                 1.1568
 Frc consts  --      1.0307                 0.9291                 0.9829
 IR Inten    --      0.7655                 0.2613                 4.6234

                     58                     59                     60
                      A                      A                      A
 Frequencies --   1206.9633              1241.8922              1278.8659
 Red. masses --      1.5831                 4.3231                 2.7861
 Frc consts  --      1.3588                 3.9284                 2.6847
 IR Inten    --      9.0735               193.9373               134.6428

                     61                     62                     63
                      A                      A                      A
 Frequencies --   1290.5611              1296.9185              1333.5092
 Red. masses --     14.4030                 6.1146                 2.5705
 Frc consts  --     14.1339                 6.0596                 2.6931
 IR Inten    --     86.0746               296.2973                 0.0788

                     64                     65                     66
                      A                      A                      A
 Frequencies --   1347.9028              1387.8988              1467.9768
 Red. masses --      1.9639                 1.8590                 1.2059
 Frc consts  --      2.1023                 2.1098                 1.5311
 IR Inten    --      1.6033                 4.0039                15.6464

                     67                     68                     69
                      A                      A                      A
 Frequencies --   1477.1542              1484.2046              1495.2305
 Red. masses --      2.1489                 1.0439                 1.0451
 Frc consts  --      2.7627                 1.3549                 1.3766
 IR Inten    --     17.2312                10.5561                 8.6109

                     70                     71                     72
                      A                      A                      A
 Frequencies --   1506.5376              1621.4451              1624.7245
 Red. masses --      2.0131                 5.2991                 5.7845
 Frc consts  --      2.6920                 8.2084                 8.9965
 IR Inten    --      3.3801                 3.1374                 0.2683

                     73                     74                     75
                      A                      A                      A
 Frequencies --   1636.3160              1681.4870              1726.8877
 Red. masses --     10.9154                 8.3552                11.2838
 Frc consts  --     17.2197                13.9185                19.8259
 IR Inten    --     14.4706                 4.8804                30.5328

                     76                     77                     78
                      A                      A                      A
 Frequencies --   1733.7615              1805.0183              3058.1630
 Red. masses --     12.0342                12.0118                 1.0287
 Frc consts  --     21.3131                23.0580                 5.6684
 IR Inten    --    357.0463               269.1062                28.1759

                     79                     80                     81
                      A                      A                      A
 Frequencies --   3138.6655              3165.8727              3170.4201
 Red. masses --      1.1081                 1.1072                 1.0865
 Frc consts  --      6.4314                 6.5380                 6.4345
 IR Inten    --      9.1914                 9.4838                 0.6346

                     82                     83                     84
                      A                      A                      A
 Frequencies --   3181.2283              3182.7227              3191.5097
 Red. masses --      1.0876                 1.0899                 1.0945
 Frc consts  --      6.4848                 6.5051                 6.5686
 IR Inten    --      0.1107                 8.9753                 9.3597

                     85                     86                     87
                      A                      A                      A
 Frequencies --   3198.2418              3202.1336              3218.8501
 Red. masses --      1.0997                 1.0949                 1.0935
 Frc consts  --      6.6277                 6.6148                 6.6756
 IR Inten    --      0.9093                 5.5412                 4.0009

 - Thermochemistry -
 -------------------
 Temperature   298.150 Kelvin.  Pressure   1.00000 Atm.
 Atom     1 has atomic number  6 and mass  12.00000

 Molecular mass:   306.01981 amu.
 Principal axes and moments of inertia in atomic units:
                           1         2         3
     Eigenvalues --  4081.037717514.041439154.88200
           X            0.72793  -0.49527  -0.47416
           Y            0.59325   0.10824   0.79771
           Z            0.34376   0.86197  -0.37261
 This molecule is an asymmetric top.
 Rotational symmetry number  1.
 Warning -- assumption of classical behavior for rotation
           may cause significant error
 Rotational temperatures (Kelvin)      0.02122     0.01153     0.00946
 Rotational constants (GHZ):           0.44223     0.24018     0.19713
 Zero-point vibrational energy     569868.0 (Joules/Mol)
                                  136.20172 (Kcal/Mol)
 Warning -- explicit consideration of  29 degrees of freedom as
           vibrations may cause significant error
 Vibrational temperatures:     31.53    50.46    63.13    92.00   100.90
          (Kelvin)            121.67   163.16   197.10   203.72   235.81
                              257.01   284.24   301.70   351.86   365.02
                              380.83   424.69   434.01   447.51   514.50
                              591.66   595.05   640.52   652.30   708.76
                              731.94   783.38   847.05   860.82   901.32
                              919.50   965.40  1008.62  1015.37  1038.41
                             1102.31  1138.80  1160.22  1230.18  1238.48
                             1266.05  1305.37  1362.34  1418.56  1430.52
                             1457.79  1459.49  1460.17  1496.50  1526.30
                             1552.66  1584.94  1604.20  1613.65  1682.00
                             1706.13  1727.77  1736.55  1786.81  1840.00
                             1856.83  1865.98  1918.62  1939.33  1996.88
                             2112.09  2125.30  2135.44  2151.30  2167.57
                             2332.90  2337.62  2354.29  2419.28  2484.61
                             2494.50  2597.02  4400.01  4515.84  4554.98
                             4561.53  4577.08  4579.23  4591.87  4601.56
                             4607.16  4631.21

 Zero-point correction=                           0.217051 (Hartree/Particle)
 Thermal correction to Energy=                    0.236147
 Thermal correction to Enthalpy=                  0.237091
 Thermal correction to Gibbs Free Energy=         0.167893
 Sum of electronic and zero-point Energies=          -1389.012619
 Sum of electronic and thermal Energies=             -1388.993524
 Sum of electronic and thermal Enthalpies=           -1388.992580
 Sum of electronic and thermal Free Energies=        -1389.061777

                     E (Thermal)             CV                S
                      KCal/Mol        Cal/Mol-Kelvin    Cal/Mol-Kelvin
 Total                  148.184             70.160            145.639
 Electronic               0.000              0.000              0.000
 Translational            0.889              2.981             43.052
 Rotational               0.889              2.981             33.995
 Vibrational            146.407             64.198             68.592
 Vibration     1          0.593              1.985              6.453
 Vibration     2          0.594              1.982              5.519
 Vibration     3          0.595              1.980              5.076
 Vibration     4          0.597              1.972              4.332
 Vibration     5          0.598              1.968              4.150
 Vibration     6          0.601              1.960              3.782
 Vibration     7          0.607              1.938              3.210
 Vibration     8          0.614              1.916              2.845
 Vibration     9          0.615              1.912              2.782
 Vibration    10          0.623              1.887              2.504
 Vibration    11          0.629              1.869              2.343
 Vibration    12          0.637              1.843              2.156
 Vibration    13          0.642              1.826              2.046
 Vibration    14          0.660              1.772              1.769
 Vibration    15          0.665              1.757              1.705
 Vibration    16          0.671              1.738              1.631
 Vibration    17          0.689              1.683              1.444
 Vibration    18          0.694              1.671              1.408
 Vibration    19          0.700              1.653              1.357
 Vibration    20          0.733              1.560              1.133
 Vibration    21          0.775              1.446              0.922
 Vibration    22          0.777              1.441              0.914
 Vibration    23          0.805              1.372              0.810
 Vibration    24          0.812              1.353              0.786
 Vibration    25          0.848              1.266              0.677
 Vibration    26          0.864              1.231              0.637
 Vibration    27          0.900              1.152              0.556
 Vibration    28          0.946              1.056              0.469
 Vibration    29          0.956              1.035              0.453

                           ! Non-Optimized Parameters !
 Normal termination of Gaussian 16 at Wed Dec 20 05:14:02 2023.
