 Q-Chem 5.4, Q-Chem, Inc., Pleasanton, CA (2021)
 Q-Chem 5.4.0 for Intel X86 EM64T Linux

User input:
--------------------------------------------------------------
$molecule
-2 2
C                 -1.7364870000      1.8848090000     -5.1520030000
C                 -1.6380550000      0.5615390000     -5.5397520000
C                 -1.2700310000     -0.4223010000     -4.5904540000
C                 -1.4762490000      2.2865180000     -3.8236840000
C                 -1.1064860000      1.2952280000     -2.8682220000
C                 -1.0123210000     -0.0531210000     -3.2854890000
C                 -1.5942590000      3.7040410000     -3.4695750000
C                 -0.8336430000      1.6465570000     -1.4819760000
C                 -1.3044780000      4.0724990000     -2.0879800000
C                 -0.9542490000      3.0668940000     -1.1280590000
C                 -1.3900550000      5.4529640000     -1.6544850000
C                 -1.1538270000      5.7629050000     -0.2934870000
C                 -0.8306040000      4.7504160000      0.6113610000
C                 -0.7243530000      3.4302300000      0.2107720000
O                 -1.9432310000      4.5350400000     -4.3654730000
O                 -0.5146010000      0.7686410000     -0.6328460000
N                 -1.6842840000      6.4352680000     -2.5504280000
H                 -2.0161600000      2.6608050000     -5.8556850000
H                 -1.8418290000      0.2767710000     -6.5689490000
H                 -1.1913450000     -1.4647630000     -4.8897710000
H                 -0.7295240000     -0.7825770000     -2.5343120000
S                 -1.1560820000      7.4807350000      0.3335220000
H                 -0.6729920000      5.0323580000      1.6461250000
H                 -1.9637990000      6.1097500000     -3.4709200000
H                 -1.9827060000      7.3238150000     -2.1599170000
H                 -0.4701070000      2.6450440000      0.9114890000
O                 -2.2464680000      8.1800760000     -0.4252920000
O                 -1.4368930000      7.3663240000      1.7908240000
O                  0.1921250000      8.0357980000      0.0334180000
$end

$rem
BASIS  =  6-311++G(d,p)
GUI  =  2
JOB_TYPE  =  SP
METHOD  =  B3LYP
SCF_CONVERGENCE  = 8
SOLVENT_METHOD = sm12
$end

$smx
solvent dimethylformamide
charges CM5
$end

--------------------------------------------------------------

             Standard Nuclear Orientation (Angstroms)
    I     Atom           X                Y                Z
 ----------------------------------------------------------------
    1      C      -1.7364870000     1.8848090000    -5.1520030000
    2      C      -1.6380550000     0.5615390000    -5.5397520000
    3      C      -1.2700310000    -0.4223010000    -4.5904540000
    4      C      -1.4762490000     2.2865180000    -3.8236840000
    5      C      -1.1064860000     1.2952280000    -2.8682220000
    6      C      -1.0123210000    -0.0531210000    -3.2854890000
    7      C      -1.5942590000     3.7040410000    -3.4695750000
    8      C      -0.8336430000     1.6465570000    -1.4819760000
    9      C      -1.3044780000     4.0724990000    -2.0879800000
   10      C      -0.9542490000     3.0668940000    -1.1280590000
   11      C      -1.3900550000     5.4529640000    -1.6544850000
   12      C      -1.1538270000     5.7629050000    -0.2934870000
   13      C      -0.8306040000     4.7504160000     0.6113610000
   14      C      -0.7243530000     3.4302300000     0.2107720000
   15      O      -1.9432310000     4.5350400000    -4.3654730000
   16      O      -0.5146010000     0.7686410000    -0.6328460000
   17      N      -1.6842840000     6.4352680000    -2.5504280000
   18      H      -2.0161600000     2.6608050000    -5.8556850000
   19      H      -1.8418290000     0.2767710000    -6.5689490000
   20      H      -1.1913450000    -1.4647630000    -4.8897710000
   21      H      -0.7295240000    -0.7825770000    -2.5343120000
   22      S      -1.1560820000     7.4807350000     0.3335220000
   23      H      -0.6729920000     5.0323580000     1.6461250000
   24      H      -1.9637990000     6.1097500000    -3.4709200000
   25      H      -1.9827060000     7.3238150000    -2.1599170000
   26      H      -0.4701070000     2.6450440000     0.9114890000
   27      O      -2.2464680000     8.1800760000    -0.4252920000
   28      O      -1.4368930000     7.3663240000     1.7908240000
   29      O       0.1921250000     8.0357980000     0.0334180000
 ----------------------------------------------------------------

   18   -1367.6994991829      9.11e-09  Convergence criterion met
 Total energy in the final basis set =    -1367.9526133444

                    Orbital Energies (a.u.)
 --------------------------------------------------------------

 Alpha MOs
 -- Occupied --
-89.0324 -19.0838 -19.0770 -19.0769 -19.0757 -19.0737 -14.3080 -10.2347
-10.2316 -10.2257 -10.1849 -10.1844 -10.1837 -10.1825 -10.1815 -10.1803
-10.1800 -10.1800 -10.1798 -10.1797 -10.1656  -8.0909  -6.0537  -6.0534
 -6.0527  -1.0916  -1.0088  -1.0001  -0.9572  -0.9537  -0.9215  -0.8656
 -0.8447  -0.7930  -0.7590  -0.7506  -0.7359  -0.6754  -0.6515  -0.6333
 -0.6015  -0.5800  -0.5665  -0.5531  -0.5243  -0.5057  -0.4856  -0.4819
 -0.4746  -0.4536  -0.4484  -0.4377  -0.4347  -0.4327  -0.4281  -0.4260
 -0.4152  -0.4056  -0.3907  -0.3890  -0.3805  -0.3694  -0.3595  -0.3515
 -0.3434  -0.3212  -0.3165  -0.3124  -0.2899  -0.2821  -0.2774  -0.2701
 -0.2644  -0.2515  -0.2497  -0.2405  -0.2373  -0.2147  -0.1452

 Beta MOs
 -- Occupied --
-89.0324 -19.0787 -19.0768 -19.0757 -19.0736 -19.0710 -14.3079 -10.2332
-10.2317 -10.2241 -10.1841 -10.1837 -10.1831 -10.1824 -10.1806 -10.1799
-10.1799 -10.1796 -10.1792 -10.1791 -10.1652  -8.0909  -6.0537  -6.0535
 -6.0528  -1.0915  -1.0002  -0.9896  -0.9571  -0.9536  -0.9209  -0.8634
 -0.8430  -0.7892  -0.7569  -0.7486  -0.7338  -0.6689  -0.6497  -0.6310
 -0.6007  -0.5790  -0.5645  -0.5513  -0.5233  -0.5044  -0.4842  -0.4807
 -0.4724  -0.4529  -0.4475  -0.4363  -0.4342  -0.4322  -0.4250  -0.4185
 -0.4109  -0.4027  -0.3884  -0.3837  -0.3684  -0.3610  -0.3581  -0.3425
 -0.3410  -0.3191  -0.3162  -0.3081  -0.2857  -0.2817  -0.2766  -0.2578
 -0.2519  -0.2461  -0.2452  -0.2387  -0.2336  -0.2070

          Ground-State Mulliken Net Atomic Charges

     Atom                 Charge (a.u.)    Spin (a.u.)
  --------------------------------------------------------
      1 C                     0.687111       0.017727
      2 C                     1.974891       0.050627
      3 C                     1.820371       0.028799
      4 C                     0.184278       0.045111
      5 C                    -0.017688       0.034026
      6 C                     0.741788       0.041325
      7 C                    -1.492719       0.075446
      8 C                    -1.323918       0.083574
      9 C                    -1.201333       0.004807
     10 C                    -0.622602       0.048656
     11 C                    -0.762614       0.004239
     12 C                    -2.395561       0.068022
     13 C                    -0.133248       0.032780
     14 C                    -0.608565       0.058299
     15 O                    -0.237833       0.188244
     16 O                    -0.244771       0.226546
     17 N                    -0.349602       0.006112
     18 H                     0.192521      -0.000264
     19 H                     0.415903      -0.003775
     20 H                     0.421952      -0.002195
     21 H                     0.193075      -0.002316
     22 S                     0.632936      -0.001877
     23 H                     0.208112      -0.002543
     24 H                     0.383396      -0.002609
     25 H                     0.232217      -0.000887
     26 H                     0.204202      -0.004477
     27 O                    -0.354273       0.002797
     28 O                    -0.268398       0.000349
     29 O                    -0.279628       0.003461
  --------------------------------------------------------
  Sum of atomic charges =    -2.000000

                    Cartesian Multipole Moments
 -----------------------------------------------------------------
    Charge (ESU x 10^10)
                -9.6064
    Dipole Moment (Debye)
         X      10.5556      Y     -50.2588      Z       8.2423
       Tot      52.0125
    Quadrupole Moments (Debye-Ang)
        XX    -159.5289     XY      58.0423     YY    -487.3555
        XZ     -12.4033     YZ      18.1486     ZZ    -184.1468

 Total job time:  982.28s(wall), 7422.50s(cpu)
        *  Thank you very much for using Q-Chem.  Have a nice day.  *
