 Gaussian 16, Revision A.03,
 Gaussian 16:  ES64L-G16RevA.03 25-Dec-2016

 ----------------------------------------------------------------------
 #P UB3LYP/6-311++G(d,p) nosym opt freq SCRF=(PCM,Solvent=n,n-DiMethylF
 ormamide)
 ----------------------------------------------------------------------

 -------
 Reduced
 -------
 Symbolic Z-matrix:
 Charge = -2 Multiplicity = 1

 SCF Done:  E(UB3LYP) =  -696.398264952     A.U. after   16 cycles
 SCF Done:  E(UB3LYP) =  -696.399242567     A.U. after   13 cycles
 SCF Done:  E(UB3LYP) =  -696.399750427     A.U. after   12 cycles
 SCF Done:  E(UB3LYP) =  -696.399510236     A.U. after   12 cycles
 SCF Done:  E(UB3LYP) =  -696.399852546     A.U. after   12 cycles
 SCF Done:  E(UB3LYP) =  -696.399862877     A.U. after   11 cycles
 SCF Done:  E(UB3LYP) =  -696.399857891     A.U. after   10 cycles
 SCF Done:  E(UB3LYP) =  -696.399853524     A.U. after   11 cycles
 SCF Done:  E(UB3LYP) =  -696.399866302     A.U. after   10 cycles
 SCF Done:  E(UB3LYP) =  -696.399867826     A.U. after    9 cycles
 SCF Done:  E(UB3LYP) =  -696.399867984     A.U. after    8 cycles
 Optimization completed.
    -- Stationary point found.
 Normal termination of Gaussian 16 at Sat Feb 10 11:52:40 2024.

 ----------------------------------------------------------------------
 #P Geom=AllCheck Guess=TCheck SCRF=Check GenChk UB3LYP/6-311++G(d,p) F
 req
 ----------------------------------------------------------------------

 Structure from the checkpoint file:  "046-an.chk"
 -------
 Reduced
 -------
 Charge = -2 Multiplicity = 1

                          Input orientation:
 ---------------------------------------------------------------------
 Center     Atomic      Atomic             Coordinates (Angstroms)
 Number     Number       Type             X           Y           Z
 ---------------------------------------------------------------------
      1          6           0        2.643558   -0.321214   -1.938270
      2          6           0        2.588115   -0.005294   -0.424206
      3          6           0        2.827173    1.508428   -0.206692
      4          6           0        3.771512   -0.746301    0.231956
      5          6           0        1.211018   -0.411107    0.155432
      6          6           0        1.142996   -1.350212    1.199075
      7          6           0       -0.062458   -1.786647    1.801014
      8          8           0       -0.092943   -2.678270    2.784405
      9          6           0       -1.232377   -1.191460    1.268097
     10          6           0       -1.234732   -0.245067    0.228822
     11          6           0        0.005915    0.186793   -0.373524
     12          8           0        0.036641    1.074502   -1.344291
     13          6           0       -2.576201    0.347633   -0.267644
     14          6           0       -2.778703    0.020869   -1.766646
     15          6           0       -3.805565   -0.205326    0.482702
     16          6           0       -2.582245    1.883130   -0.072139
     17          1           0        3.595795    0.012783   -2.369633
     18          1           0        2.561798   -1.400983   -2.106476
     19          1           0        1.820918    0.177921   -2.449394
     20          1           0        2.014677    2.080823   -0.653311
     21          1           0        3.778317    1.820698   -0.656425
     22          1           0        2.873775    1.737274    0.863868
     23          1           0        3.704547   -1.829989    0.097119
     24          1           0        3.842813   -0.543555    1.304565
     25          1           0        4.706570   -0.412241   -0.230669
     26          1           0        2.056010   -1.789663    1.588694
     27          1           0       -2.172328   -1.507030    1.710666
     28          1           0       -3.695099    0.490300   -2.146504
     29          1           0       -2.873851   -1.060975   -1.912123
     30          1           0       -1.926159    0.379893   -2.342368
     31          1           0       -3.770652    0.017865    1.553156
     32          1           0       -4.712397    0.256841    0.077696
     33          1           0       -3.906956   -1.288482    0.367196
     34          1           0       -3.511197    2.320014   -0.460204
     35          1           0       -2.516346    2.132448    0.992916
     36          1           0       -1.731934    2.325600   -0.590659
 ---------------------------------------------------------------------

 SCF Done:  E(UB3LYP) =  -696.399867984     A.U. after    1 cycles

 Alpha  occ. eigenvalues --  -19.00231 -18.99120 -10.15820 -10.15819 -10.15315
 Alpha  occ. eigenvalues --  -10.15103 -10.13687 -10.13685 -10.12888 -10.12860
 Alpha  occ. eigenvalues --  -10.12827 -10.12799 -10.11918 -10.11915 -10.10538
 Alpha  occ. eigenvalues --  -10.10531  -0.90431  -0.89926  -0.79515  -0.79259
 Alpha  occ. eigenvalues --   -0.74637  -0.67797  -0.66203  -0.66164  -0.65841
 Alpha  occ. eigenvalues --   -0.65805  -0.62915  -0.56786  -0.54423  -0.49271
 Alpha  occ. eigenvalues --   -0.48803  -0.43377  -0.43308  -0.42490  -0.41461
 Alpha  occ. eigenvalues --   -0.41351  -0.40837  -0.40611  -0.38922  -0.37692
 Alpha  occ. eigenvalues --   -0.36614  -0.35986  -0.35387  -0.34471  -0.34437
 Alpha  occ. eigenvalues --   -0.34175  -0.32795  -0.32784  -0.31932  -0.30784
 Alpha  occ. eigenvalues --   -0.30589  -0.30166  -0.29964  -0.28524  -0.28477
 Alpha  occ. eigenvalues --   -0.27996  -0.20511  -0.19540  -0.18274  -0.16828
 Alpha  occ. eigenvalues --   -0.10546
 Alpha virt. eigenvalues --   -0.00130   0.00702   0.01605   0.01855   0.02539
 Alpha virt. eigenvalues --    0.02795   0.03018   0.03449   0.03993   0.04038
 Alpha virt. eigenvalues --    0.04450   0.04641   0.05490   0.06157   0.06303

  Beta  occ. eigenvalues --  -19.00231 -18.99120 -10.15820 -10.15819 -10.15315
  Beta  occ. eigenvalues --  -10.15103 -10.13687 -10.13685 -10.12888 -10.12860
  Beta  occ. eigenvalues --  -10.12827 -10.12799 -10.11918 -10.11915 -10.10538
  Beta  occ. eigenvalues --  -10.10531  -0.90431  -0.89926  -0.79515  -0.79259
  Beta  occ. eigenvalues --   -0.74637  -0.67797  -0.66203  -0.66164  -0.65841
  Beta  occ. eigenvalues --   -0.65805  -0.62915  -0.56786  -0.54423  -0.49271
  Beta  occ. eigenvalues --   -0.48803  -0.43377  -0.43308  -0.42490  -0.41461
  Beta  occ. eigenvalues --   -0.41351  -0.40837  -0.40611  -0.38922  -0.37692
  Beta  occ. eigenvalues --   -0.36614  -0.35986  -0.35387  -0.34471  -0.34437
  Beta  occ. eigenvalues --   -0.34175  -0.32795  -0.32784  -0.31932  -0.30784
  Beta  occ. eigenvalues --   -0.30589  -0.30166  -0.29964  -0.28524  -0.28477
  Beta  occ. eigenvalues --   -0.27996  -0.20511  -0.19540  -0.18274  -0.16828
  Beta  occ. eigenvalues --   -0.10546
  Beta virt. eigenvalues --   -0.00130   0.00702   0.01605   0.01855   0.02539
  Beta virt. eigenvalues --    0.02795   0.03018   0.03449   0.03993   0.04038
  Beta virt. eigenvalues --    0.04450   0.04641   0.05490   0.06157   0.06303

 Mulliken charges and spin densities:
               1          2
     1  C   -0.683068   0.000000
     2  C    0.846826  -0.000000
     3  C   -0.691704   0.000000
     4  C   -0.498489   0.000000
     5  C    0.535015   0.000000
     6  C   -0.335843  -0.000000
     7  C   -0.763849  -0.000000
     8  O   -0.786182   0.000000
     9  C   -0.336505   0.000000
    10  C    0.534567  -0.000000
    11  C   -0.911995   0.000000
    12  O   -0.611445  -0.000000
    13  C    0.843799   0.000000
    14  C   -0.688275   0.000000
    15  C   -0.498881  -0.000000
    16  C   -0.685174   0.000000
    17  H    0.128479   0.000000
    18  H    0.118265   0.000000
    19  H    0.172819  -0.000000
    20  H    0.172785  -0.000000
    21  H    0.128343  -0.000000
    22  H    0.119239   0.000000
    23  H    0.121246   0.000000
    24  H    0.120856   0.000000
    25  H    0.155053  -0.000000
    26  H    0.128341   0.000000
    27  H    0.128239  -0.000000
    28  H    0.128292   0.000000
    29  H    0.118677  -0.000000
    30  H    0.174044   0.000000
    31  H    0.121398   0.000000
    32  H    0.155078  -0.000000
    33  H    0.120784   0.000000
    34  H    0.128282   0.000000
    35  H    0.118727  -0.000000
    36  H    0.172258  -0.000000
 Sum of Mulliken charges =  -2.00000   0.00000

 Dipole moment (field-independent basis, Debye):
    X=              0.3061    Y=              8.6007    Z=             -7.8773  Tot=             11.6669
 Quadrupole moment (field-independent basis, Debye-Ang):
   XX=           -121.8594   YY=           -149.8652   ZZ=           -154.5506
   XY=             -0.6820   XZ=              1.5807   YZ=             37.8120

  Exact polarizability: 315.591  -4.989 264.638  -4.737 -51.977 274.227
 Approx polarizability: 320.969  -4.237 284.554  -4.782 -60.981 295.864

                      1                      2                      3
                      A                      A                      A
 Frequencies --     46.8808                52.8362                72.6965
 Red. masses --      3.2108                 3.1665                 3.8909
 Frc consts  --      0.0042                 0.0052                 0.0121
 IR Inten    --      7.5382                 6.6303                 0.5925

                      4                      5                      6
                      A                      A                      A
 Frequencies --    146.3762               157.2207               177.2429
 Red. masses --      2.9391                 3.1995                 6.2269
 Frc consts  --      0.0371                 0.0466                 0.1153
 IR Inten    --      5.6660                 1.1749                17.1762

                      7                      8                      9
                      A                      A                      A
 Frequencies --    198.1873               217.8543               238.5434
 Red. masses --      1.2738                 1.2294                 1.4253
 Frc consts  --      0.0295                 0.0344                 0.0478
 IR Inten    --      5.3208                 3.7427                 1.4443

                     10                     11                     12
                      A                      A                      A
 Frequencies --    254.0747               260.8828               276.5699
 Red. masses --      1.8693                 1.3417                 3.0644
 Frc consts  --      0.0711                 0.0538                 0.1381
 IR Inten    --      1.7540                 1.8852                13.8979

                     13                     14                     15
                      A                      A                      A
 Frequencies --    282.9236               291.3501               300.8428
 Red. masses --      1.5352                 3.8704                 2.5591
 Frc consts  --      0.0724                 0.1936                 0.1365
 IR Inten    --      2.8341                 3.4025                 0.5367

                     16                     17                     18
                      A                      A                      A
 Frequencies --    317.0825               333.2131               337.2787
 Red. masses --      2.1685                 1.0498                 1.0908
 Frc consts  --      0.1285                 0.0687                 0.0731
 IR Inten    --      1.0497                 0.5845                 0.8196

                     19                     20                     21
                      A                      A                      A
 Frequencies --    348.5346               379.4212               388.0428
 Red. masses --      3.7823                 2.7229                 2.7384
 Frc consts  --      0.2707                 0.2310                 0.2429
 IR Inten    --     45.3339                 1.1715                 0.3386

                     22                     23                     24
                      A                      A                      A
 Frequencies --    400.1610               412.5563               443.4110
 Red. masses --      2.3418                 2.5524                 4.1436
 Frc consts  --      0.2209                 0.2560                 0.4800
 IR Inten    --      0.0501                 7.5563                 2.9323

                     25                     26                     27
                      A                      A                      A
 Frequencies --    458.4541               485.6962               528.0025
 Red. masses --      3.9198                 7.6617                 3.2324
 Frc consts  --      0.4854                 1.0649                 0.5309
 IR Inten    --      4.0460                 0.1243                 0.1864

                     28                     29                     30
                      A                      A                      A
 Frequencies --    556.9444               623.4601               629.2745
 Red. masses --      2.8809                 4.3334                 2.3547
 Frc consts  --      0.5265                 0.9924                 0.5494
 IR Inten    --     10.1058                 0.2474                 6.6167

                     31                     32                     33
                      A                      A                      A
 Frequencies --    664.3053               754.9462               787.2372
 Red. masses --      4.9795                 4.5603                 7.0033
 Frc consts  --      1.2947                 1.5314                 2.5572
 IR Inten    --      0.0018                 0.2071                20.6523

                     34                     35                     36
                      A                      A                      A
 Frequencies --    807.5477               808.2479               841.3841
 Red. masses --      2.9266                 6.4688                 1.3670
 Frc consts  --      1.1245                 2.4898                 0.5702
 IR Inten    --      1.1331               222.1860                 1.2112

                     37                     38                     39
                      A                      A                      A
 Frequencies --    850.1010               888.2953               918.2780
 Red. masses --      1.9192                 2.6563                 1.7723
 Frc consts  --      0.8172                 1.2349                 0.8805
 IR Inten    --     59.3689                22.3154                 3.7540

                     40                     41                     42
                      A                      A                      A
 Frequencies --    919.5328               920.1958               920.9811
 Red. masses --      1.7441                 1.7734                 1.7762
 Frc consts  --      0.8688                 0.8848                 0.8876
 IR Inten    --     18.3777                 0.2021                 0.2719

                     43                     44                     45
                      A                      A                      A
 Frequencies --    943.7997               946.2637               975.2829
 Red. masses --      1.2088                 1.2071                 3.9581
 Frc consts  --      0.6344                 0.6368                 2.2182
 IR Inten    --      0.8242                 1.1603                93.8755

                     46                     47                     48
                      A                      A                      A
 Frequencies --   1033.9827              1034.6695              1037.3790
 Red. masses --      1.4059                 1.4970                 1.3888
 Frc consts  --      0.8856                 0.9442                 0.8806
 IR Inten    --     22.5939                44.4974                 2.5467

                     49                     50                     51
                      A                      A                      A
 Frequencies --   1038.0823              1106.0587              1160.5106
 Red. masses --      1.3797                 2.1975                 4.9500
 Frc consts  --      0.8760                 1.5840                 3.9279
 IR Inten    --      2.2325                88.6186               165.1186

                     52                     53                     54
                      A                      A                      A
 Frequencies --   1199.2173              1208.2101              1209.4251
 Red. masses --      2.2499                 2.7277                 2.7494
 Frc consts  --      1.9064                 2.3460                 2.3694
 IR Inten    --    105.2010                20.6412                 0.1788

                     55                     56                     57
                      A                      A                      A
 Frequencies --   1212.5186              1237.3235              1255.3745
 Red. masses --      2.6350                 2.2286                 2.0208
 Frc consts  --      2.2825                 2.0102                 1.8764
 IR Inten    --     30.8066               444.9081               106.9931

                     58                     59                     60
                      A                      A                      A
 Frequencies --   1258.3011              1280.1780              1304.8045
 Red. masses --      2.7779                 4.1940                 8.2123
 Frc consts  --      2.5914                 4.0496                 8.2377
 IR Inten    --      3.9875               418.3232               129.7879

                     61                     62                     63
                      A                      A                      A
 Frequencies --   1352.2231              1352.7112              1362.3403
 Red. masses --      1.2243                 1.2248                 1.2250
 Frc consts  --      1.3190                 1.3205                 1.3396
 IR Inten    --     26.0241                 8.7831                 4.0171

                     64                     65                     66
                      A                      A                      A
 Frequencies --   1366.2918              1388.3094              1397.6870
 Red. masses --      1.3252                 1.4888                 1.2356
 Frc consts  --      1.4575                 1.6906                 1.4222
 IR Inten    --     77.6032               291.3458                26.9734

                     67                     68                     69
                      A                      A                      A
 Frequencies --   1409.4559              1415.9688              1461.9054
 Red. masses --      3.9807                 1.9252                 1.0494
 Frc consts  --      4.6592                 2.2743                 1.3213
 IR Inten    --     27.8618               707.8245                 0.1228

                     70                     71                     72
                      A                      A                      A
 Frequencies --   1462.1715              1476.4280              1482.8131
 Red. masses --      1.0493                 1.0869                 1.0965
 Frc consts  --      1.3217                 1.3960                 1.4205
 IR Inten    --      0.1489                 0.8788                13.5590

                     73                     74                     75
                      A                      A                      A
 Frequencies --   1483.9912              1485.0370              1487.4226
 Red. masses --      1.0616                 1.0536                 1.0590
 Frc consts  --      1.3774                 1.3690                 1.3804
 IR Inten    --      4.3226                 2.1848                 2.8013

                     76                     77                     78
                      A                      A                      A
 Frequencies --   1487.7497              1496.6958              1500.2678
 Red. masses --      1.0505                 1.0526                 1.0527
 Frc consts  --      1.3700                 1.3892                 1.3960
 IR Inten    --      0.9438                 6.2368                 6.4722

                     79                     80                     81
                      A                      A                      A
 Frequencies --   1503.7193              1513.6620              1514.3313
 Red. masses --      4.5723                 1.0685                 1.0604
 Frc consts  --      6.0915                 1.4424                 1.4327
 IR Inten    --      2.4244                14.5784                 0.5099

                     82                     83                     84
                      A                      A                      A
 Frequencies --   1596.1014              2986.8519              2987.8839
 Red. masses --      5.6530                 1.0397                 1.0407
 Frc consts  --      8.4849                 5.4648                 5.4739
 IR Inten    --    105.1840                92.7172               101.9598

                     85                     86                     87
                      A                      A                      A
 Frequencies --   2992.1354              2993.3057              3009.5564
 Red. masses --      1.0400                 1.0404                 1.0358
 Frc consts  --      5.4860                 5.4924                 5.5276
 IR Inten    --    179.8267               129.2762               211.9373

                     88                     89                     90
                      A                      A                      A
 Frequencies --   3010.0001              3042.2163              3042.6326
 Red. masses --      1.0359                 1.0990                 1.0988
 Frc consts  --      5.5297                 5.9929                 5.9935
 IR Inten    --      7.8172                56.1535                74.5977

                     91                     92                     93
                      A                      A                      A
 Frequencies --   3045.3580              3045.9996              3063.9797
 Red. masses --      1.0980                 1.0976                 1.1000
 Frc consts  --      5.9999                 5.9998                 6.0843
 IR Inten    --     88.9546                88.5638               113.4638

                     94                     95                     96
                      A                      A                      A
 Frequencies --   3064.2824              3075.9726              3076.2576
 Red. masses --      1.0999                 1.1015                 1.1015
 Frc consts  --      6.0849                 6.1406                 6.1418
 IR Inten    --    156.3509                76.3676                86.3265

                     97                     98                     99
                      A                      A                      A
 Frequencies --   3104.7787              3111.4357              3111.6816
 Red. masses --      1.0986                 1.0974                 1.0974
 Frc consts  --      6.2395                 6.2592                 6.2602
 IR Inten    --      8.7011                 4.9538                14.7848

                    100                    101                    102
                      A                      A                      A
 Frequencies --   3118.5700              3144.1706              3148.2849
 Red. masses --      1.0956                 1.0859                 1.0849
 Frc consts  --      6.2781                 6.3249                 6.3357
 IR Inten    --     13.4049                73.4327                89.8728

 - Thermochemistry -
 -------------------
 Temperature   298.150 Kelvin.  Pressure   1.00000 Atm.
 Atom     1 has atomic number  6 and mass  12.00000

 Molecular mass:   220.14633 amu.
 Principal axes and moments of inertia in atomic units:
                           1         2         3
     Eigenvalues --  2426.406504477.501666105.14978
           X            0.99722  -0.02376   0.07064
           Y           -0.06821  -0.67295   0.73654
           Z           -0.03004   0.73931   0.67270
 This molecule is an asymmetric top.
 Rotational symmetry number  1.
 Warning -- assumption of classical behavior for rotation
           may cause significant error
 Rotational temperatures (Kelvin)      0.03570     0.01934     0.01419
 Rotational constants (GHZ):           0.74379     0.40307     0.29561
 Zero-point vibrational energy     797377.4 (Joules/Mol)
                                  190.57777 (Kcal/Mol)
 Warning -- explicit consideration of  28 degrees of freedom as
           vibrations may cause significant error
 Vibrational temperatures:     67.45    76.02   104.59   210.60   226.21
          (Kelvin)            255.01   285.15   313.44   343.21   365.56
                              375.35   397.92   407.06   419.19   432.85
                              456.21   479.42   485.27   501.46   545.90
                              558.31   575.74   593.58   637.97   659.61
                              698.81   759.68   801.32   897.02   905.39
                              955.79  1086.20  1132.66  1161.88  1162.89
                             1210.56  1223.11  1278.06  1321.20  1323.00
                             1323.96  1325.09  1357.92  1361.46  1403.21
                             1487.67  1488.66  1492.56  1493.57  1591.37
                             1669.72  1725.41  1738.34  1740.09  1744.54
                             1780.23  1806.20  1810.41  1841.89  1877.32
                             1945.55  1946.25  1960.10  1965.79  1997.47
                             2010.96  2027.89  2037.26  2103.36  2103.74
                             2124.25  2133.44  2135.13  2136.64  2140.07
                             2140.54  2153.41  2158.55  2163.52  2177.82
                             2178.78  2296.43  4297.41  4298.90  4305.02
                             4306.70  4330.08  4330.72  4377.07  4377.67
                             4381.59  4382.51  4408.38  4408.82  4425.64
                             4426.05  4467.08  4476.66  4477.02  4486.93
                             4523.76  4529.68

 Zero-point correction=                           0.303705 (Hartree/Particle)
 Thermal correction to Energy=                    0.320798
 Thermal correction to Enthalpy=                  0.321743
 Thermal correction to Gibbs Free Energy=         0.260915
 Sum of electronic and zero-point Energies=           -696.096163
 Sum of electronic and thermal Energies=              -696.079070
 Sum of electronic and thermal Enthalpies=            -696.078125
 Sum of electronic and thermal Free Energies=         -696.138953

                     E (Thermal)             CV                S
                      KCal/Mol        Cal/Mol-Kelvin    Cal/Mol-Kelvin
 Total                  201.304             67.793            128.023
 Electronic               0.000              0.000              0.000
 Translational            0.889              2.981             42.070
 Rotational               0.889              2.981             32.561
 Vibrational            199.527             61.831             53.391
 Vibration     1          0.595              1.979              4.945
 Vibration     2          0.596              1.976              4.708
 Vibration     3          0.599              1.967              4.079
 Vibration     4          0.617              1.907              2.719
 Vibration     5          0.621              1.895              2.583
 Vibration     6          0.628              1.870              2.357
 Vibration     7          0.637              1.842              2.150
 Vibration     8          0.646              1.814              1.977
 Vibration     9          0.657              1.782              1.814
 Vibration    10          0.665              1.756              1.702
 Vibration    11          0.669              1.744              1.656
 Vibration    12          0.678              1.717              1.555
 Vibration    13          0.682              1.705              1.516
 Vibration    14          0.687              1.690              1.466
 Vibration    15          0.693              1.672              1.412
 Vibration    16          0.704              1.641              1.325
 Vibration    17          0.715              1.609              1.244
 Vibration    18          0.718              1.601              1.225
 Vibration    19          0.726              1.578              1.173
 Vibration    20          0.749              1.514              1.041
 Vibration    21          0.756              1.496              1.008
 Vibration    22          0.766              1.470              0.962
 Vibration    23          0.776              1.443              0.918
 Vibration    24          0.803              1.375              0.816
 Vibration    25          0.816              1.342              0.771
 Vibration    26          0.842              1.282              0.695
 Vibration    27          0.883              1.188              0.592
 Vibration    28          0.912              1.125              0.530

                           ! Non-Optimized Parameters !
 Normal termination of Gaussian 16 at Sat Feb 10 13:57:30 2024.
