 Gaussian 16, Revision A.03,
 Gaussian 16:  ES64L-G16RevA.03 25-Dec-2016

 ----------------------------------------------------------------
 #P UB3LYP/6-311++G(d,p) SCRF=(PCM,Solvent=n,n-DiMethylFormamide)
 ----------------------------------------------------------------

 -------
 Reduced
 -------
 Symbolic Z-matrix:
 Charge = -2 Multiplicity = 1

                         Standard orientation:
 ---------------------------------------------------------------------
 Center     Atomic      Atomic             Coordinates (Angstroms)
 Number     Number       Type             X           Y           Z
 ---------------------------------------------------------------------
      1          6           0       -4.406587   -1.071706    0.969667
      2          6           0       -3.663267   -0.820220   -0.361824
      3          6           0       -2.269182   -0.274133   -0.217742
      4          6           0       -1.199880   -1.234490   -0.183184
      5          8           0       -1.442609   -2.484251   -0.233765
      6          6           0        0.170059   -0.686323   -0.098112
      7          6           0        1.324147   -1.522755   -0.060837
      8          8           0        1.258937   -2.912981   -0.097410
      9          6           0        2.587754   -0.958461    0.021031
     10          8           0        3.713374   -1.806885    0.059660
     11          6           0        2.760139    0.419900    0.079574
     12          8           0        4.034317    0.974372    0.177875
     13          6           0        1.689829    1.308181    0.054295
     14          6           0        0.367311    0.747456   -0.045459
     15          6           0       -0.750277    1.639237   -0.083622
     16          6           0       -2.022917    1.118550   -0.171192
     17          8           0       -3.090638    2.027947   -0.206123
     18          8           0       -0.560585    3.007384   -0.020851
     19          8           0        1.980053    2.602564    0.122543
     20          1           0       -3.837510   -1.784859    1.571640
     21          1           0       -4.514348   -0.149613    1.552290
     22          1           0       -5.414716   -1.485213    0.797951
     23          1           0       -3.573090   -1.781990   -0.878948
     24          1           0       -4.298991   -0.177671   -1.002584
     25          1           0        2.172065   -3.205798    0.008426
     26          1           0       -3.886225    1.502560   -0.329878
     27          1           0        0.429451    3.118669    0.046333
     28          1           0        4.467600   -1.222127    0.196479
     29          1           0        3.790195    1.929427    0.207301
 ---------------------------------------------------------------------

 SCF Done:  E(UB3LYP) =  -990.417160366     A.U. after   17 cycles

 The electronic state is 1-A.
 Alpha  occ. eigenvalues --  -19.14577 -19.13084 -19.12953 -19.12618 -19.09720
 Alpha  occ. eigenvalues --  -19.04965 -19.01744 -10.20263 -10.19993 -10.19187
 Alpha  occ. eigenvalues --  -10.18907 -10.18632 -10.18358 -10.17882 -10.15209
 Alpha  occ. eigenvalues --  -10.14928 -10.14745 -10.14613 -10.12486  -1.05783
 Alpha  occ. eigenvalues --   -1.03624  -1.03460  -1.02200  -1.00556  -0.94472
 Alpha  occ. eigenvalues --   -0.94242  -0.81790  -0.77939  -0.74908  -0.70131
 Alpha  occ. eigenvalues --   -0.69512  -0.66095  -0.61939  -0.60047  -0.57750
 Alpha  occ. eigenvalues --   -0.55377  -0.54507  -0.51805  -0.51240  -0.48060
 Alpha  occ. eigenvalues --   -0.47867  -0.45549  -0.43793  -0.42676  -0.42462
 Alpha  occ. eigenvalues --   -0.41178  -0.40463  -0.39918  -0.39195  -0.38093
 Alpha  occ. eigenvalues --   -0.37517  -0.36759  -0.36155  -0.35961  -0.35368
 Alpha  occ. eigenvalues --   -0.35242  -0.34934  -0.33639  -0.32988  -0.32248
 Alpha  occ. eigenvalues --   -0.31928  -0.31554  -0.30865  -0.26139  -0.23494
 Alpha  occ. eigenvalues --   -0.22566  -0.19290  -0.18972  -0.17274  -0.11648
 Alpha virt. eigenvalues --   -0.00816  -0.00066   0.01240   0.01990   0.02504
 Alpha virt. eigenvalues --    0.02723   0.02800   0.03089   0.04402   0.04922
 Alpha virt. eigenvalues --    0.05136   0.05757   0.05889   0.06701   0.07853

  Beta  occ. eigenvalues --  -19.14577 -19.13084 -19.12953 -19.12618 -19.09720
  Beta  occ. eigenvalues --  -19.04965 -19.01744 -10.20263 -10.19993 -10.19187
  Beta  occ. eigenvalues --  -10.18907 -10.18632 -10.18358 -10.17882 -10.15209
  Beta  occ. eigenvalues --  -10.14928 -10.14745 -10.14613 -10.12486  -1.05783
  Beta  occ. eigenvalues --   -1.03624  -1.03460  -1.02200  -1.00556  -0.94472
  Beta  occ. eigenvalues --   -0.94242  -0.81790  -0.77939  -0.74908  -0.70131
  Beta  occ. eigenvalues --   -0.69512  -0.66095  -0.61939  -0.60047  -0.57750
  Beta  occ. eigenvalues --   -0.55377  -0.54507  -0.51805  -0.51240  -0.48060
  Beta  occ. eigenvalues --   -0.47867  -0.45549  -0.43793  -0.42676  -0.42462
  Beta  occ. eigenvalues --   -0.41178  -0.40463  -0.39918  -0.39195  -0.38093
  Beta  occ. eigenvalues --   -0.37517  -0.36759  -0.36155  -0.35961  -0.35368
  Beta  occ. eigenvalues --   -0.35242  -0.34934  -0.33639  -0.32988  -0.32248
  Beta  occ. eigenvalues --   -0.31928  -0.31554  -0.30865  -0.26139  -0.23494
  Beta  occ. eigenvalues --   -0.22566  -0.19290  -0.18972  -0.17274  -0.11648
  Beta virt. eigenvalues --   -0.00816  -0.00066   0.01240   0.01990   0.02504
  Beta virt. eigenvalues --    0.02723   0.02800   0.03089   0.04402   0.04922
  Beta virt. eigenvalues --    0.05136   0.05757   0.05889   0.06701   0.07853

 Mulliken charges and spin densities:
               1          2
     1  C   -0.574346   0.000000
     2  C   -0.137348  -0.000000
     3  C    1.266223   0.000000
     4  C   -0.479738   0.000000
     5  O   -0.626132   0.000000
     6  C    0.572784   0.000000
     7  C   -0.285278  -0.000000
     8  O   -0.314745  -0.000000
     9  C   -0.333485   0.000000
    10  O   -0.383124  -0.000000
    11  C   -0.179255  -0.000000
    12  O   -0.388054   0.000000
    13  C   -0.436469  -0.000000
    14  C    0.875036   0.000000
    15  C   -0.497320  -0.000000
    16  C   -0.790070  -0.000000
    17  O   -0.331439   0.000000
    18  O   -0.514509  -0.000000
    19  O   -0.711479   0.000000
    20  H    0.164611   0.000000
    21  H    0.133384   0.000000
    22  H    0.122181  -0.000000
    23  H    0.175710   0.000000
    24  H    0.106471  -0.000000
    25  H    0.288450  -0.000000
    26  H    0.288022   0.000000
    27  H    0.388123   0.000000
    28  H    0.305470   0.000000
    29  H    0.296326  -0.000000
 Sum of Mulliken charges =  -2.00000   0.00000

 Dipole moment (field-independent basis, Debye):
    X=              0.0683    Y=             -1.3053    Z=              0.7669  Tot=              1.5154
 Quadrupole moment (field-independent basis, Debye-Ang):
   XX=           -143.6428   YY=           -181.6854   ZZ=           -120.6454
   XY=            -11.2416   XZ=              0.7830   YZ=             -2.8961

 Normal termination of Gaussian 16 at Thu Jan 25 05:49:27 2024.
