 Gaussian 16, Revision A.03,
 Gaussian 16:  ES64L-G16RevA.03 25-Dec-2016

 ----------------------------------------------------------------------
 #P UB3LYP/6-311++G(d,p) nosym opt freq SCRF=(PCM,Solvent=n,n-DiMethylF
 ormamide)
 ----------------------------------------------------------------------

 --------
 Oxidized
 --------
 Symbolic Z-matrix:
 Charge =  0 Multiplicity = 1

 SCF Done:  E(UB3LYP) =  -1012.13419858     A.U. after   16 cycles
 SCF Done:  E(UB3LYP) =  -1012.13402703     A.U. after   14 cycles
 SCF Done:  E(UB3LYP) =  -1012.13444101     A.U. after   13 cycles
 SCF Done:  E(UB3LYP) =  -1012.13437003     A.U. after   14 cycles
 SCF Done:  E(UB3LYP) =  -1012.13453388     A.U. after   13 cycles
 SCF Done:  E(UB3LYP) =  -1012.13453378     A.U. after   12 cycles
 SCF Done:  E(UB3LYP) =  -1012.13455610     A.U. after   11 cycles
 SCF Done:  E(UB3LYP) =  -1012.13456211     A.U. after   11 cycles
 SCF Done:  E(UB3LYP) =  -1012.13456607     A.U. after   11 cycles
 SCF Done:  E(UB3LYP) =  -1012.13457400     A.U. after   12 cycles
 SCF Done:  E(UB3LYP) =  -1012.13458516     A.U. after   12 cycles
 SCF Done:  E(UB3LYP) =  -1012.13458758     A.U. after   11 cycles
 SCF Done:  E(UB3LYP) =  -1012.13458822     A.U. after   10 cycles
 SCF Done:  E(UB3LYP) =  -1012.13458825     A.U. after    9 cycles
 Optimization completed.
    -- Stationary point found.
 Normal termination of Gaussian 16 at Sun Feb 11 01:23:14 2024.

 ----------------------------------------------------------------------
 #P Geom=AllCheck Guess=TCheck SCRF=Check GenChk UB3LYP/6-311++G(d,p) F
 req
 ----------------------------------------------------------------------

 Structure from the checkpoint file:  "277.chk"
 --------
 Oxidized
 --------
 Charge =  0 Multiplicity = 1

                          Input orientation:
 ---------------------------------------------------------------------
 Center     Atomic      Atomic             Coordinates (Angstroms)
 Number     Number       Type             X           Y           Z
 ---------------------------------------------------------------------
      1          6           0       -0.162071    3.915053    0.342934
      2          6           0       -1.378974    3.440211    0.824536
      3          6           0       -1.656950    2.071838    0.797661
      4          6           0        0.787417    3.020451   -0.156434
      5          6           0        0.510792    1.646441   -0.179924
      6          6           0       -0.716677    1.177347    0.293278
      7          6           0        2.073544    3.534465   -0.699577
      8          6           0        3.146387    2.537327   -1.018214
      9          6           0        2.876873    1.201536   -1.066852
     10          6           0        1.522692    0.691027   -0.704746
     11          8           0        2.236416    4.728025   -0.901218
     12          8           0        1.265401   -0.503679   -0.804770
     13          1           0        0.062810    4.973986    0.350288
     14          1           0       -2.111740    4.134916    1.217723
     15          1           0       -2.606297    1.704394    1.169135
     16          1           0       -0.920987    0.114689    0.263131
     17         16           0        4.736217    3.124633   -1.543157
     18          6           0        5.126175    4.537334   -0.438570
     19          6           0        3.883053    0.170084   -1.483347
     20          1           0        6.192554    4.708898   -0.586770
     21          1           0        4.949539    4.262513    0.599994
     22          1           0        4.557266    5.420789   -0.707571
     23          1           0        3.922856    0.086574   -2.575417
     24          1           0        3.611096   -0.808108   -1.090604
     25          1           0        4.882769    0.446455   -1.144281
 ---------------------------------------------------------------------

 SCF Done:  E(UB3LYP) =  -1012.13458825     A.U. after    1 cycles

 Alpha  occ. eigenvalues --  -88.86842 -19.13795 -19.13405 -10.29114 -10.28386
 Alpha  occ. eigenvalues --  -10.23811 -10.22035 -10.21026 -10.20931 -10.20030
 Alpha  occ. eigenvalues --  -10.19990 -10.19979 -10.19934 -10.19901 -10.17470
 Alpha  occ. eigenvalues --   -7.95427  -5.91820  -5.91407  -5.90845  -1.07239
 Alpha  occ. eigenvalues --   -1.06550  -0.89361  -0.86228  -0.80118  -0.78112
 Alpha  occ. eigenvalues --   -0.77995  -0.72826  -0.68914  -0.67018  -0.63134
 Alpha  occ. eigenvalues --   -0.61194  -0.58740  -0.55226  -0.52282  -0.50240
 Alpha  occ. eigenvalues --   -0.47797  -0.46613  -0.46399  -0.45865  -0.45361
 Alpha  occ. eigenvalues --   -0.44326  -0.43449  -0.42781  -0.41585  -0.41432
 Alpha  occ. eigenvalues --   -0.40407  -0.39725  -0.38379  -0.37916  -0.37127
 Alpha  occ. eigenvalues --   -0.34682  -0.30689  -0.29237  -0.28462  -0.28109
 Alpha  occ. eigenvalues --   -0.27680  -0.24217
 Alpha virt. eigenvalues --   -0.12705  -0.05930  -0.03638  -0.00888  -0.00103
 Alpha virt. eigenvalues --    0.00222   0.01522   0.01831   0.02204   0.02584
 Alpha virt. eigenvalues --    0.03254   0.03831   0.04286   0.04407   0.04880

  Beta  occ. eigenvalues --  -88.86842 -19.13795 -19.13405 -10.29114 -10.28386
  Beta  occ. eigenvalues --  -10.23811 -10.22035 -10.21026 -10.20931 -10.20030
  Beta  occ. eigenvalues --  -10.19990 -10.19979 -10.19934 -10.19901 -10.17470
  Beta  occ. eigenvalues --   -7.95427  -5.91820  -5.91407  -5.90845  -1.07239
  Beta  occ. eigenvalues --   -1.06550  -0.89361  -0.86228  -0.80118  -0.78112
  Beta  occ. eigenvalues --   -0.77995  -0.72826  -0.68914  -0.67018  -0.63134
  Beta  occ. eigenvalues --   -0.61194  -0.58740  -0.55226  -0.52282  -0.50240
  Beta  occ. eigenvalues --   -0.47797  -0.46613  -0.46399  -0.45865  -0.45361
  Beta  occ. eigenvalues --   -0.44326  -0.43449  -0.42781  -0.41585  -0.41432
  Beta  occ. eigenvalues --   -0.40407  -0.39725  -0.38379  -0.37916  -0.37127
  Beta  occ. eigenvalues --   -0.34682  -0.30689  -0.29237  -0.28462  -0.28109
  Beta  occ. eigenvalues --   -0.27680  -0.24217
  Beta virt. eigenvalues --   -0.12705  -0.05930  -0.03638  -0.00888  -0.00103
  Beta virt. eigenvalues --    0.00222   0.01522   0.01831   0.02204   0.02584
  Beta virt. eigenvalues --    0.03254   0.03831   0.04286   0.04407   0.04880

 Mulliken charges and spin densities:
               1          2
     1  C    0.094151  -0.000000
     2  C   -0.315859  -0.000000
     3  C   -0.424401   0.000000
     4  C    0.690808   0.000000
     5  C    0.357357   0.000000
     6  C    0.207627   0.000000
     7  C   -1.298164  -0.000000
     8  C    0.790757  -0.000000
     9  C    0.707462   0.000000
    10  C   -0.965661  -0.000000
    11  O   -0.252217   0.000000
    12  O   -0.273649   0.000000
    13  H    0.195090  -0.000000
    14  H    0.211334  -0.000000
    15  H    0.205639   0.000000
    16  H    0.192290  -0.000000
    17  S   -0.512783  -0.000000
    18  C   -0.653817   0.000000
    19  C   -0.095023   0.000000
    20  H    0.173016   0.000000
    21  H    0.202755   0.000000
    22  H    0.219172   0.000000
    23  H    0.214764   0.000000
    24  H    0.178973  -0.000000
    25  H    0.150378   0.000000
 Sum of Mulliken charges =   0.00000   0.00000

 Dipole moment (field-independent basis, Debye):
    X=             -0.6432    Y=              1.4994    Z=              2.6282  Tot=              3.0935
 Quadrupole moment (field-independent basis, Debye-Ang):
   XX=            -78.7985   YY=            -97.7874   ZZ=            -97.5469
   XY=              0.0476   XZ=              1.4218   YZ=              9.3321

  Exact polarizability: 287.029  36.261 300.887 -54.197  10.107 151.443
 Approx polarizability: 304.598  50.847 389.752 -55.124   8.953 174.737

                      1                      2                      3
                      A                      A                      A
 Frequencies --     41.2419                49.8805                72.4027
 Red. masses --      6.3774                 2.7995                 3.5349
 Frc consts  --      0.0064                 0.0041                 0.0109
 IR Inten    --      6.5814                11.4726                 5.4020

                      4                      5                      6
                      A                      A                      A
 Frequencies --    104.6256               113.1022               131.7142
 Red. masses --      1.2407                 3.6573                 1.4695
 Frc consts  --      0.0080                 0.0276                 0.0150
 IR Inten    --      1.2224                 0.1554                 0.6045

                      7                      8                      9
                      A                      A                      A
 Frequencies --    170.1218               192.9164               250.1973
 Red. masses --      5.1133                 2.7725                 4.4755
 Frc consts  --      0.0872                 0.0608                 0.1651
 IR Inten    --      1.4253                 2.3243                 1.5437

                     10                     11                     12
                      A                      A                      A
 Frequencies --    277.7591               291.1302               322.9072
 Red. masses --      4.4802                 5.0627                 5.6369
 Frc consts  --      0.2036                 0.2528                 0.3463
 IR Inten    --      1.6299                 0.1219                 7.1581

                     13                     14                     15
                      A                      A                      A
 Frequencies --    363.4790               394.8816               410.0392
 Red. masses --      4.5782                 7.4406                 5.5441
 Frc consts  --      0.3564                 0.6836                 0.5492
 IR Inten    --      0.5437                14.9737                25.2458

                     16                     17                     18
                      A                      A                      A
 Frequencies --    434.3171               436.5411               493.8545
 Red. masses --      4.0288                 5.0998                 9.5553
 Frc consts  --      0.4478                 0.5726                 1.3731
 IR Inten    --      7.3036                 4.2570                 3.9931

                     19                     20                     21
                      A                      A                      A
 Frequencies --    533.0650               578.6536               663.3216
 Red. masses --      4.8073                 6.6649                 6.3374
 Frc consts  --      0.8048                 1.3149                 1.6429
 IR Inten    --      1.9911                 9.3941                19.4569

                     22                     23                     24
                      A                      A                      A
 Frequencies --    681.2332               698.1275               705.2133
 Red. masses --      6.3115                 5.0287                 5.0193
 Frc consts  --      1.7257                 1.4440                 1.4707
 IR Inten    --      5.2524                 1.7872                 6.4056

                     25                     26                     27
                      A                      A                      A
 Frequencies --    720.0668               798.8722               807.3212
 Red. masses --      2.6638                 2.2903                 2.9297
 Frc consts  --      0.8138                 0.8612                 1.1250
 IR Inten    --    111.3448                23.2387                22.8184

                     28                     29                     30
                      A                      A                      A
 Frequencies --    815.8235               845.8368               913.8325
 Red. masses --      5.1733                 5.5978                 1.4175
 Frc consts  --      2.0287                 2.3596                 0.6974
 IR Inten    --     35.5804               103.1908                 1.1297

                     31                     32                     33
                      A                      A                      A
 Frequencies --    962.1973               974.1560               997.0542
 Red. masses --      5.3035                 1.1787                 1.3320
 Frc consts  --      2.8929                 0.6590                 0.7802
 IR Inten    --     68.9478                10.5805                 4.1959

                     34                     35                     36
                      A                      A                      A
 Frequencies --    999.6296              1021.7493              1035.6805
 Red. masses --      1.3712                 1.3321                 1.7275
 Frc consts  --      0.8073                 0.8194                 1.0918
 IR Inten    --      0.7791                 0.1103                61.2942

                     37                     38                     39
                      A                      A                      A
 Frequencies --   1049.3497              1055.1756              1113.4588
 Red. masses --      2.2737                 1.8539                 2.3814
 Frc consts  --      1.4751                 1.2162                 1.7395
 IR Inten    --     11.6538                49.5272                10.9431

                     40                     41                     42
                      A                      A                      A
 Frequencies --   1120.4826              1179.8719              1197.3637
 Red. masses --      2.8460                 1.1249                 2.5651
 Frc consts  --      2.1052                 0.9226                 2.1668
 IR Inten    --     33.0402                10.8113                74.1608

                     43                     44                     45
                      A                      A                      A
 Frequencies --   1259.2942              1286.7838              1315.3315
 Red. masses --      2.4584                 3.9686                 2.7259
 Frc consts  --      2.2969                 3.8717                 2.7786
 IR Inten    --    183.7650               665.6583               185.8561

                     46                     47                     48
                      A                      A                      A
 Frequencies --   1350.3762              1360.6151              1399.2249
 Red. masses --      1.2221                 6.3451                 1.2356
 Frc consts  --      1.3130                 6.9209                 1.4253
 IR Inten    --      0.8040                31.1315                21.1373

                     49                     50                     51
                      A                      A                      A
 Frequencies --   1452.3149              1459.2031              1473.8774
 Red. masses --      1.0546                 1.0731                 1.0540
 Frc consts  --      1.3105                 1.3462                 1.3490
 IR Inten    --     29.2492                28.3866                30.4346

                     52                     53                     54
                      A                      A                      A
 Frequencies --   1475.4334              1481.5004              1506.3668
 Red. masses --      1.1491                 2.0921                 2.6286
 Frc consts  --      1.4739                 2.7054                 3.5143
 IR Inten    --     27.5389                 6.4889                19.3198

                     55                     56                     57
                      A                      A                      A
 Frequencies --   1584.6432              1619.6494              1622.4732
 Red. masses --      6.8521                 6.2511                 7.1021
 Frc consts  --     10.1376                 9.6616                11.0151
 IR Inten    --    173.2379               233.7488                60.5917

                     58                     59                     60
                      A                      A                      A
 Frequencies --   1677.5295              1698.5576              3025.9641
 Red. masses --     11.7652                12.4168                 1.0471
 Frc consts  --     19.5069                21.1067                 5.6490
 IR Inten    --    628.5899               399.9022                11.4512

                     61                     62                     63
                      A                      A                      A
 Frequencies --   3062.6935              3087.2859              3139.1816
 Red. masses --      1.0305                 1.0879                 1.1008
 Frc consts  --      5.6949                 6.1095                 6.3912
 IR Inten    --     32.1317                13.3155                 7.1436

                     64                     65                     66
                      A                      A                      A
 Frequencies --   3144.2380              3179.0195              3183.3484
 Red. masses --      1.1054                 1.0874                 1.1062
 Frc consts  --      6.4389                 6.4750                 6.6048
 IR Inten    --      6.3208                 3.3990                 5.6374

                     67                     68                     69
                      A                      A                      A
 Frequencies --   3191.2673              3203.7354              3206.7051
 Red. masses --      1.0915                 1.0926                 1.0955
 Frc consts  --      6.5492                 6.6071                 6.6368
 IR Inten    --     10.4580                 3.7188                16.9710

 - Thermochemistry -
 -------------------
 Temperature   298.150 Kelvin.  Pressure   1.00000 Atm.
 Atom     1 has atomic number  6 and mass  12.00000

 Molecular mass:   218.04015 amu.
 Principal axes and moments of inertia in atomic units:
                           1         2         3
     Eigenvalues --  1995.594374140.420295984.30212
           X            0.94238  -0.12022   0.31220
           Y            0.17070   0.97537  -0.13969
           Z           -0.28771   0.18493   0.93969
 This molecule is an asymmetric top.
 Rotational symmetry number  1.
 Warning -- assumption of classical behavior for rotation
           may cause significant error
 Rotational temperatures (Kelvin)      0.04340     0.02092     0.01447
 Rotational constants (GHZ):           0.90436     0.43588     0.30158
 Zero-point vibrational energy     493251.8 (Joules/Mol)
                                  117.89001 (Kcal/Mol)
 Warning -- explicit consideration of  20 degrees of freedom as
           vibrations may cause significant error
 Vibrational temperatures:     59.34    71.77   104.17   150.53   162.73
          (Kelvin)            189.51   244.77   277.56   359.98   399.63
                              418.87   464.59   522.97   568.15   589.96
                              624.89   628.09   710.55   766.96   832.55
                              954.37   980.14  1004.45  1014.64  1036.02
                             1149.40  1161.56  1173.79  1216.97  1314.80
                             1384.39  1401.59  1434.54  1438.24  1470.07
                             1490.11  1509.78  1518.16  1602.02  1612.12
                             1697.57  1722.74  1811.84  1851.39  1892.47
                             1942.89  1957.62  2013.17  2089.56  2099.47
                             2120.58  2122.82  2131.55  2167.33  2279.95
                             2330.31  2334.38  2413.59  2443.85  4353.69
                             4406.53  4441.92  4516.58  4523.86  4573.90
                             4580.13  4591.52  4609.46  4613.73

 Zero-point correction=                           0.187870 (Hartree/Particle)
 Thermal correction to Energy=                    0.201742
 Thermal correction to Enthalpy=                  0.202687
 Thermal correction to Gibbs Free Energy=         0.146289
 Sum of electronic and zero-point Energies=          -1011.946719
 Sum of electronic and thermal Energies=             -1011.932846
 Sum of electronic and thermal Enthalpies=           -1011.931902
 Sum of electronic and thermal Free Energies=        -1011.988299

                     E (Thermal)             CV                S
                      KCal/Mol        Cal/Mol-Kelvin    Cal/Mol-Kelvin
 Total                  126.595             51.607            118.698
 Electronic               0.000              0.000              0.000
 Translational            0.889              2.981             42.042
 Rotational               0.889              2.981             32.269
 Vibrational            124.818             45.645             44.387
 Vibration     1          0.594              1.981              5.199
 Vibration     2          0.595              1.978              4.822
 Vibration     3          0.598              1.967              4.087
 Vibration     4          0.605              1.946              3.366
 Vibration     5          0.607              1.939              3.215
 Vibration     6          0.612              1.922              2.921
 Vibration     7          0.625              1.879              2.434
 Vibration     8          0.635              1.850              2.200
 Vibration     9          0.663              1.762              1.729
 Vibration    10          0.679              1.715              1.547
 Vibration    11          0.687              1.690              1.467
 Vibration    12          0.708              1.630              1.295
 Vibration    13          0.737              1.547              1.107
 Vibration    14          0.762              1.481              0.982
 Vibration    15          0.774              1.448              0.926
 Vibration    16          0.795              1.395              0.845
 Vibration    17          0.797              1.391              0.838
 Vibration    18          0.850              1.264              0.674
 Vibration    19          0.888              1.177              0.580
 Vibration    20          0.935              1.077              0.488

 Optimization completed.
    -- Stationary point found.
 Normal termination of Gaussian 16 at Sun Feb 11 02:10:10 2024.
