 Gaussian 16, Revision A.03,
 Gaussian 16:  ES64L-G16RevA.03 25-Dec-2016

 ----------------------------------------------------------------------
 #P UB3LYP/6-311++G(d,p) nosym opt freq SCRF=(PCM,Solvent=n,n-DiMethylF
 ormamide)
 ----------------------------------------------------------------------

 -------
 Radical
 -------
 Symbolic Z-matrix:
 Charge = -2 Multiplicity = 2

 SCF Done:  E(UB3LYP) =  -1158.87510413     A.U. after   21 cycles
 SCF Done:  E(UB3LYP) =  -1158.87600746     A.U. after   17 cycles
 SCF Done:  E(UB3LYP) =  -1158.87619236     A.U. after   16 cycles
 SCF Done:  E(UB3LYP) =  -1158.87615324     A.U. after   14 cycles
 SCF Done:  E(UB3LYP) =  -1158.87622855     A.U. after   14 cycles
 SCF Done:  E(UB3LYP) =  -1158.87622966     A.U. after   11 cycles
 SCF Done:  E(UB3LYP) =  -1158.87622974     A.U. after   10 cycles
 Optimization completed.
    -- Stationary point found.
 Normal termination of Gaussian 16 at Sun Feb 11 15:25:45 2024.

 ----------------------------------------------------------------------
 #P Geom=AllCheck Guess=TCheck SCRF=Check GenChk UB3LYP/6-311++G(d,p) F
 req
 ----------------------------------------------------------------------

 Structure from the checkpoint file:  "315-rad.chk"
 -------
 Radical
 -------
 Charge = -2 Multiplicity = 2

                          Input orientation:
 ---------------------------------------------------------------------
 Center     Atomic      Atomic             Coordinates (Angstroms)
 Number     Number       Type             X           Y           Z
 ---------------------------------------------------------------------
      1          6           0       -5.042670   -0.093683   -3.946418
      2          6           0       -4.484433   -0.067663   -5.213048
      3          6           0       -3.087984    0.002382   -5.363395
      4          6           0       -4.233275   -0.050690   -2.794213
      5          6           0       -2.825248    0.019844   -2.947133
      6          6           0       -2.275139    0.045201   -4.243972
      7          6           0       -4.877316   -0.080309   -1.460780
      8          6           0       -3.970806   -0.030204   -0.336638
      9          6           0       -2.599417    0.037278   -0.492708
     10          6           0       -1.948134    0.065805   -1.767301
     11          8           0       -6.129200   -0.145282   -1.358896
     12          8           0       -0.686722    0.127025   -1.874793
     13         16           0       -4.623812   -0.058307    1.359497
     14          8           0       -5.494615    1.145833    1.516875
     15          8           0       -5.369571   -1.342774    1.522578
     16          8           0       -3.423729    0.003625    2.249555
     17          1           0       -6.116390   -0.147635   -3.813992
     18          1           0       -5.122809   -0.101188   -6.089270
     19          1           0       -2.650007    0.022873   -6.355475
     20          1           0       -1.197446    0.099209   -4.342130
     21          1           0       -1.969188    0.070631    0.387607
 ---------------------------------------------------------------------

 SCF Done:  E(UB3LYP) =  -1158.87622974     A.U. after    1 cycles

 Alpha  occ. eigenvalues --  -89.03268 -19.07765 -19.07727 -19.07672 -19.07664
 Alpha  occ. eigenvalues --  -19.07607 -10.23033 -10.22248 -10.18436 -10.17622
 Alpha  occ. eigenvalues --  -10.17516 -10.17418 -10.17358 -10.17121 -10.17092
 Alpha  occ. eigenvalues --  -10.16601  -8.09145  -6.05426  -6.05412  -6.05305
 Alpha  occ. eigenvalues --   -1.09286  -1.00292  -0.99729  -0.95556  -0.95490
 Alpha  occ. eigenvalues --   -0.85971  -0.81037  -0.75101  -0.74713  -0.68422
 Alpha  occ. eigenvalues --   -0.63693  -0.61693  -0.57701  -0.55305  -0.50921
 Alpha  occ. eigenvalues --   -0.49963  -0.47878  -0.46089  -0.44122  -0.44099
 Alpha  occ. eigenvalues --   -0.42941  -0.42501  -0.41724  -0.41681  -0.40691
 Alpha  occ. eigenvalues --   -0.38933  -0.37884  -0.35541  -0.35476  -0.33984
 Alpha  occ. eigenvalues --   -0.32132  -0.32060  -0.29853  -0.29084  -0.27953
 Alpha  occ. eigenvalues --   -0.27113  -0.25706  -0.25039  -0.24532  -0.24130
 Alpha  occ. eigenvalues --   -0.23515  -0.15763
 Alpha virt. eigenvalues --   -0.03598  -0.02157   0.00131   0.01419   0.01853
 Alpha virt. eigenvalues --    0.03042   0.03650   0.04378   0.04612   0.05001
 Alpha virt. eigenvalues --    0.05790   0.06462   0.06519   0.06582   0.07645

  Beta  occ. eigenvalues --  -89.03271 -19.07657 -19.07648 -19.07613 -19.07136
  Beta  occ. eigenvalues --  -19.07086 -10.22907 -10.22102 -10.18267 -10.17578
  Beta  occ. eigenvalues --  -10.17488 -10.17399 -10.17329 -10.17107 -10.17093
  Beta  occ. eigenvalues --  -10.16394  -8.09149  -6.05428  -6.05415  -6.05313
  Beta  occ. eigenvalues --   -1.09271  -0.99265  -0.98535  -0.95522  -0.95485
  Beta  occ. eigenvalues --   -0.85782  -0.80477  -0.74940  -0.74524  -0.67476
  Beta  occ. eigenvalues --   -0.63475  -0.61448  -0.57539  -0.55066  -0.50699
  Beta  occ. eigenvalues --   -0.49772  -0.47600  -0.45976  -0.44068  -0.43972
  Beta  occ. eigenvalues --   -0.42851  -0.42442  -0.41363  -0.40349  -0.40131
  Beta  occ. eigenvalues --   -0.38656  -0.35421  -0.35401  -0.34555  -0.33863
  Beta  occ. eigenvalues --   -0.32106  -0.32026  -0.28999  -0.28885  -0.27926
  Beta  occ. eigenvalues --   -0.25125  -0.24786  -0.24412  -0.24098  -0.23933
  Beta  occ. eigenvalues --   -0.22990
  Beta virt. eigenvalues --   -0.08973  -0.02838  -0.01016   0.00144   0.01435
  Beta virt. eigenvalues --    0.01863   0.03064   0.03667   0.04659   0.05039
  Beta virt. eigenvalues --    0.05603   0.05801   0.06535   0.06853   0.06978

 Mulliken charges and spin densities:
               1          2
     1  C    0.112693   0.021626
     2  C   -0.409912   0.025168
     3  C   -0.381310   0.011478
     4  C   -0.019453   0.002352
     5  C    0.549066   0.037195
     6  C    0.062726   0.021050
     7  C   -0.572388   0.084681
     8  C   -0.503014   0.113330
     9  C    0.077923   0.143346
    10  C   -0.460957   0.081026
    11  O   -0.415316   0.221886
    12  O   -0.486367   0.244938
    13  S    0.755018  -0.000150
    14  O   -0.398981   0.007492
    15  O   -0.399266   0.007538
    16  O   -0.442364  -0.001520
    17  H    0.166596  -0.002013
    18  H    0.183232  -0.001987
    19  H    0.185748  -0.001075
    20  H    0.161468  -0.003293
    21  H    0.234860  -0.013067
 Sum of Mulliken charges =  -2.00000   1.00000

 Dipole moment (field-independent basis, Debye):
    X=             40.2234    Y=              0.3928    Z=             -4.2624  Tot=             40.4505
 Quadrupole moment (field-independent basis, Debye-Ang):
   XX=           -320.0946   YY=           -115.0195   ZZ=           -130.4683
   XY=             -3.4380   XZ=             32.1831   YZ=              0.8140

  Exact polarizability: 312.695   8.841 135.920 -13.656  -0.259 322.731
 Approx polarizability: 373.340  10.868 156.794  -8.005  -0.012 325.084

                      1                      2                      3
                      A                      A                      A
 Frequencies --     37.0014                67.6021               118.5533
 Red. masses --     10.0257                10.7409                 4.6457
 Frc consts  --      0.0081                 0.0289                 0.0385
 IR Inten    --      3.0815                 0.5372                 0.0619

                      4                      5                      6
                      A                      A                      A
 Frequencies --    139.5140               145.8951               197.4983
 Red. masses --     10.9471                 9.9327                 6.2224
 Frc consts  --      0.1255                 0.1246                 0.1430
 IR Inten    --     13.4831                 1.8809                 0.0841

                      7                      8                      9
                      A                      A                      A
 Frequencies --    239.7059               267.6574               271.9911
 Red. masses --     12.3702                 6.9297                 6.9905
 Frc consts  --      0.4188                 0.2925                 0.3047
 IR Inten    --      3.0036                 1.9461                 1.4352

                     10                     11                     12
                      A                      A                      A
 Frequencies --    299.7719               363.7260               399.7776
 Red. masses --     15.8828                10.6839                 5.8605
 Frc consts  --      0.8409                 0.8328                 0.5519
 IR Inten    --      3.7662                27.7423                 0.2446

                     13                     14                     15
                      A                      A                      A
 Frequencies --    436.2664               470.0189               478.6524
 Red. masses --      3.9220                10.1185                 5.5386
 Frc consts  --      0.4398                 1.3170                 0.7476
 IR Inten    --      9.0597                 1.2889                10.7727

                     16                     17                     18
                      A                      A                      A
 Frequencies --    490.4448               492.8450               532.3864
 Red. masses --      9.7625                15.0582                 7.8258
 Frc consts  --      1.3835                 2.1550                 1.3069
 IR Inten    --     12.9451                38.3569                26.7985

                     19                     20                     21
                      A                      A                      A
 Frequencies --    573.3980               623.6549               656.1574
 Red. masses --     10.6379                 9.8708                 3.3065
 Frc consts  --      2.0607                 2.2620                 0.8388
 IR Inten    --    217.6648               202.1737                 9.9431

                     22                     23                     24
                      A                      A                      A
 Frequencies --    671.7790               702.4658               724.7248
 Red. masses --      6.3234                 3.6497                 6.3889
 Frc consts  --      1.6813                 1.0611                 1.9771
 IR Inten    --     15.2268                69.1747                24.3109

                     25                     26                     27
                      A                      A                      A
 Frequencies --    778.8991               790.5021               827.0045
 Red. masses --      2.3745                 2.3190                 7.1158
 Frc consts  --      0.8488                 0.8538                 2.8674
 IR Inten    --     45.6505                27.4664                52.0568

                     28                     29                     30
                      A                      A                      A
 Frequencies --    832.4145               884.7278               888.8294
 Red. masses --      6.1276                 1.4886                 1.4135
 Frc consts  --      2.5016                 0.6865                 0.6579
 IR Inten    --      4.8091                19.5530                 9.1438

                     31                     32                     33
                      A                      A                      A
 Frequencies --    966.8435               984.5420              1003.1834
 Red. masses --     15.8006                 1.3784                 1.2961
 Frc consts  --      8.7023                 0.7872                 0.7685
 IR Inten    --    405.7271                 1.7344                 0.1185

                     34                     35                     36
                      A                      A                      A
 Frequencies --   1034.5843              1087.3119              1096.3718
 Red. masses --      2.3367                 3.3175                 9.0596
 Frc consts  --      1.4736                 2.3108                 6.4162
 IR Inten    --     56.8219                54.8618               467.7592

                     37                     38                     39
                      A                      A                      A
 Frequencies --   1101.0123              1104.8029              1141.4591
 Red. masses --     18.6473                 3.2694                 1.6166
 Frc consts  --     13.3183                 2.3512                 1.2410
 IR Inten    --    598.5923                28.6977                75.3374

                     40                     41                     42
                      A                      A                      A
 Frequencies --   1160.5442              1215.9299              1239.9669
 Red. masses --      1.4390                 2.1524                 2.2737
 Frc consts  --      1.1419                 1.8749                 2.0597
 IR Inten    --     12.8970                21.6379                72.1930

                     43                     44                     45
                      A                      A                      A
 Frequencies --   1288.0779              1351.4313              1383.9174
 Red. masses --      1.9271                 9.4603                 3.5234
 Frc consts  --      1.8838                10.1799                 3.9758
 IR Inten    --     23.1358                 0.8656                21.2384

                     46                     47                     48
                      A                      A                      A
 Frequencies --   1456.3703              1457.8994              1481.8586
 Red. masses --      5.7332                 2.9253                 3.8814
 Frc consts  --      7.1646                 3.6633                 5.0217
 IR Inten    --    543.6586               306.4434                 7.1126

                     49                     50                     51
                      A                      A                      A
 Frequencies --   1515.8639              1551.8638              1614.8985
 Red. masses --      5.2369                 5.4728                 7.9040
 Frc consts  --      7.0900                 7.7654                12.1447
 IR Inten    --   1072.5954                25.6882                 0.4966

                     52                     53                     54
                      A                      A                      A
 Frequencies --   1631.9492              3160.0339              3173.4710
 Red. masses --      6.0746                 1.0861                 1.0901
 Frc consts  --      9.5319                 6.3898                 6.4680
 IR Inten    --      6.7139                 8.4433                18.4069

                     55                     56                     57
                      A                      A                      A
 Frequencies --   3186.7774              3190.8299              3192.1383
 Red. masses --      1.0923                 1.0950                 1.0884
 Frc consts  --      6.5360                 6.5688                 6.5343
 IR Inten    --     17.2383                34.2447                19.9127

 - Thermochemistry -
 -------------------
 Temperature   298.150 Kelvin.  Pressure   1.00000 Atm.
 Atom     1 has atomic number  6 and mass  12.00000

 Molecular mass:   236.98577 amu.
 Principal axes and moments of inertia in atomic units:
                           1         2         3
     Eigenvalues --  1781.791395417.110746844.25693
           X           -0.24905   0.96720  -0.04991
           Y           -0.00998   0.04897   0.99875
           Z            0.96844   0.24924  -0.00254
 This molecule is an asymmetric top.
 Rotational symmetry number  1.
 Warning -- assumption of classical behavior for rotation
           may cause significant error
 Rotational temperatures (Kelvin)      0.04861     0.01599     0.01265
 Rotational constants (GHZ):           1.01288     0.33316     0.26369
 Zero-point vibrational energy     347980.5 (Joules/Mol)
                                   83.16934 (Kcal/Mol)
 Warning -- explicit consideration of  19 degrees of freedom as
           vibrations may cause significant error
 Vibrational temperatures:     53.24    97.26   170.57   200.73   209.91
          (Kelvin)            284.16   344.88   385.10   391.33   431.30
                              523.32   575.19   627.69   676.25   688.67
                              705.64   709.09   765.99   824.99   897.30
                              944.06   966.54  1010.69  1042.72  1120.66
                             1137.36  1189.88  1197.66  1272.93  1278.83
                             1391.07  1416.54  1443.36  1488.54  1564.40
                             1577.43  1584.11  1589.56  1642.31  1669.76
                             1749.45  1784.04  1853.26  1944.41  1991.15
                             2095.39  2097.59  2132.06  2180.99  2232.79
                             2323.48  2348.01  4546.58  4565.92  4585.06
                             4590.89  4592.78

 Zero-point correction=                           0.132539 (Hartree/Particle)
 Thermal correction to Energy=                    0.145125
 Thermal correction to Enthalpy=                  0.146069
 Thermal correction to Gibbs Free Energy=         0.092073
 Sum of electronic and zero-point Energies=          -1158.743691
 Sum of electronic and thermal Energies=             -1158.731105
 Sum of electronic and thermal Enthalpies=           -1158.730161
 Sum of electronic and thermal Free Energies=        -1158.784156

                     E (Thermal)             CV                S
                      KCal/Mol        Cal/Mol-Kelvin    Cal/Mol-Kelvin
 Total                   91.067             48.615            113.644
 Electronic               0.000              0.000              1.377
 Translational            0.889              2.981             42.290
 Rotational               0.889              2.981             32.557
 Vibrational             89.290             42.653             37.419
 Vibration     1          0.594              1.982              5.413
 Vibration     2          0.598              1.970              4.222
 Vibration     3          0.609              1.934              3.124
 Vibration     4          0.615              1.914              2.811
 Vibration     5          0.617              1.907              2.725
 Vibration     6          0.637              1.843              2.156
 Vibration     7          0.657              1.780              1.805
 Vibration     8          0.673              1.733              1.611
 Vibration     9          0.675              1.725              1.584
 Vibration    10          0.692              1.674              1.418
 Vibration    11          0.737              1.547              1.106
 Vibration    12          0.766              1.471              0.963
 Vibration    13          0.797              1.391              0.838
 Vibration    14          0.827              1.317              0.737
 Vibration    15          0.835              1.297              0.714
 Vibration    16          0.846              1.271              0.682
 Vibration    17          0.849              1.266              0.676
 Vibration    18          0.887              1.178              0.582
 Vibration    19          0.930              1.089              0.498

                           ! Non-Optimized Parameters !
 Normal termination of Gaussian 16 at Sun Feb 11 15:57:21 2024.
