 Gaussian 16, Revision A.03,
 Gaussian 16:  ES64L-G16RevA.03 25-Dec-2016

 ----------------------------------------------------------------
 #P UB3LYP/6-311++G(d,p) SCRF=(PCM,Solvent=n,n-DiMethylFormamide)
 ----------------------------------------------------------------

 ------------------
 Quinone PCM in DMF
 ------------------
 Symbolic Z-matrix:
 Charge =  0 Multiplicity = 1

                         Standard orientation:
 ---------------------------------------------------------------------
 Center     Atomic      Atomic             Coordinates (Angstroms)
 Number     Number       Type             X           Y           Z
 ---------------------------------------------------------------------
      1          6           0       -0.745053    1.259335   -0.000069
      2          6           0        0.789292    1.190366    0.000125
      3          6           0        1.449140   -0.008123    0.000446
      4          6           0        0.745053   -1.259335    0.000975
      5          6           0       -0.789292   -1.190366    0.000265
      6          6           0       -1.449140    0.008124   -0.000050
      7          8           0        1.257514   -2.368767   -0.000540
      8          8           0       -1.257515    2.368767    0.000536
      9         35           0       -3.357144    0.061339   -0.000178
     10         35           0        3.357144   -0.061339   -0.000110
     11          7           0       -1.359041   -2.397683    0.000218
     12          7           0        1.359041    2.397683   -0.000195
     13          1           0       -0.743706   -3.200873    0.000639
     14          1           0       -2.361201   -2.502988   -0.000003
     15          1           0        0.743706    3.200873   -0.000483
     16          1           0        2.361201    2.502988   -0.000319
 ---------------------------------------------------------------------

 SCF Done:  E(UB3LYP) =  -5639.44605237     A.U. after   15 cycles

 The electronic state is 1-A.
 Alpha  occ. eigenvalues -- -482.84679-482.84679 -62.49947 -62.49947 -56.31987
 Alpha  occ. eigenvalues --  -56.31987 -56.31594 -56.31594 -56.31585 -56.31585
 Alpha  occ. eigenvalues --  -19.13817 -19.13817 -14.36929 -14.36929 -10.29611
 Alpha  occ. eigenvalues --  -10.29610 -10.27461 -10.27460 -10.23847 -10.23846
 Alpha  occ. eigenvalues --   -8.70915  -8.70914  -6.54061  -6.54061  -6.52751
 Alpha  occ. eigenvalues --   -6.52751  -6.52740  -6.52740  -2.65153  -2.65153
 Alpha  occ. eigenvalues --   -2.64772  -2.64772  -2.64769  -2.64768  -2.63727
 Alpha  occ. eigenvalues --   -2.63726  -2.63725  -2.63725  -1.07915  -1.07638
 Alpha  occ. eigenvalues --   -0.97286  -0.97124  -0.86539  -0.83762  -0.79515
 Alpha  occ. eigenvalues --   -0.73866  -0.70963  -0.64380  -0.62870  -0.60597
 Alpha  occ. eigenvalues --   -0.54716  -0.53917  -0.52992  -0.49140  -0.47553
 Alpha  occ. eigenvalues --   -0.46472  -0.46118  -0.43757  -0.43337  -0.40558
 Alpha  occ. eigenvalues --   -0.40478  -0.37121  -0.32979  -0.32374  -0.31374
 Alpha  occ. eigenvalues --   -0.31334  -0.30359  -0.29247  -0.26474  -0.23424
 Alpha virt. eigenvalues --   -0.12398  -0.02775  -0.02691  -0.01059  -0.00298
 Alpha virt. eigenvalues --    0.00280   0.00429   0.01523   0.02663   0.03447
 Alpha virt. eigenvalues --    0.03642   0.04479   0.04939   0.05721   0.06747

  Beta  occ. eigenvalues -- -482.84679-482.84679 -62.49947 -62.49947 -56.31987
  Beta  occ. eigenvalues --  -56.31987 -56.31594 -56.31594 -56.31585 -56.31585
  Beta  occ. eigenvalues --  -19.13817 -19.13817 -14.36929 -14.36929 -10.29611
  Beta  occ. eigenvalues --  -10.29610 -10.27461 -10.27460 -10.23847 -10.23846
  Beta  occ. eigenvalues --   -8.70915  -8.70914  -6.54061  -6.54061  -6.52751
  Beta  occ. eigenvalues --   -6.52751  -6.52740  -6.52740  -2.65153  -2.65153
  Beta  occ. eigenvalues --   -2.64772  -2.64772  -2.64769  -2.64768  -2.63727
  Beta  occ. eigenvalues --   -2.63726  -2.63725  -2.63725  -1.07915  -1.07638
  Beta  occ. eigenvalues --   -0.97286  -0.97124  -0.86539  -0.83762  -0.79515
  Beta  occ. eigenvalues --   -0.73866  -0.70963  -0.64380  -0.62870  -0.60597
  Beta  occ. eigenvalues --   -0.54716  -0.53917  -0.52992  -0.49140  -0.47553
  Beta  occ. eigenvalues --   -0.46472  -0.46118  -0.43757  -0.43337  -0.40558
  Beta  occ. eigenvalues --   -0.40478  -0.37121  -0.32979  -0.32374  -0.31374
  Beta  occ. eigenvalues --   -0.31334  -0.30359  -0.29247  -0.26474  -0.23424
  Beta virt. eigenvalues --   -0.12398  -0.02775  -0.02691  -0.01059  -0.00298
  Beta virt. eigenvalues --    0.00280   0.00429   0.01523   0.02663   0.03447
  Beta virt. eigenvalues --    0.03642   0.04479   0.04939   0.05721   0.06747

 Mulliken charges and spin densities:
               1          2
     1  C   -0.603851   0.000000
     2  C   -0.908894  -0.000000
     3  C    1.529247   0.000000
     4  C   -0.603832  -0.000000
     5  C   -0.908871  -0.000000
     6  C    1.529213   0.000000
     7  O   -0.315540  -0.000000
     8  O   -0.315541   0.000000
     9  Br  -0.081211   0.000000
    10  Br  -0.081210   0.000000
    11  N   -0.250955   0.000000
    12  N   -0.250957   0.000000
    13  H    0.329754  -0.000000
    14  H    0.301447  -0.000000
    15  H    0.329754  -0.000000
    16  H    0.301447  -0.000000
 Sum of Mulliken charges =  -0.00000   0.00000

 Dipole moment (field-independent basis, Debye):
    X=             -0.0000    Y=             -0.0000    Z=              0.0010  Tot=              0.0010
 Quadrupole moment (field-independent basis, Debye-Ang):
   XX=            -95.8011   YY=            -87.2669   ZZ=            -95.8490
   XY=             23.5592   XZ=              0.0012   YZ=             -0.0137

 Normal termination of Gaussian 16 at Sun Jan 21 06:51:46 2024.
