 Gaussian 16, Revision A.03,
 Gaussian 16:  ES64L-G16RevA.03 25-Dec-2016

 --------------------------------------
 #P UB3LYP/6-311++G(d,p) nosym opt freq
 --------------------------------------

 --------
 Oxidized
 --------
 Symbolic Z-matrix:
 Charge =  0 Multiplicity = 1

 SCF Done:  E(UB3LYP) =  -5639.43253248     A.U. after   16 cycles
 SCF Done:  E(UB3LYP) =  -5639.43253221     A.U. after   10 cycles
 Optimization completed.
    -- Stationary point found.
 Normal termination of Gaussian 16 at Sat Jan  6 05:40:40 2024.

 ----------------------------------------------------------------------
 #P Geom=AllCheck Guess=TCheck SCRF=Check GenChk UB3LYP/6-311++G(d,p) F
 req
 ----------------------------------------------------------------------

 Structure from the checkpoint file:  "024.chk"
 --------
 Oxidized
 --------
 Charge =  0 Multiplicity = 1

                          Input orientation:
 ---------------------------------------------------------------------
 Center     Atomic      Atomic             Coordinates (Angstroms)
 Number     Number       Type             X           Y           Z
 ---------------------------------------------------------------------
      1          6           0       -1.650537    0.786466    1.629510
      2          6           0       -2.900303    1.061741    0.780228
      3          6           0       -2.863413    0.993261   -0.585688
      4          6           0       -1.659440    0.662196   -1.294288
      5          6           0       -0.409799    0.386421   -0.444984
      6          6           0       -0.446688    0.454906    0.920932
      7          8           0       -1.543442    0.578707   -2.507973
      8          8           0       -1.766755    0.869073    2.843234
      9         35           0        1.123454    0.107493    1.949168
     10         35           0       -4.433721    1.340011   -1.613896
     11          7           0        0.660074    0.086874   -1.185168
     12          7           0       -3.970265    1.360932    1.520427
     13          1           0        0.540002    0.073465   -2.189734
     14          1           0        1.550213   -0.117080   -0.759175
     15          1           0       -3.850161    1.374470    2.524988
     16          1           0       -4.860487    1.564552    1.094449
 ---------------------------------------------------------------------

 SCF Done:  E(UB3LYP) =  -5639.43253221     A.U. after    1 cycles

 Alpha  occ. eigenvalues -- -482.84613-482.84613 -62.49880 -62.49880 -56.31923
 Alpha  occ. eigenvalues --  -56.31923 -56.31524 -56.31524 -56.31517 -56.31517
 Alpha  occ. eigenvalues --  -19.13796 -19.13795 -14.37551 -14.37551 -10.29613
 Alpha  occ. eigenvalues --  -10.29612 -10.27672 -10.27671 -10.24162 -10.24161
 Alpha  occ. eigenvalues --   -8.70845  -8.70845  -6.54003  -6.54003  -6.52672
 Alpha  occ. eigenvalues --   -6.52672  -6.52668  -6.52668  -2.65092  -2.65092
 Alpha  occ. eigenvalues --   -2.64705  -2.64705  -2.64705  -2.64704  -2.63647
 Alpha  occ. eigenvalues --   -2.63647  -2.63646  -2.63645  -1.07823  -1.07526
 Alpha  occ. eigenvalues --   -0.97845  -0.97733  -0.86819  -0.83855  -0.79559
 Alpha  occ. eigenvalues --   -0.74172  -0.71183  -0.64974  -0.63201  -0.61149
 Alpha  occ. eigenvalues --   -0.55326  -0.54164  -0.53565  -0.49495  -0.47763
 Alpha  occ. eigenvalues --   -0.46171  -0.45880  -0.43825  -0.43374  -0.40906
 Alpha  occ. eigenvalues --   -0.40523  -0.37299  -0.32979  -0.32352  -0.31250
 Alpha  occ. eigenvalues --   -0.31220  -0.30122  -0.29066  -0.26684  -0.23678
 Alpha virt. eigenvalues --   -0.12576  -0.03151  -0.02848  -0.01385  -0.00989
 Alpha virt. eigenvalues --   -0.00889   0.00176   0.01752   0.01776   0.02737
 Alpha virt. eigenvalues --    0.03556   0.04869   0.05111   0.05193   0.06566

  Beta  occ. eigenvalues -- -482.84613-482.84613 -62.49880 -62.49880 -56.31923
  Beta  occ. eigenvalues --  -56.31923 -56.31524 -56.31524 -56.31517 -56.31517
  Beta  occ. eigenvalues --  -19.13796 -19.13795 -14.37551 -14.37551 -10.29613
  Beta  occ. eigenvalues --  -10.29612 -10.27672 -10.27671 -10.24162 -10.24161
  Beta  occ. eigenvalues --   -8.70845  -8.70845  -6.54003  -6.54003  -6.52672
  Beta  occ. eigenvalues --   -6.52672  -6.52668  -6.52668  -2.65092  -2.65092
  Beta  occ. eigenvalues --   -2.64705  -2.64705  -2.64705  -2.64704  -2.63647
  Beta  occ. eigenvalues --   -2.63647  -2.63646  -2.63645  -1.07823  -1.07526
  Beta  occ. eigenvalues --   -0.97845  -0.97733  -0.86819  -0.83855  -0.79559
  Beta  occ. eigenvalues --   -0.74172  -0.71183  -0.64974  -0.63201  -0.61149
  Beta  occ. eigenvalues --   -0.55326  -0.54164  -0.53565  -0.49495  -0.47763
  Beta  occ. eigenvalues --   -0.46171  -0.45880  -0.43825  -0.43374  -0.40906
  Beta  occ. eigenvalues --   -0.40523  -0.37299  -0.32979  -0.32352  -0.31250
  Beta  occ. eigenvalues --   -0.31220  -0.30122  -0.29066  -0.26684  -0.23678
  Beta virt. eigenvalues --   -0.12576  -0.03151  -0.02848  -0.01385  -0.00989
  Beta virt. eigenvalues --   -0.00889   0.00176   0.01752   0.01776   0.02737
  Beta virt. eigenvalues --    0.03556   0.04869   0.05111   0.05193   0.06566

 Mulliken charges and spin densities:
               1          2
     1  C   -0.671793   0.000000
     2  C   -0.990463   0.000000
     3  C    1.648417  -0.000000
     4  C   -0.671771   0.000000
     5  C   -0.990439  -0.000000
     6  C    1.648383  -0.000000
     7  O   -0.252388  -0.000000
     8  O   -0.252390  -0.000000
     9  Br  -0.075779  -0.000000
    10  Br  -0.075779  -0.000000
    11  N   -0.237941  -0.000000
    12  N   -0.237943  -0.000000
    13  H    0.310700   0.000000
    14  H    0.269243   0.000000
    15  H    0.310701   0.000000
    16  H    0.269243   0.000000
 Sum of Mulliken charges =  -0.00000   0.00000

 Dipole moment (field-independent basis, Debye):
    X=              0.0002    Y=              0.0007    Z=             -0.0000  Tot=              0.0007
 Quadrupole moment (field-independent basis, Debye-Ang):
   XX=            -77.8629   YY=            -94.4742   ZZ=           -106.2717
   XY=             -4.9849   XZ=            -11.5339   YZ=              2.4141

  Exact polarizability: 163.386 -22.544  78.250   3.684   3.718 178.758
 Approx polarizability: 232.894 -31.602 121.429 -36.309  20.180 366.901

                      1                      2                      3
                      A                      A                      A
 Frequencies --     54.5274                82.6362               105.5553
 Red. masses --     17.2410                 8.8978                10.2702
 Frc consts  --      0.0302                 0.0358                 0.0674
 IR Inten    --      0.0262                 4.7412                 0.0000

                      4                      5                      6
                      A                      A                      A
 Frequencies --    145.1914               174.8819               184.7400
 Red. masses --     16.2489                 6.2801                11.5431
 Frc consts  --      0.2018                 0.1132                 0.2321
 IR Inten    --      0.1144                 3.8682                 0.0000

                      7                      8                      9
                      A                      A                      A
 Frequencies --    198.4289               245.3583               280.3956
 Red. masses --     18.5753                11.0182                 6.1816
 Frc consts  --      0.4309                 0.3908                 0.2863
 IR Inten    --      0.0000                 0.0000                 5.5120

                     10                     11                     12
                      A                      A                      A
 Frequencies --    358.2033               365.6961               371.9344
 Red. masses --      1.1298                 1.1873                 4.4291
 Frc consts  --      0.0854                 0.0935                 0.3610
 IR Inten    --      0.0001               331.2506                 0.0045

                     13                     14                     15
                      A                      A                      A
 Frequencies --    383.0904               396.7669               499.1957
 Red. masses --      4.6583                 7.9742                 6.4393
 Frc consts  --      0.4028                 0.7396                 0.9454
 IR Inten    --     19.6242                 0.0000                 0.0057

                     16                     17                     18
                      A                      A                      A
 Frequencies --    499.5911               530.1833               549.1420
 Red. masses --      8.2977                 9.2646                 4.8764
 Frc consts  --      1.2202                 1.5344                 0.8664
 IR Inten    --     31.8018                 0.0000                36.5626

                     19                     20                     21
                      A                      A                      A
 Frequencies --    654.7707               657.5548               709.5672
 Red. masses --      1.1778                 1.1458                 3.9091
 Frc consts  --      0.2975                 0.2919                 1.1596
 IR Inten    --      5.4044                 0.0000                 0.0000

                     22                     23                     24
                      A                      A                      A
 Frequencies --    727.3286               754.2767               772.0397
 Red. masses --      8.6120                 9.9387                 6.2836
 Frc consts  --      2.6842                 3.3315                 2.2067
 IR Inten    --      0.0001                10.9958                37.4945

                     25                     26                     27
                      A                      A                      A
 Frequencies --    817.5760               921.4138              1109.5932
 Red. masses --     10.7325                 3.7447                 1.8884
 Frc consts  --      4.2268                 1.8732                 1.3699
 IR Inten    --      0.0000               140.3641                 0.0000

                     28                     29                     30
                      A                      A                      A
 Frequencies --   1129.1467              1299.6332              1302.7092
 Red. masses --      2.4912                 7.5859                 4.9840
 Frc consts  --      1.8714                 7.5492                 4.9833
 IR Inten    --     25.2642                 0.0000               136.0087

                     31                     32                     33
                      A                      A                      A
 Frequencies --   1362.8937              1369.4664              1560.0367
 Red. masses --      3.4454                 4.5008                 1.7277
 Frc consts  --      3.7706                 4.9733                 2.4773
 IR Inten    --      0.0000               157.0017                 0.0000

                     34                     35                     36
                      A                      A                      A
 Frequencies --   1569.3230              1636.8683              1660.0136
 Red. masses --      1.4054                 7.1950                 3.5976
 Frc consts  --      2.0393                11.3582                 5.8410
 IR Inten    --    132.6867              1582.2709                 0.0000

                     37                     38                     39
                      A                      A                      A
 Frequencies --   1700.3950              1725.8458              3546.4534
 Red. masses --     10.2557                 7.5680                 1.0454
 Frc consts  --     17.4708                13.2812                 7.7466
 IR Inten    --      0.0000               118.3955                 0.0000

                     40                     41                     42
                      A                      A                      A
 Frequencies --   3549.2932              3688.3855              3688.4827
 Red. masses --      1.0457                 1.1044                 1.1042
 Frc consts  --      7.7617                 8.8523                 8.8507
 IR Inten    --    247.3051               179.7817                 0.0002

 - Thermochemistry -
 -------------------
 Temperature   298.150 Kelvin.  Pressure   1.00000 Atm.
 Atom     1 has atomic number  6 and mass  12.00000

 Molecular mass:   293.86395 amu.
 Principal axes and moments of inertia in atomic units:
                           1         2         3
     Eigenvalues --  1593.341977043.889438637.23118
           X            0.83011  -0.50230   0.24210
           Y           -0.18436   0.16252   0.96933
           Z            0.52624   0.84928  -0.04230
 This molecule is an asymmetric top.
 Rotational symmetry number  1.
 Warning -- assumption of classical behavior for rotation
           may cause significant error
 Rotational temperatures (Kelvin)      0.05436     0.01230     0.01003
 Rotational constants (GHZ):           1.13268     0.25621     0.20895
 Zero-point vibrational energy     259222.3 (Joules/Mol)
                                   61.95562 (Kcal/Mol)
 Warning -- explicit consideration of  18 degrees of freedom as
           vibrations may cause significant error
 Vibrational temperatures:     78.45   118.89   151.87   208.90   251.62
          (Kelvin)            265.80   285.49   353.02   403.43   515.37
                              526.16   535.13   551.18   570.86   718.23
                              718.80   762.82   790.09   942.07   946.07
                             1020.91  1046.46  1085.24  1110.79  1176.31
                             1325.71  1596.46  1624.59  1869.88  1874.31
                             1960.90  1970.36  2244.54  2257.91  2355.09
                             2388.39  2446.49  2483.11  5102.56  5106.64
                             5306.76  5306.90

 Zero-point correction=                           0.098733 (Hartree/Particle)
 Thermal correction to Energy=                    0.110617
 Thermal correction to Enthalpy=                  0.111561
 Thermal correction to Gibbs Free Energy=         0.058996
 Sum of electronic and zero-point Energies=          -5639.333800
 Sum of electronic and thermal Energies=             -5639.321916
 Sum of electronic and thermal Enthalpies=           -5639.320971
 Sum of electronic and thermal Free Energies=        -5639.373536

                     E (Thermal)             CV                S
                      KCal/Mol        Cal/Mol-Kelvin    Cal/Mol-Kelvin
 Total                   69.413             42.527            110.631
 Electronic               0.000              0.000              0.000
 Translational            0.889              2.981             42.931
 Rotational               0.889              2.981             32.938
 Vibrational             67.636             36.566             34.762
 Vibration     1          0.596              1.976              4.646
 Vibration     2          0.600              1.961              3.827
 Vibration     3          0.605              1.945              3.349
 Vibration     4          0.617              1.908              2.734
 Vibration     5          0.627              1.873              2.382
 Vibration     6          0.631              1.861              2.280
 Vibration     7          0.637              1.842              2.148
 Vibration     8          0.660              1.770              1.764
 Vibration     9          0.680              1.710              1.531
 Vibration    10          0.733              1.558              1.130
 Vibration    11          0.739              1.543              1.098
 Vibration    12          0.744              1.530              1.072
 Vibration    13          0.752              1.506              1.027
 Vibration    14          0.763              1.477              0.975
 Vibration    15          0.855              1.252              0.660
 Vibration    16          0.855              1.251              0.659
 Vibration    17          0.885              1.183              0.587
 Vibration    18          0.904              1.142              0.546

 Optimization completed.
    -- Stationary point found.
 Normal termination of Gaussian 16 at Sat Jan  6 05:52:51 2024.
