 Q-Chem 5.4, Q-Chem, Inc., Pleasanton, CA (2021)
 Q-Chem 5.4.0 for Intel X86 EM64T Linux

User input:
--------------------------------------------------------------
$molecule
0 1
Cl                -3.0835280000      0.6939830000      0.1054540000
C                 -1.4109070000      0.2579660000      0.0482930000
C                 -1.0085060000     -1.0200780000      0.0355030000
C                  0.4232520000     -1.3920380000     -0.0134570000
O                  0.7712370000     -2.5532850000     -0.0245630000
C                  1.4108730000     -0.2579330000     -0.0482930000
C                  1.0084980000      1.0200600000     -0.0355040000
C                 -0.4231940000      1.3920810000      0.0134520000
O                 -0.7712580000      2.5533230000      0.0245680000
Cl                 3.0835510000     -0.6940710000     -0.1054550000
H                 -1.7056200000     -1.8482970000      0.0601360000
H                  1.7056020000      1.8482890000     -0.0601350000
$end
$rem
MAX_SCF_CYCLES=200
BASIS  =  6-311++G(d,p)
GUI  =  2
JOB_TYPE  =  SP
METHOD  =  B3LYP
SOLVENT_METHOD = PCM
$end
$pcm
theory = CPCM
$end
$solvent
dielectric 37.219
opticaldielectric 1.43
$end

--------------------------------------------------------------

             Standard Nuclear Orientation (Angstroms)
    I     Atom           X                Y                Z
 ----------------------------------------------------------------
    1      Cl     -3.0835280000     0.6939830000     0.1054540000
    2      C      -1.4109070000     0.2579660000     0.0482930000
    3      C      -1.0085060000    -1.0200780000     0.0355030000
    4      C       0.4232520000    -1.3920380000    -0.0134570000
    5      O       0.7712370000    -2.5532850000    -0.0245630000
    6      C       1.4108730000    -0.2579330000    -0.0482930000
    7      C       1.0084980000     1.0200600000    -0.0355040000
    8      C      -0.4231940000     1.3920810000     0.0134520000
    9      O      -0.7712580000     2.5533230000     0.0245680000
   10      Cl      3.0835510000    -0.6940710000    -0.1054550000
   11      H      -1.7056200000    -1.8482970000     0.0601360000
   12      H       1.7056020000     1.8482890000    -0.0601350000
 ----------------------------------------------------------------

    9   -1300.8123855414      2.97e-06  Convergence criterion met
 Total energy in the final basis set =    -1300.8123855414

                    Orbital Energies (a.u.)
 --------------------------------------------------------------

 Alpha MOs
 -- Occupied --
********-101.5832 -19.1603 -19.1603 -10.3108 -10.3108 -10.2819 -10.2819
-10.2269 -10.2269  -9.4978  -9.4977  -7.2624  -7.2624  -7.2529  -7.2529
 -7.2519  -7.2519  -1.0958  -1.0939  -0.9237  -0.9095  -0.8438  -0.7826
 -0.7182  -0.6545  -0.6152  -0.5564  -0.5254  -0.5035  -0.4797  -0.4772
 -0.4690  -0.4581  -0.4434  -0.4351  -0.3949  -0.3796  -0.3441  -0.3441
 -0.3114  -0.3114  -0.3038  -0.2903

          Ground-State Mulliken Net Atomic Charges

     Atom                 Charge (a.u.)
  ----------------------------------------
      1 Cl                    0.336334
      2 C                     0.913039
      3 C                    -0.237817
      4 C                    -1.051576
      5 O                    -0.238542
      6 C                     0.913323
      7 C                    -0.237774
      8 C                    -1.051447
      9 O                    -0.238561
     10 Cl                    0.336307
     11 H                     0.278357
     12 H                     0.278358
  ----------------------------------------
  Sum of atomic charges =     0.000000

                    Cartesian Multipole Moments
 -----------------------------------------------------------------
    Charge (ESU x 10^10)
                 0.0000
    Dipole Moment (Debye)
         X      -0.0000      Y       0.0002      Z      -0.0000
       Tot       0.0002
    Quadrupole Moments (Debye-Ang)
        XX     -69.6846     XY      10.4991     YY     -85.7563
        XZ       0.0145     YZ      -0.3487     ZZ     -69.0009

 Total job time:  12.57s(wall), 66.75s(cpu)
        *  Thank you very much for using Q-Chem.  Have a nice day.  *
