 Gaussian 16, Revision A.03,
 Gaussian 16:  ES64L-G16RevA.03 25-Dec-2016

 ----------------------------------------------------------------
 #P UB3LYP/6-311++G(d,p) SCRF=(PCM,Solvent=n,n-DiMethylFormamide)
 ----------------------------------------------------------------

 ------------------
 Quinone PCM in DMF
 ------------------
 Symbolic Z-matrix:
 Charge =  0 Multiplicity = 1

                         Standard orientation:
 ---------------------------------------------------------------------
 Center     Atomic      Atomic             Coordinates (Angstroms)
 Number     Number       Type             X           Y           Z
 ---------------------------------------------------------------------
      1         17           0        2.739666    0.996229    0.000001
      2          6           0        1.270914    0.079484    0.000020
      3          6           0        1.268931   -1.259997    0.000056
      4          6           0       -0.000477   -2.022088   -0.000007
      5          8           0       -0.000185   -3.241232   -0.000007
      6          6           0       -1.269465   -1.260003   -0.000042
      7          6           0       -1.270843    0.079500   -0.000033
      8         17           0       -2.739279    0.996731    0.000030
      9          6           0        0.000166    0.884540   -0.000075
     10          8           0        0.000046    2.090499   -0.000009
     11          1           0        2.182201   -1.841749    0.000083
     12          1           0       -2.183017   -1.841330   -0.000005
 ---------------------------------------------------------------------

 SCF Done:  E(UB3LYP) =  -1300.80864511     A.U. after   15 cycles

 The electronic state is 1-A.
 Alpha  occ. eigenvalues -- -101.58484-101.58484 -19.16792 -19.15592 -10.32008
 Alpha  occ. eigenvalues --  -10.30491 -10.28552 -10.28547 -10.22921 -10.22920
 Alpha  occ. eigenvalues --   -9.49931  -9.49930  -7.26412  -7.26412  -7.25432
 Alpha  occ. eigenvalues --   -7.25432  -7.25335  -7.25334  -1.10570  -1.08669
 Alpha  occ. eigenvalues --   -0.92586  -0.91231  -0.84483  -0.78357  -0.72650
 Alpha  occ. eigenvalues --   -0.64489  -0.62571  -0.55851  -0.53054  -0.50292
 Alpha  occ. eigenvalues --   -0.48280  -0.48141  -0.47266  -0.45788  -0.44122
 Alpha  occ. eigenvalues --   -0.43616  -0.40029  -0.37977  -0.34969  -0.34301
 Alpha  occ. eigenvalues --   -0.31659  -0.31196  -0.30056  -0.29343
 Alpha virt. eigenvalues --   -0.15355  -0.05066  -0.01944  -0.01814  -0.00118
 Alpha virt. eigenvalues --    0.00955   0.01412   0.02337   0.04354   0.04359
 Alpha virt. eigenvalues --    0.05406   0.05975   0.07458   0.07470   0.08575

  Beta  occ. eigenvalues -- -101.58484-101.58484 -19.16792 -19.15592 -10.32008
  Beta  occ. eigenvalues --  -10.30491 -10.28552 -10.28547 -10.22921 -10.22920
  Beta  occ. eigenvalues --   -9.49931  -9.49930  -7.26412  -7.26412  -7.25432
  Beta  occ. eigenvalues --   -7.25432  -7.25335  -7.25334  -1.10570  -1.08669
  Beta  occ. eigenvalues --   -0.92586  -0.91231  -0.84483  -0.78357  -0.72650
  Beta  occ. eigenvalues --   -0.64489  -0.62571  -0.55851  -0.53054  -0.50292
  Beta  occ. eigenvalues --   -0.48280  -0.48141  -0.47266  -0.45788  -0.44122
  Beta  occ. eigenvalues --   -0.43616  -0.40029  -0.37977  -0.34969  -0.34301
  Beta  occ. eigenvalues --   -0.31659  -0.31196  -0.30056  -0.29343
  Beta virt. eigenvalues --   -0.15355  -0.05066  -0.01944  -0.01814  -0.00118
  Beta virt. eigenvalues --    0.00955   0.01412   0.02337   0.04354   0.04359
  Beta virt. eigenvalues --    0.05406   0.05975   0.07458   0.07470   0.08575

 Mulliken charges and spin densities:
               1          2
     1  Cl   0.331466  -0.000000
     2  C    1.036675   0.000000
     3  C   -0.262839  -0.000000
     4  C   -0.620191   0.000000
     5  O   -0.273803  -0.000000
     6  C   -0.261952  -0.000000
     7  C    1.036326   0.000000
     8  Cl   0.331584  -0.000000
     9  C   -1.666881  -0.000000
    10  O   -0.161890   0.000000
    11  H    0.255752   0.000000
    12  H    0.255754   0.000000
 Sum of Mulliken charges =  -0.00000   0.00000

 Dipole moment (field-independent basis, Debye):
    X=             -0.0017    Y=             -1.1052    Z=             -0.0001  Tot=              1.1052
 Quadrupole moment (field-independent basis, Debye-Ang):
   XX=            -65.3173   YY=            -88.2499   ZZ=            -68.9959
   XY=             -0.0003   XZ=             -0.0000   YZ=             -0.0002

 Normal termination of Gaussian 16 at Sun Jan 21 06:46:21 2024.
