 Q-Chem 5.4, Q-Chem, Inc., Pleasanton, CA (2021)
 Q-Chem 5.4.0 for Intel X86 EM64T Linux

User input:
--------------------------------------------------------------
$molecule
-1 2
C                 -1.8525700000     -3.6688570000      1.3200340000
C                 -0.4588360000     -3.9001430000      1.0672240000
C                  0.3584190000     -2.8964670000      0.5890280000
C                 -0.1365610000     -1.5449930000      0.3112500000
C                 -1.5528400000     -1.3069270000      0.5669800000
C                 -2.3354660000     -2.3185440000      1.0396350000
O                 -2.6882490000     -4.5125710000      1.7561980000
O                  0.6048460000     -0.6354300000     -0.1221330000
O                 -3.6644620000     -2.1668040000      1.3006660000
C                 -2.0893130000      0.0701450000      0.2910710000
Br                 0.1659640000     -5.6763570000      1.4381710000
Br                 2.2212690000     -3.1761500000      0.2424130000
H                 -1.5624690000      0.8190660000      0.8916570000
H                 -3.1563330000      0.1224680000      0.5109120000
H                 -1.9238910000      0.3476790000     -0.7550810000
H                 -3.9177630000     -3.0612860000      1.6177270000
$end
$rem
MAX_SCF_CYCLES=200
BASIS  =  6-311++G(d,p)
GUI  =  2
JOB_TYPE  =  SP
METHOD  =  B3LYP
SOLVENT_METHOD = PCM
$end
$pcm
theory = CPCM
$end
$solvent
dielectric 37.219
opticaldielectric 1.43
$end

--------------------------------------------------------------

             Standard Nuclear Orientation (Angstroms)
    I     Atom           X                Y                Z
 ----------------------------------------------------------------
    1      C      -1.8525700000    -3.6688570000     1.3200340000
    2      C      -0.4588360000    -3.9001430000     1.0672240000
    3      C       0.3584190000    -2.8964670000     0.5890280000
    4      C      -0.1365610000    -1.5449930000     0.3112500000
    5      C      -1.5528400000    -1.3069270000     0.5669800000
    6      C      -2.3354660000    -2.3185440000     1.0396350000
    7      O      -2.6882490000    -4.5125710000     1.7561980000
    8      O       0.6048460000    -0.6354300000    -0.1221330000
    9      O      -3.6644620000    -2.1668040000     1.3006660000
   10      C      -2.0893130000     0.0701450000     0.2910710000
   11      Br      0.1659640000    -5.6763570000     1.4381710000
   12      Br      2.2212690000    -3.1761500000     0.2424130000
   13      H      -1.5624690000     0.8190660000     0.8916570000
   14      H      -3.1563330000     0.1224680000     0.5109120000
   15      H      -1.9238910000     0.3476790000    -0.7550810000
   16      H      -3.9177630000    -3.0612860000     1.6177270000
 ----------------------------------------------------------------

    9   -5643.3957044591      6.28e-06  Convergence criterion met
 Total energy in the final basis set =    -5643.3957044591

                    Orbital Energies (a.u.)
 --------------------------------------------------------------

 Alpha MOs
 -- Occupied --
********-482.8319 -62.4862 -62.4847 -56.3067 -56.3052 -56.3030 -56.3026
-56.3015 -56.3011 -19.1508 -19.1026 -19.0911 -10.2442 -10.2432 -10.2339
-10.2336 -10.2327 -10.1758 -10.1594  -8.6949  -8.6934  -6.5264  -6.5248
 -6.5138  -6.5129  -6.5125  -6.5113  -2.6373  -2.6358  -2.6339  -2.6331
 -2.6324  -2.6314  -2.6231  -2.6231  -2.6217  -2.6217  -1.0734  -1.0201
 -1.0155  -0.8657  -0.8088  -0.7972  -0.7460  -0.6947  -0.6697  -0.5974
 -0.5781  -0.5403  -0.4997  -0.4564  -0.4526  -0.4377  -0.4184  -0.4114
 -0.4093  -0.4026  -0.3956  -0.3724  -0.3702  -0.3597  -0.3397  -0.3082
 -0.3080  -0.2842  -0.2748  -0.2734  -0.2550  -0.2318  -0.1757

 Beta MOs
 -- Occupied --
********-482.8319 -62.4862 -62.4847 -56.3067 -56.3052 -56.3029 -56.3026
-56.3014 -56.3011 -19.1504 -19.0961 -19.0852 -10.2420 -10.2419 -10.2330
-10.2329 -10.2299 -10.1757 -10.1595  -8.6949  -8.6934  -6.5264  -6.5248
 -6.5137  -6.5128  -6.5122  -6.5113  -2.6373  -2.6358  -2.6338  -2.6331
 -2.6322  -2.6315  -2.6231  -2.6230  -2.6216  -2.6215  -1.0711  -1.0099
 -1.0052  -0.8606  -0.8071  -0.7953  -0.7436  -0.6891  -0.6638  -0.5940
 -0.5745  -0.5370  -0.4978  -0.4527  -0.4408  -0.4328  -0.4151  -0.4073
 -0.4012  -0.4008  -0.3836  -0.3709  -0.3581  -0.3561  -0.3233  -0.3078
 -0.3034  -0.2828  -0.2696  -0.2533  -0.2499  -0.2257

          Ground-State Mulliken Net Atomic Charges

     Atom                 Charge (a.u.)    Spin (a.u.)
  --------------------------------------------------------
      1 C                    -0.703999       0.134322
      2 C                     0.946583       0.055011
      3 C                    -0.083709       0.184534
      4 C                    -0.715096       0.071186
      5 C                     2.048046       0.021656
      6 C                    -1.663700       0.043127
      7 O                    -0.457256       0.234963
      8 O                    -0.419571       0.217018
      9 O                    -0.299828       0.012856
     10 C                    -0.134466       0.006216
     11 Br                   -0.165559       0.005953
     12 Br                   -0.193766       0.013930
     13 H                     0.176160       0.001161
     14 H                     0.184881      -0.000180
     15 H                     0.175180       0.001150
     16 H                     0.306102      -0.002903
  --------------------------------------------------------
  Sum of atomic charges =    -1.000000

                    Cartesian Multipole Moments
 -----------------------------------------------------------------
    Charge (ESU x 10^10)
                -4.8032
    Dipole Moment (Debye)
         X       2.4623      Y      13.5458      Z      -3.6808
       Tot      14.2514
    Quadrupole Moments (Debye-Ang)
        XX    -117.0822     XY     -17.1525     YY    -156.4967
        XZ       9.0620     YZ      18.7749     ZZ    -104.3197

 Total job time:  23.75s(wall), 183.20s(cpu)
        *  Thank you very much for using Q-Chem.  Have a nice day.  *
