 Q-Chem 5.4, Q-Chem, Inc., Pleasanton, CA (2021)
 Q-Chem 5.4.0 for Intel X86 EM64T Linux

User input:
--------------------------------------------------------------
$molecule
-2 1
C                 -0.6673730000     -1.2246510000      2.5414880000
C                 -0.8005440000     -1.8024090000      1.2045130000
C                 -0.4959440000     -1.1341160000      0.0634660000
C                  0.0673480000      0.2158770000      0.0278810000
C                  0.3013610000      0.8039190000      1.3241940000
C                 -0.2322160000      0.1371270000      2.5174840000
O                 -0.9541490000     -1.9289110000      3.5610520000
O                  0.3748720000      0.7098490000     -1.1100430000
S                 -0.6311540000      1.0883270000      3.9533960000
C                  0.6122910000      0.7017640000      5.2331530000
C                  0.5308060000     -0.5194100000      5.9060420000
C                  1.6202680000      1.6193230000      5.5239800000
C                  2.5427230000      1.3230000000      6.5276280000
C                  1.4628960000     -0.8071680000      6.9025860000
C                  2.4645600000      0.1139230000      7.2235730000
O                 -0.5190170000      2.5411990000      3.6925030000
O                 -1.9135360000      0.6508360000      4.5538260000
H                 -1.1916590000     -2.8186700000      1.1763140000
H                 -0.6303600000     -1.6012460000     -0.9113480000
H                 -0.2358080000     -1.2242670000      5.5984850000
H                  1.6756670000      2.5293440000      4.9407480000
H                  3.3325060000      2.0329640000      6.7587020000
H                  1.4106280000     -1.7571830000      7.4280520000
H                  3.1877710000     -0.1148840000      8.0024740000
C                  1.3082610000      1.8481060000      1.4542370000
C                  1.5989690000      2.7656030000      0.2704010000
O                  1.9969950000      2.0067240000      2.4786230000
H                  0.6807260000      3.1808760000     -0.1528030000
H                  2.0602880000      2.1991120000     -0.5437230000
H                  2.2614150000      3.5619620000      0.6239360000
$end
$rem
MAX_SCF_CYCLES=200
BASIS  =  6-311++G(d,p)
GUI  =  2
JOB_TYPE  =  SP
METHOD  =  B3LYP
SOLVENT_METHOD = COSMO
$end
$solvent
dielectric 37.219
opticaldielectric 1.43
$end

--------------------------------------------------------------

             Standard Nuclear Orientation (Angstroms)
    I     Atom           X                Y                Z
 ----------------------------------------------------------------
    1      C      -0.8254406286    -1.9640980974    -0.2756506922
    2      C      -2.1568885709    -2.3875307367    -0.7080765813
    3      C      -3.2328100377    -1.5614634168    -0.7453690794
    4      C      -3.1836739664    -0.1340906280    -0.4271901395
    5      C      -1.8741531893     0.3587781245    -0.0761650704
    6      C      -0.7881899132    -0.6008820871     0.1540371266
    7      O       0.1346855550    -2.7981350776    -0.2921854758
    8      O      -4.2537347970     0.5507386028    -0.5665785194
    9      S       0.5396968718    -0.1831562255     1.2439903505
   10      C       2.0277338605     0.0868210615     0.2211401245
   11      C       2.6906573629    -1.0212257398    -0.3112601628
   12      C       2.4837503866     1.3823283460    -0.0159722931
   13      C       3.6411403677     1.5697361262    -0.7718602549
   14      C       3.8426881227    -0.8206803067    -1.0710647668
   15      C       4.3271819273     0.4713187808    -1.2964004379
   16      O       0.2844959735     1.0933762989     1.9488407802
   17      O       0.9044845335    -1.3248466996     2.1157076080
   18      H      -2.2420158316    -3.4382250120    -0.9825714561
   19      H      -4.2097332290    -1.9289037737    -1.0570565750
   20      H       2.2589821549    -2.0041935870    -0.1483416250
   21      H       1.9083337643     2.2126597138     0.3723733852
   22      H       4.0017093584     2.5771687727    -0.9623090079
   23      H       4.3623758525    -1.6765609747    -1.4938743065
   24      H       5.2267035739     0.6218644960    -1.8882368649
   25      C      -1.5781045477     1.7722708911    -0.2645229300
   26      C      -2.7018487761     2.7983133444    -0.1539998360
   27      O      -0.4483965670     2.1972776333    -0.5678544600
   28      H      -3.2891563373     2.6564293055     0.7568581360
   29      H      -3.4119424073     2.6726716256    -0.9764998991
   30      H      -2.2449388196     3.7927290081    -0.1734968983
 ----------------------------------------------------------------

   12   -1314.0306784268      4.45e-06  Convergence criterion met
 Total energy in the final basis set =    -1314.0306784268
    6   -1314.3021078669      3.90e-06  Convergence criterion met
 Total energy in the final basis set =    -1314.3021078669

                    Orbital Energies (a.u.)
 --------------------------------------------------------------

 Alpha MOs
 -- Occupied --
-89.0305 -19.0972 -19.0962 -19.0724 -19.0485 -19.0468 -10.2276 -10.2122
-10.2090 -10.1939 -10.1763 -10.1762 -10.1748 -10.1747 -10.1740 -10.1655
-10.1576 -10.1557 -10.1496 -10.1407  -8.0938  -6.0571  -6.0555  -6.0544
 -1.0878  -1.0011  -0.9819  -0.9712  -0.9672  -0.8605  -0.8088  -0.7661
 -0.7484  -0.7453  -0.7201  -0.6827  -0.6510  -0.6098  -0.6064  -0.5869
 -0.5512  -0.5213  -0.5088  -0.4801  -0.4684  -0.4646  -0.4563  -0.4479
 -0.4400  -0.4340  -0.4267  -0.4219  -0.4128  -0.3971  -0.3925  -0.3829
 -0.3751  -0.3724  -0.3658  -0.3598  -0.3572  -0.3439  -0.3388  -0.3361
 -0.3219  -0.3092  -0.2859  -0.2839  -0.2639  -0.2586  -0.2528  -0.2371
 -0.2293  -0.2217  -0.2125  -0.1539

          Ground-State Mulliken Net Atomic Charges

     Atom                 Charge (a.u.)
  ----------------------------------------
      1 C                    -0.139846
      2 C                    -0.444991
      3 C                    -0.261969
      4 C                    -0.598707
      5 C                     0.946090
      6 C                     0.072283
      7 O                    -0.531778
      8 O                    -0.588858
      9 S                     0.782245
     10 C                    -0.222189
     11 C                    -0.053371
     12 C                     0.163079
     13 C                    -0.494312
     14 C                    -0.502542
     15 C                    -0.314772
     16 O                    -0.337559
     17 O                    -0.270213
     18 H                     0.201903
     19 H                     0.194857
     20 H                     0.277677
     21 H                     0.261497
     22 H                     0.223943
     23 H                     0.219980
     24 H                     0.203413
     25 C                    -0.215349
     26 C                    -0.655547
     27 O                    -0.418015
     28 H                     0.177345
     29 H                     0.183542
     30 H                     0.142166
  ----------------------------------------
  Sum of atomic charges =    -2.000000

                    Cartesian Multipole Moments
 -----------------------------------------------------------------
    Charge (ESU x 10^10)
                -9.6064
    Dipole Moment (Debye)
         X      10.4474      Y       2.7627      Z      -4.3226
       Tot      11.6389
    Quadrupole Moments (Debye-Ang)
        XX    -175.9047     XY      12.3355     YY    -162.2769
        XZ     -15.2953     YZ       4.5537     ZZ    -150.0342

 Total job time:  90.13s(wall), 695.47s(cpu)
        *  Thank you very much for using Q-Chem.  Have a nice day.  *
