 Gaussian 16, Revision A.03,
 Gaussian 16:  ES64L-G16RevA.03 25-Dec-2016

 ----------------------------------------------------------------
 #P UB3LYP/6-311++G(d,p) SCRF=(PCM,Solvent=n,n-DiMethylFormamide)
 ----------------------------------------------------------------

 ------------------
 Quinone PCM in DMF
 ------------------
 Symbolic Z-matrix:
 Charge =  0 Multiplicity = 1

                         Standard orientation:
 ---------------------------------------------------------------------
 Center     Atomic      Atomic             Coordinates (Angstroms)
 Number     Number       Type             X           Y           Z
 ---------------------------------------------------------------------
      1          6           0       -0.240441    1.596602   -0.266613
      2          6           0        1.102961    1.078424   -0.327471
      3          6           0        1.344052   -0.263434   -0.459497
      4          6           0        0.159085   -1.247374   -0.445906
      5          6           0       -1.432399    0.616610   -0.328246
      6          6           0       -1.186106   -0.730123   -0.368423
      7          8           0       -0.503379    2.787872   -0.168051
      8          8           0        0.425358   -2.440413   -0.499208
      9          7           0       -2.590498    1.306451   -0.276780
     10          7           0        2.504977   -0.935133   -0.568566
     11          6           0       -3.969836    0.969735   -0.671487
     12          6           0       -4.097227    0.448779   -2.105267
     13          6           0       -4.752714    0.114192    0.354615
     14          6           0        3.858318   -0.477818   -0.900831
     15          6           0        4.532863   -1.526349   -1.794105
     16          6           0        4.760728   -0.183421    0.319688
     17          7           0       -4.323222    0.200239    1.639055
     18          7           0        4.274536   -0.529808    1.536224
     19          6           0        5.003171   -0.266382    2.768517
     20          6           0       -4.952810   -0.555533    2.711685
     21          8           0       -5.753449   -0.493576    0.014257
     22          8           0        5.864590    0.304250    0.137379
     23         17           0        2.367878    2.283621   -0.190141
     24         17           0       -2.437020   -1.950411   -0.300402
     25          1           0       -2.383715    2.303439   -0.232395
     26          1           0        2.334431   -1.938093   -0.636625
     27          1           0       -4.483525    1.936642   -0.632677
     28          1           0       -5.152182    0.290595   -2.328323
     29          1           0       -3.578562   -0.498613   -2.242079
     30          1           0       -3.689928    1.183746   -2.803196
     31          1           0        3.792183    0.461102   -1.445896
     32          1           0        3.982718   -1.642569   -2.730189
     33          1           0        4.581840   -2.498108   -1.292819
     34          1           0        5.550067   -1.205367   -2.016310
     35          1           0       -3.430969    0.636707    1.809011
     36          1           0        3.321739   -0.853690    1.589353
     37          1           0        6.068866   -0.251935    2.545291
     38          1           0        4.795170   -1.055444    3.492902
     39          1           0        4.726485    0.700225    3.201086
     40          1           0       -4.772961   -0.050799    3.661789
     41          1           0       -4.564490   -1.577721    2.768273
     42          1           0       -6.025134   -0.605430    2.527505
 ---------------------------------------------------------------------

 SCF Done:  E(UB3LYP) =  -1985.03104481     A.U. after   16 cycles

 The electronic state is 1-A.
 Alpha  occ. eigenvalues -- -101.56970-101.56919 -19.14240 -19.14185 -19.10540
 Alpha  occ. eigenvalues --  -19.10533 -14.37757 -14.37534 -14.35196 -14.34809
 Alpha  occ. eigenvalues --  -10.29930 -10.29846 -10.28735 -10.28733 -10.27755
 Alpha  occ. eigenvalues --  -10.27669 -10.25025 -10.24987 -10.24440 -10.24299
 Alpha  occ. eigenvalues --  -10.20506 -10.20401 -10.17939 -10.17156  -9.48444
 Alpha  occ. eigenvalues --   -9.48413  -7.24920  -7.24886  -7.23912  -7.23882
 Alpha  occ. eigenvalues --   -7.23881  -7.23848  -1.08489  -1.08188  -1.05974
 Alpha  occ. eigenvalues --   -1.05937  -0.98667  -0.98292  -0.93541  -0.93316
 Alpha  occ. eigenvalues --   -0.89889  -0.88669  -0.83436  -0.80947  -0.78405
 Alpha  occ. eigenvalues --   -0.74100  -0.72218  -0.72173  -0.70574  -0.67060
 Alpha  occ. eigenvalues --   -0.65785  -0.63225  -0.61364  -0.59913  -0.58943
 Alpha  occ. eigenvalues --   -0.58332  -0.56108  -0.55318  -0.53972  -0.51637
 Alpha  occ. eigenvalues --   -0.50428  -0.49265  -0.48063  -0.47632  -0.47580
 Alpha  occ. eigenvalues --   -0.47098  -0.46945  -0.46298  -0.45737  -0.45326
 Alpha  occ. eigenvalues --   -0.44542  -0.44276  -0.43629  -0.42997  -0.42365
 Alpha  occ. eigenvalues --   -0.41528  -0.40727  -0.40296  -0.40165  -0.40100
 Alpha  occ. eigenvalues --   -0.39356  -0.38642  -0.38208  -0.37287  -0.37211
 Alpha  occ. eigenvalues --   -0.36413  -0.35297  -0.34214  -0.33354  -0.33031
 Alpha  occ. eigenvalues --   -0.31122  -0.29828  -0.28710  -0.28182  -0.27399
 Alpha  occ. eigenvalues --   -0.27137  -0.25709  -0.23344
 Alpha virt. eigenvalues --   -0.12709  -0.02021  -0.01649  -0.01086  -0.00593
 Alpha virt. eigenvalues --   -0.00500  -0.00099   0.00272   0.00612   0.01073
 Alpha virt. eigenvalues --    0.01154   0.01386   0.01659   0.02383   0.02974

  Beta  occ. eigenvalues -- -101.56970-101.56919 -19.14240 -19.14185 -19.10540
  Beta  occ. eigenvalues --  -19.10533 -14.37757 -14.37534 -14.35196 -14.34809
  Beta  occ. eigenvalues --  -10.29930 -10.29846 -10.28735 -10.28733 -10.27755
  Beta  occ. eigenvalues --  -10.27669 -10.25025 -10.24987 -10.24440 -10.24299
  Beta  occ. eigenvalues --  -10.20506 -10.20401 -10.17939 -10.17156  -9.48444
  Beta  occ. eigenvalues --   -9.48413  -7.24920  -7.24886  -7.23912  -7.23882
  Beta  occ. eigenvalues --   -7.23881  -7.23848  -1.08489  -1.08188  -1.05974
  Beta  occ. eigenvalues --   -1.05937  -0.98667  -0.98292  -0.93541  -0.93316
  Beta  occ. eigenvalues --   -0.89889  -0.88669  -0.83436  -0.80947  -0.78405
  Beta  occ. eigenvalues --   -0.74100  -0.72218  -0.72173  -0.70574  -0.67060
  Beta  occ. eigenvalues --   -0.65785  -0.63225  -0.61364  -0.59913  -0.58943
  Beta  occ. eigenvalues --   -0.58332  -0.56108  -0.55318  -0.53972  -0.51637
  Beta  occ. eigenvalues --   -0.50428  -0.49265  -0.48063  -0.47632  -0.47580
  Beta  occ. eigenvalues --   -0.47098  -0.46945  -0.46298  -0.45737  -0.45326
  Beta  occ. eigenvalues --   -0.44542  -0.44276  -0.43629  -0.42997  -0.42365
  Beta  occ. eigenvalues --   -0.41528  -0.40727  -0.40296  -0.40165  -0.40100
  Beta  occ. eigenvalues --   -0.39356  -0.38642  -0.38208  -0.37287  -0.37211
  Beta  occ. eigenvalues --   -0.36413  -0.35297  -0.34214  -0.33354  -0.33031
  Beta  occ. eigenvalues --   -0.31122  -0.29828  -0.28710  -0.28182  -0.27399
  Beta  occ. eigenvalues --   -0.27137  -0.25709  -0.23344
  Beta virt. eigenvalues --   -0.12709  -0.02021  -0.01649  -0.01086  -0.00593
  Beta virt. eigenvalues --   -0.00500  -0.00099   0.00272   0.00612   0.01073
  Beta virt. eigenvalues --    0.01154   0.01386   0.01659   0.02383   0.02974

 Mulliken charges and spin densities:
               1          2
     1  C   -0.417129  -0.000000
     2  C    0.044101   0.000000
     3  C   -0.337330   0.000000
     4  C   -0.288270   0.000000
     5  C   -0.300485   0.000000
     6  C    0.024776  -0.000000
     7  O   -0.274943   0.000000
     8  O   -0.262479  -0.000000
     9  N   -0.075326  -0.000000
    10  N    0.073593   0.000000
    11  C    0.205527  -0.000000
    12  C   -0.553599  -0.000000
    13  C   -0.363846   0.000000
    14  C    0.055229  -0.000000
    15  C   -0.605078   0.000000
    16  C   -0.132033   0.000000
    17  N   -0.115904  -0.000000
    18  N   -0.150522  -0.000000
    19  C   -0.289987   0.000000
    20  C   -0.297469  -0.000000
    21  O   -0.383258  -0.000000
    22  O   -0.402435  -0.000000
    23  Cl   0.472910  -0.000000
    24  Cl   0.489584  -0.000000
    25  H    0.359533  -0.000000
    26  H    0.333515  -0.000000
    27  H    0.230381   0.000000
    28  H    0.189583   0.000000
    29  H    0.129898   0.000000
    30  H    0.180426   0.000000
    31  H    0.212256  -0.000000
    32  H    0.184858  -0.000000
    33  H    0.174344   0.000000
    34  H    0.192277  -0.000000
    35  H    0.336469  -0.000000
    36  H    0.345450  -0.000000
    37  H    0.175652   0.000000
    38  H    0.161584   0.000000
    39  H    0.174437  -0.000000
    40  H    0.163955   0.000000
    41  H    0.168599   0.000000
    42  H    0.171157   0.000000
 Sum of Mulliken charges =  -0.00000   0.00000

 Dipole moment (field-independent basis, Debye):
    X=             -0.1928    Y=             -0.1071    Z=              3.0216  Tot=              3.0296
 Quadrupole moment (field-independent basis, Debye-Ang):
   XX=           -200.5379   YY=           -172.1643   ZZ=           -135.5593
   XY=            -29.8322   XZ=             -3.1970   YZ=             -3.1905

 Normal termination of Gaussian 16 at Wed Jan 24 22:56:19 2024.
