 Gaussian 16, Revision A.03,
 Gaussian 16:  ES64L-G16RevA.03 25-Dec-2016

 ----------------------------------------------------------------------
 #P UB3LYP/6-311++G(d,p) nosym opt freq SCRF=(PCM,Solvent=n,n-DiMethylF
 ormamide)
 ----------------------------------------------------------------------

 -------
 Reduced
 -------
 Symbolic Z-matrix:
 Charge = -2 Multiplicity = 1

 SCF Done:  E(UB3LYP) =  -764.438051325     A.U. after   18 cycles
 SCF Done:  E(UB3LYP) =  -764.439650661     A.U. after   13 cycles
 SCF Done:  E(UB3LYP) =  -764.440000107     A.U. after   14 cycles
 SCF Done:  E(UB3LYP) =  -764.440033888     A.U. after   14 cycles
 SCF Done:  E(UB3LYP) =  -764.440138146     A.U. after   11 cycles
 SCF Done:  E(UB3LYP) =  -764.440196586     A.U. after   13 cycles
 SCF Done:  E(UB3LYP) =  -764.440225524     A.U. after   12 cycles
 SCF Done:  E(UB3LYP) =  -764.440233383     A.U. after   11 cycles
 SCF Done:  E(UB3LYP) =  -764.440234831     A.U. after   10 cycles
 SCF Done:  E(UB3LYP) =  -764.440234940     A.U. after    8 cycles
 Optimization completed.
    -- Stationary point found.
 Normal termination of Gaussian 16 at Sat Feb 10 19:13:43 2024.

 ----------------------------------------------------------------------
 #P Geom=AllCheck Guess=TCheck SCRF=Check GenChk UB3LYP/6-311++G(d,p) F
 req
 ----------------------------------------------------------------------

 Structure from the checkpoint file:  "178-an.chk"
 -------
 Reduced
 -------
 Charge = -2 Multiplicity = 1

                          Input orientation:
 ---------------------------------------------------------------------
 Center     Atomic      Atomic             Coordinates (Angstroms)
 Number     Number       Type             X           Y           Z
 ---------------------------------------------------------------------
      1          8           0       -4.595432   -0.906824    1.135175
      2          6           0       -3.409024   -0.372813    0.650721
      3          6           0       -3.415111    0.825040   -0.114535
      4          6           0       -2.221361    1.328296   -0.578589
      5          6           0       -0.973156    0.699508   -0.326237
      6          6           0        0.237611    1.284812   -0.846104
      7          8           0        0.233740    2.383009   -1.544147
      8          6           0        1.444033    0.567849   -0.536121
      9          6           0        2.698259    1.055901   -1.002255
     10          6           0        3.886416    0.414912   -0.736275
     11          6           0        3.879690   -0.784838    0.032622
     12          6           0        2.689520   -1.290729    0.499788
     13          6           0        1.435062   -0.658006    0.247323
     14          6           0        0.228251   -1.237738    0.763844
     15          8           0        0.222605   -2.341700    1.467071
     16          6           0       -0.976946   -0.522844    0.454387
     17          6           0       -2.231985   -1.019291    0.923655
     18          1           0       -5.331126   -0.352053    0.852960
     19          1           0       -4.353546    1.330528   -0.325904
     20          1           0       -2.209112    2.241158   -1.163368
     21          1           0        2.685782    1.969404   -1.587208
     22          1           0        4.823954    0.816946   -1.108214
     23          1           0        4.813805   -1.295599    0.247421
     24          1           0        2.672307   -2.203378    1.085302
     25          1           0       -2.234237   -1.931548    1.508686
 ---------------------------------------------------------------------

 SCF Done:  E(UB3LYP) =  -764.440234940     A.U. after    2 cycles

 Alpha  occ. eigenvalues --  -19.14126 -19.01930 -19.01316 -10.21181 -10.17424
 Alpha  occ. eigenvalues --  -10.16720 -10.15402 -10.15305 -10.14785 -10.14640
 Alpha  occ. eigenvalues --  -10.14560 -10.14435 -10.14074 -10.13910 -10.13638
 Alpha  occ. eigenvalues --  -10.13545 -10.13447  -1.04578  -0.93098  -0.92155
 Alpha  occ. eigenvalues --   -0.82651  -0.81948  -0.75203  -0.72804  -0.72122
 Alpha  occ. eigenvalues --   -0.70387  -0.64119  -0.61108  -0.59676  -0.56314
 Alpha  occ. eigenvalues --   -0.54176  -0.52168  -0.50085  -0.47393  -0.44799
 Alpha  occ. eigenvalues --   -0.44036  -0.42672  -0.40716  -0.39778  -0.39771
 Alpha  occ. eigenvalues --   -0.39106  -0.37900  -0.37172  -0.36858  -0.35575
 Alpha  occ. eigenvalues --   -0.35360  -0.32795  -0.32163  -0.31953  -0.31699
 Alpha  occ. eigenvalues --   -0.29642  -0.28845  -0.23350  -0.22322  -0.21903
 Alpha  occ. eigenvalues --   -0.20493  -0.19946  -0.19267  -0.10614
 Alpha virt. eigenvalues --   -0.02733  -0.00089   0.00497   0.00638   0.01535
 Alpha virt. eigenvalues --    0.02034   0.02057   0.02614   0.04223   0.04805
 Alpha virt. eigenvalues --    0.04932   0.05259   0.06362   0.06782   0.06854

  Beta  occ. eigenvalues --  -19.14126 -19.01930 -19.01316 -10.21181 -10.17424
  Beta  occ. eigenvalues --  -10.16720 -10.15402 -10.15305 -10.14785 -10.14640
  Beta  occ. eigenvalues --  -10.14560 -10.14435 -10.14074 -10.13910 -10.13638
  Beta  occ. eigenvalues --  -10.13545 -10.13447  -1.04578  -0.93098  -0.92155
  Beta  occ. eigenvalues --   -0.82651  -0.81948  -0.75203  -0.72804  -0.72122
  Beta  occ. eigenvalues --   -0.70387  -0.64119  -0.61108  -0.59676  -0.56314
  Beta  occ. eigenvalues --   -0.54176  -0.52168  -0.50085  -0.47393  -0.44799
  Beta  occ. eigenvalues --   -0.44036  -0.42672  -0.40716  -0.39778  -0.39771
  Beta  occ. eigenvalues --   -0.39106  -0.37900  -0.37172  -0.36858  -0.35575
  Beta  occ. eigenvalues --   -0.35360  -0.32795  -0.32163  -0.31953  -0.31699
  Beta  occ. eigenvalues --   -0.29642  -0.28845  -0.23350  -0.22322  -0.21903
  Beta  occ. eigenvalues --   -0.20493  -0.19946  -0.19267  -0.10614
  Beta virt. eigenvalues --   -0.02733  -0.00089   0.00497   0.00638   0.01535
  Beta virt. eigenvalues --    0.02034   0.02057   0.02614   0.04223   0.04805
  Beta virt. eigenvalues --    0.04932   0.05259   0.06362   0.06782   0.06854

 Mulliken charges and spin densities:
               1          2
     1  O   -0.309870  -0.000000
     2  C   -0.657012  -0.000000
     3  C   -0.090440   0.000000
     4  C   -0.041075   0.000000
     5  C    0.107533   0.000000
     6  C   -0.383835   0.000000
     7  O   -0.671301  -0.000000
     8  C    0.251079  -0.000000
     9  C   -0.028150   0.000000
    10  C   -0.496318  -0.000000
    11  C   -0.483531  -0.000000
    12  C   -0.083094   0.000000
    13  C    0.339074  -0.000000
    14  C   -0.399899   0.000000
    15  O   -0.699304  -0.000000
    16  C    0.633012   0.000000
    17  C   -0.354463   0.000000
    18  H    0.287598   0.000000
    19  H    0.162936   0.000000
    20  H    0.155427  -0.000000
    21  H    0.146085  -0.000000
    22  H    0.154471  -0.000000
    23  H    0.156403  -0.000000
    24  H    0.143498  -0.000000
    25  H    0.161178  -0.000000
 Sum of Mulliken charges =  -2.00000   0.00000

 Dipole moment (field-independent basis, Debye):
    X=             -3.2356    Y=              1.9637    Z=             -0.9141  Tot=              3.8938
 Quadrupole moment (field-independent basis, Debye-Ang):
   XX=           -116.0722   YY=           -149.5565   ZZ=           -128.0169
   XY=             -7.6459   XZ=              5.6682   YZ=             25.3876

  Exact polarizability: 546.698 -12.776 306.017 -39.623 -96.913 218.524
 Approx polarizability: 604.059 -12.418 357.510 -44.939-120.225 249.006

                      1                      2                      3
                      A                      A                      A
 Frequencies --     59.5380               109.4996               142.4042
 Red. masses --      7.0168                 4.5192                 5.2974
 Frc consts  --      0.0147                 0.0319                 0.0633
 IR Inten    --     16.8208                 5.7486                 2.3614

                      4                      5                      6
                      A                      A                      A
 Frequencies --    168.6823               192.9561               195.4141
 Red. masses --      7.4686                 5.8679                 1.2061
 Frc consts  --      0.1252                 0.1287                 0.0271
 IR Inten    --     10.6409                25.3976               141.1604

                      7                      8                      9
                      A                      A                      A
 Frequencies --    213.1622               277.6262               314.0315
 Red. masses --      3.9777                 7.0759                 6.4466
 Frc consts  --      0.1065                 0.3213                 0.3746
 IR Inten    --     17.7208                 4.4261                 0.1879

                     10                     11                     12
                      A                      A                      A
 Frequencies --    336.1426               364.7943               389.8398
 Red. masses --      9.8886                 9.6928                 6.0752
 Frc consts  --      0.6583                 0.7600                 0.5440
 IR Inten    --      0.6607                 4.6274                12.7652

                     13                     14                     15
                      A                      A                      A
 Frequencies --    405.2225               432.8780               453.0417
 Red. masses --      5.8125                 3.7592                 5.1526
 Frc consts  --      0.5623                 0.4150                 0.6231
 IR Inten    --      0.0094                 6.3710                 1.1538

                     16                     17                     18
                      A                      A                      A
 Frequencies --    477.9446               495.3650               538.9479
 Red. masses --      2.8038                12.6780                 4.2117
 Frc consts  --      0.3774                 1.8330                 0.7208
 IR Inten    --      0.5637                 2.5211                17.4979

                     19                     20                     21
                      A                      A                      A
 Frequencies --    570.8871               634.2461               635.9521
 Red. masses --      6.4820                 6.4933                 3.5467
 Frc consts  --      1.2447                 1.5390                 0.8451
 IR Inten    --     44.4540                20.8440                28.4662

                     22                     23                     24
                      A                      A                      A
 Frequencies --    660.7579               690.9308               699.1519
 Red. masses --      6.9063                 6.1994                 2.5025
 Frc consts  --      1.7766                 1.7437                 0.7207
 IR Inten    --     21.4878                 6.7079               121.8912

                     25                     26                     27
                      A                      A                      A
 Frequencies --    715.4408               749.6851               764.4143
 Red. masses --      4.2572                 7.2731                 1.5576
 Frc consts  --      1.2839                 2.4084                 0.5362
 IR Inten    --      3.4321                84.2796                 1.0653

                     28                     29                     30
                      A                      A                      A
 Frequencies --    774.9571               801.3864               849.1987
 Red. masses --      2.0902                 3.0410                 1.7209
 Frc consts  --      0.7396                 1.1507                 0.7312
 IR Inten    --     51.6791                18.2391                 0.5129

                     31                     32                     33
                      A                      A                      A
 Frequencies --    857.3421               875.0191               923.6357
 Red. masses --      6.6707                 1.4914                 5.7076
 Frc consts  --      2.8889                 0.6728                 2.8688
 IR Inten    --    123.7286                34.9867                13.9234

                     34                     35                     36
                      A                      A                      A
 Frequencies --    968.4892               973.1277               978.4033
 Red. masses --      1.2969                 1.3410                 3.1835
 Frc consts  --      0.7167                 0.7482                 1.7955
 IR Inten    --      2.5276                 5.5611                72.9912

                     37                     38                     39
                      A                      A                      A
 Frequencies --    983.8989              1012.2160              1078.3274
 Red. masses --      1.2639                 2.0504                 4.0341
 Frc consts  --      0.7209                 1.2378                 2.7637
 IR Inten    --      1.3293               118.8340               738.6651

                     40                     41                     42
                      A                      A                      A
 Frequencies --   1106.9115              1117.2001              1133.1460
 Red. masses --      1.8062                 1.9033                 1.6303
 Frc consts  --      1.3039                 1.3996                 1.2334
 IR Inten    --    176.5098               536.9519                20.2096

                     43                     44                     45
                      A                      A                      A
 Frequencies --   1163.6013              1183.8102              1193.9448
 Red. masses --      1.3861                 1.5617                 1.6806
 Frc consts  --      1.1057                 1.2894                 1.4115
 IR Inten    --    718.3602               164.6588                25.1695

                     46                     47                     48
                      A                      A                      A
 Frequencies --   1208.8853              1229.7201              1257.2525
 Red. masses --      4.0414                 2.2035                 2.8123
 Frc consts  --      3.4798                 1.9633                 2.6192
 IR Inten    --    294.7545                67.0806               284.5153

                     49                     50                     51
                      A                      A                      A
 Frequencies --   1306.5161              1341.1854              1352.0754
 Red. masses --      6.0295                 4.0332                 6.1783
 Frc consts  --      6.0640                 4.2745                 6.6546
 IR Inten    --     45.0733              2650.0010               895.0497

                     52                     53                     54
                      A                      A                      A
 Frequencies --   1364.4388              1437.3622              1452.2748
 Red. masses --      1.9707                 4.2814                 3.3590
 Frc consts  --      2.1616                 5.2115                 4.1740
 IR Inten    --     49.3764                85.1469                27.0918

                     55                     56                     57
                      A                      A                      A
 Frequencies --   1466.2356              1485.5430              1505.4003
 Red. masses --      3.6037                 2.9530                 5.5299
 Frc consts  --      4.5647                 3.8396                 7.3837
 IR Inten    --    129.9130                88.9051                21.3659

                     58                     59                     60
                      A                      A                      A
 Frequencies --   1534.4817              1575.7985              1604.9822
 Red. masses --      5.5201                 7.3431                 5.2277
 Frc consts  --      7.6581                10.7431                 7.9342
 IR Inten    --     21.0965                55.0496                26.2658

                     61                     62                     63
                      A                      A                      A
 Frequencies --   1635.7151              3136.4442              3141.2561
 Red. masses --      6.0079                 1.0843                 1.0879
 Frc consts  --      9.4709                 6.2848                 6.3250
 IR Inten    --    385.0363                25.2331                28.9305

                     64                     65                     66
                      A                      A                      A
 Frequencies --   3151.3629              3166.3994              3171.6243
 Red. masses --      1.0881                 1.0919                 1.0932
 Frc consts  --      6.3670                 6.4502                 6.4793
 IR Inten    --     23.1136                48.1963               108.9084

                     67                     68                     69
                      A                      A                      A
 Frequencies --   3172.3325              3180.6747              3822.4667
 Red. masses --      1.0932                 1.0888                 1.0664
 Frc consts  --      6.4819                 6.4897                 9.1801
 IR Inten    --     28.6984                32.6467               158.1997

 - Thermochemistry -
 -------------------
 Temperature   298.150 Kelvin.  Pressure   1.00000 Atm.
 Atom     1 has atomic number  8 and mass  15.99491

 Molecular mass:   224.04734 amu.
 Principal axes and moments of inertia in atomic units:
                           1         2         3
     Eigenvalues --  1775.670925318.055177093.72072
           X            0.98966  -0.10133   0.10147
           Y            0.03158   0.84423   0.53505
           Z           -0.13988  -0.52632   0.83870
 This molecule is an asymmetric top.
 Rotational symmetry number  1.
 Warning -- assumption of classical behavior for rotation
           may cause significant error
 Rotational temperatures (Kelvin)      0.04878     0.01629     0.01221
 Rotational constants (GHZ):           1.01637     0.33936     0.25441
 Zero-point vibrational energy     468720.8 (Joules/Mol)
                                  112.02696 (Kcal/Mol)
 Warning -- explicit consideration of  19 degrees of freedom as
           vibrations may cause significant error
 Vibrational temperatures:     85.66   157.55   204.89   242.70   277.62
          (Kelvin)            281.16   306.69   399.44   451.82   483.63
                              524.86   560.89   583.02   622.81   651.83
                              687.66   712.72   775.43   821.38   912.54
                              914.99   950.68   994.10  1005.92  1029.36
                             1078.63  1099.82  1114.99  1153.02  1221.81
                             1233.52  1258.96  1328.91  1393.44  1400.11
                             1407.70  1415.61  1456.35  1551.47  1592.60
                             1607.40  1630.34  1674.16  1703.24  1717.82
                             1739.32  1769.29  1808.91  1879.79  1929.67
                             1945.33  1963.12  2068.04  2089.50  2109.59
                             2137.36  2165.94  2207.78  2267.22  2309.21
                             2353.43  4512.64  4519.57  4534.11  4555.74
                             4563.26  4564.28  4576.28  5499.68

 Zero-point correction=                           0.178526 (Hartree/Particle)
 Thermal correction to Energy=                    0.191224
 Thermal correction to Enthalpy=                  0.192168
 Thermal correction to Gibbs Free Energy=         0.139861
 Sum of electronic and zero-point Energies=           -764.261709
 Sum of electronic and thermal Energies=              -764.249011
 Sum of electronic and thermal Enthalpies=            -764.248067
 Sum of electronic and thermal Free Energies=         -764.300374

                     E (Thermal)             CV                S
                      KCal/Mol        Cal/Mol-Kelvin    Cal/Mol-Kelvin
 Total                  119.995             51.885            110.091
 Electronic               0.000              0.000              0.000
 Translational            0.889              2.981             42.123
 Rotational               0.889              2.981             32.571
 Vibrational            118.217             45.923             35.397
 Vibration     1          0.597              1.974              4.472
 Vibration     2          0.606              1.942              3.278
 Vibration     3          0.616              1.911              2.771
 Vibration     4          0.625              1.881              2.450
 Vibration     5          0.635              1.850              2.199
 Vibration     6          0.636              1.846              2.176
 Vibration     7          0.644              1.821              2.016
 Vibration     8          0.679              1.715              1.548
 Vibration     9          0.702              1.647              1.341
 Vibration    10          0.717              1.603              1.230
 Vibration    11          0.738              1.545              1.102
 Vibration    12          0.758              1.492              1.001
 Vibration    13          0.770              1.459              0.944
 Vibration    14          0.794              1.399              0.849
 Vibration    15          0.812              1.354              0.787
 Vibration    16          0.834              1.299              0.716
 Vibration    17          0.851              1.260              0.670
 Vibration    18          0.894              1.164              0.568
 Vibration    19          0.927              1.094              0.503

 Optimization completed.
    -- Stationary point found.
 Normal termination of Gaussian 16 at Sat Feb 10 19:54:40 2024.
