 Gaussian 16, Revision A.03,
 Gaussian 16:  ES64L-G16RevA.03 25-Dec-2016

 ----------------------------------------------------------------------
 #P UB3LYP/genecp nosym opt freq SCRF=(PCM,Solvent=n,n-DiMethylFormamid
 e)
 ----------------------------------------------------------------------

 -------
 Reduced
 -------
 Symbolic Z-matrix:
 Charge = -2 Multiplicity = 1

 SCF Done:  E(UB3LYP) =  -836.326705747     A.U. after   17 cycles
 SCF Done:  E(UB3LYP) =  -836.328006572     A.U. after   13 cycles
 SCF Done:  E(UB3LYP) =  -836.328262118     A.U. after   13 cycles
 SCF Done:  E(UB3LYP) =  -836.328407282     A.U. after   12 cycles
 SCF Done:  E(UB3LYP) =  -836.328467665     A.U. after   12 cycles
 SCF Done:  E(UB3LYP) =  -836.328506950     A.U. after   13 cycles
 SCF Done:  E(UB3LYP) =  -836.328564564     A.U. after   12 cycles
 SCF Done:  E(UB3LYP) =  -836.328574340     A.U. after   12 cycles
 SCF Done:  E(UB3LYP) =  -836.328615530     A.U. after   12 cycles
 SCF Done:  E(UB3LYP) =  -836.328617625     A.U. after   10 cycles
 SCF Done:  E(UB3LYP) =  -836.328620947     A.U. after   11 cycles
 SCF Done:  E(UB3LYP) =  -836.328620574     A.U. after   11 cycles
 SCF Done:  E(UB3LYP) =  -836.328622500     A.U. after   11 cycles
 SCF Done:  E(UB3LYP) =  -836.328623581     A.U. after   10 cycles
 SCF Done:  E(UB3LYP) =  -836.328624168     A.U. after   10 cycles
 SCF Done:  E(UB3LYP) =  -836.328624486     A.U. after   10 cycles
 SCF Done:  E(UB3LYP) =  -836.328624573     A.U. after    9 cycles
 SCF Done:  E(UB3LYP) =  -836.328624598     A.U. after    8 cycles
 SCF Done:  E(UB3LYP) =  -836.328624607     A.U. after    8 cycles
 Optimization completed.
    -- Stationary point found.
 Normal termination of Gaussian 16 at Sat Feb 10 11:58:47 2024.

 ------------------------------------------------------------------
 #P Geom=AllCheck Guess=TCheck SCRF=Check GenChk UB3LYP/GenECP Freq
 ------------------------------------------------------------------

 Structure from the checkpoint file:  "007-an.chk"
 -------
 Reduced
 -------
 Charge = -2 Multiplicity = 1

                          Input orientation:
 ---------------------------------------------------------------------
 Center     Atomic      Atomic             Coordinates (Angstroms)
 Number     Number       Type             X           Y           Z
 ---------------------------------------------------------------------
      1          6           0       -1.343854    1.905653    0.989845
      2          6           0       -2.548590    1.506198    0.311880
      3          6           0       -2.560110    0.422529   -0.567907
      4          6           0       -1.435190   -0.387737   -0.879824
      5          6           0       -0.213604   -0.016795   -0.221721
      6          6           0       -0.231525    1.076666    0.660919
      7          8           0       -1.514239   -1.405839   -1.710256
      8          1           0       -3.492478    0.158268   -1.063611
      9          8           0       -1.290236    2.920632    1.808971
     10         53           0        1.600993    1.634648    1.672171
     11          6           0        1.028141   -0.821917   -0.513477
     12          6           0       -3.811537    2.327623    0.549190
     13          6           0       -4.092876    3.288891   -0.623433
     14          6           0       -5.056104    1.475874    0.853766
     15          1           0        0.798059   -1.549103   -1.292787
     16          1           0        1.389884   -1.367257    0.367597
     17          1           0        1.859528   -0.193666   -0.851773
     18          1           0       -3.604739    2.942698    1.429065
     19          1           0       -4.960456    3.926390   -0.415891
     20          1           0       -4.298711    2.731815   -1.544084
     21          1           0       -3.234393    3.939914   -0.812884
     22          1           0       -5.912676    2.115881    1.093301
     23          1           0       -4.882516    0.813018    1.706899
     24          1           0       -5.341970    0.851787    0.001107
 ---------------------------------------------------------------------

 SCF Done:  E(UB3LYP) =  -836.328624607     A.U. after    1 cycles

 Alpha  occ. eigenvalues --  -19.01295 -19.00910 -10.17228 -10.16542 -10.16442
 Alpha  occ. eigenvalues --  -10.14991 -10.14274 -10.14260 -10.13685 -10.13557
 Alpha  occ. eigenvalues --  -10.12858 -10.11656  -6.81078  -4.83345  -4.82475
 Alpha  occ. eigenvalues --   -4.82392  -1.88172  -1.87894  -1.87830  -1.87078
 Alpha  occ. eigenvalues --   -1.87076  -0.92409  -0.91423  -0.79619  -0.77273
 Alpha  occ. eigenvalues --   -0.71813  -0.68657  -0.66797  -0.63843  -0.63512
 Alpha  occ. eigenvalues --   -0.57340  -0.52264  -0.50395  -0.45478  -0.42603
 Alpha  occ. eigenvalues --   -0.41563  -0.40694  -0.39790  -0.39098  -0.37270
 Alpha  occ. eigenvalues --   -0.36829  -0.35529  -0.34475  -0.34343  -0.33843
 Alpha  occ. eigenvalues --   -0.32302  -0.32015  -0.30535  -0.30211  -0.28795
 Alpha  occ. eigenvalues --   -0.25550  -0.23761  -0.21670  -0.19847  -0.19314
 Alpha  occ. eigenvalues --   -0.18839  -0.11747
 Alpha virt. eigenvalues --   -0.00598   0.00106   0.01075   0.01924   0.02149
 Alpha virt. eigenvalues --    0.02217   0.03338   0.03830   0.04333   0.04938
 Alpha virt. eigenvalues --    0.05628   0.05815   0.06437   0.06880   0.07806

  Beta  occ. eigenvalues --  -19.01295 -19.00910 -10.17228 -10.16542 -10.16442
  Beta  occ. eigenvalues --  -10.14991 -10.14274 -10.14260 -10.13685 -10.13557
  Beta  occ. eigenvalues --  -10.12858 -10.11656  -6.81078  -4.83345  -4.82475
  Beta  occ. eigenvalues --   -4.82392  -1.88172  -1.87894  -1.87830  -1.87078
  Beta  occ. eigenvalues --   -1.87076  -0.92409  -0.91423  -0.79619  -0.77273
  Beta  occ. eigenvalues --   -0.71813  -0.68657  -0.66797  -0.63843  -0.63512
  Beta  occ. eigenvalues --   -0.57340  -0.52264  -0.50395  -0.45478  -0.42603
  Beta  occ. eigenvalues --   -0.41563  -0.40694  -0.39790  -0.39098  -0.37270
  Beta  occ. eigenvalues --   -0.36829  -0.35529  -0.34475  -0.34343  -0.33843
  Beta  occ. eigenvalues --   -0.32302  -0.32015  -0.30535  -0.30211  -0.28795
  Beta  occ. eigenvalues --   -0.25550  -0.23761  -0.21670  -0.19847  -0.19314
  Beta  occ. eigenvalues --   -0.18839  -0.11747
  Beta virt. eigenvalues --   -0.00598   0.00106   0.01075   0.01924   0.02149
  Beta virt. eigenvalues --    0.02217   0.03338   0.03830   0.04333   0.04938
  Beta virt. eigenvalues --    0.05628   0.05815   0.06437   0.06880   0.07806

 Mulliken charges and spin densities:
               1          2
     1  C   -0.718728  -0.000000
     2  C    0.745254   0.000000
     3  C   -0.182637  -0.000000
     4  C   -1.162054   0.000000
     5  C    0.710360  -0.000000
     6  C    0.255248   0.000000
     7  O   -0.733431  -0.000000
     8  H    0.107122  -0.000000
     9  O   -0.642932   0.000000
    10  I   -0.276883  -0.000000
    11  C   -0.435303  -0.000000
    12  C    0.207018  -0.000000
    13  C   -0.666610   0.000000
    14  C   -0.644100   0.000000
    15  H    0.171703  -0.000000
    16  H    0.126800   0.000000
    17  H    0.116507   0.000000
    18  H    0.190607  -0.000000
    19  H    0.128824   0.000000
    20  H    0.148648  -0.000000
    21  H    0.145984   0.000000
    22  H    0.142273   0.000000
    23  H    0.130667  -0.000000
    24  H    0.135663   0.000000
 Sum of Mulliken charges =  -2.00000   0.00000

 Dipole moment (field-independent basis, Debye):
    X=              9.8884    Y=             -7.8171    Z=             -1.9797  Tot=             12.7596
 Quadrupole moment (field-independent basis, Debye-Ang):
   XX=           -133.4975   YY=           -153.7590   ZZ=           -137.6009
   XY=              3.2236   XZ=             -5.9279   YZ=            -31.9933

  Exact polarizability: 325.586  -9.160 258.452  37.896  55.030 237.570
 Approx polarizability: 335.757  -8.288 285.041  36.800  66.312 261.705

                      1                      2                      3
                      A                      A                      A
 Frequencies --     31.7127                85.4085                90.5957
 Red. masses --      2.9515                 3.2030                 3.9101
 Frc consts  --      0.0017                 0.0138                 0.0189
 IR Inten    --      3.2449                12.9308                 0.0066

                      4                      5                      6
                      A                      A                      A
 Frequencies --    123.1376               130.0731               147.7465
 Red. masses --      1.6548                 2.3711                 6.4064
 Frc consts  --      0.0148                 0.0236                 0.0824
 IR Inten    --      6.4498                10.0538                17.0697

                      7                      8                      9
                      A                      A                      A
 Frequencies --    183.3208               204.7408               231.3181
 Red. masses --      5.8070                 4.1825                 2.9068
 Frc consts  --      0.1150                 0.1033                 0.0916
 IR Inten    --      0.7809                 3.1611                 0.7594

                     10                     11                     12
                      A                      A                      A
 Frequencies --    239.6477               261.3423               277.7657
 Red. masses --      1.2103                 1.1330                 3.5023
 Frc consts  --      0.0410                 0.0456                 0.1592
 IR Inten    --      0.2942                 1.3242                 7.5966

                     13                     14                     15
                      A                      A                      A
 Frequencies --    316.9888               333.2171               392.9526
 Red. masses --      4.5823                 3.1865                 7.2150
 Frc consts  --      0.2713                 0.2085                 0.6564
 IR Inten    --      0.8365                10.2946                17.4766

                     16                     17                     18
                      A                      A                      A
 Frequencies --    414.4729               426.2033               491.2184
 Red. masses --      5.2888                 2.7852                 6.0411
 Frc consts  --      0.5353                 0.2981                 0.8588
 IR Inten    --      1.2568                 2.3615                 1.6390

                     19                     20                     21
                      A                      A                      A
 Frequencies --    531.3315               555.5974               658.0745
 Red. masses --      4.2141                 4.3292                 5.1060
 Frc consts  --      0.7009                 0.7874                 1.3028
 IR Inten    --      6.8792                 3.8869                37.1415

                     22                     23                     24
                      A                      A                      A
 Frequencies --    676.3265               680.9223               751.5973
 Red. masses --      4.3093                 3.7935                 6.5769
 Frc consts  --      1.1614                 1.0363                 2.1890
 IR Inten    --    146.3371                 1.4021                17.6441

                     25                     26                     27
                      A                      A                      A
 Frequencies --    754.4620               848.0721               858.9567
 Red. masses --      6.6771                 3.1641                 1.6945
 Frc consts  --      2.2393                 1.3408                 0.7366
 IR Inten    --     47.0306               151.8353                40.5632

                     28                     29                     30
                      A                      A                      A
 Frequencies --    895.8368               924.7370               952.2001
 Red. masses --      2.5290                 1.1882                 1.4999
 Frc consts  --      1.1958                 0.5987                 0.8012
 IR Inten    --      6.9340                 2.8248                 0.7128

                     31                     32                     33
                      A                      A                      A
 Frequencies --    989.8689              1041.9134              1052.3165
 Red. masses --      1.9756                 1.4432                 2.2103
 Frc consts  --      1.1405                 0.9231                 1.4421
 IR Inten    --    220.7484                 2.2550                 1.5263

                     34                     35                     36
                      A                      A                      A
 Frequencies --   1104.1177              1114.8896              1144.8854
 Red. masses --      2.1654                 2.3808                 9.4889
 Frc consts  --      1.5553                 1.7436                 7.3281
 IR Inten    --      9.0918                17.1899               392.2347

                     37                     38                     39
                      A                      A                      A
 Frequencies --   1169.6632              1193.7774              1233.2311
 Red. masses --      2.3975                 1.9714                 2.0866
 Frc consts  --      1.9325                 1.6553                 1.8697
 IR Inten    --     12.8010                26.9467               313.6585

                     40                     41                     42
                      A                      A                      A
 Frequencies --   1313.4291              1353.3524              1362.4749
 Red. masses --      3.2092                 2.3930                 1.5692
 Frc consts  --      3.2618                 2.5823                 1.7163
 IR Inten    --     15.2756                96.5697               180.8985

                     43                     44                     45
                      A                      A                      A
 Frequencies --   1365.0871              1381.3228              1383.8684
 Red. masses --      2.3014                 1.2620                 1.6870
 Frc consts  --      2.5267                 1.4188                 1.9035
 IR Inten    --    776.7269                19.5874               323.0634

                     46                     47                     48
                      A                      A                      A
 Frequencies --   1401.9924              1434.3216              1450.3883
 Red. masses --      1.2635                 4.4264                 2.0622
 Frc consts  --      1.4632                 5.3653                 2.5560
 IR Inten    --     58.8846               390.3184               139.8244

                     49                     50                     51
                      A                      A                      A
 Frequencies --   1475.8342              1476.2906              1481.8486
 Red. masses --      1.4437                 1.0645                 1.0766
 Frc consts  --      1.8527                 1.3670                 1.3929
 IR Inten    --     25.0000                 1.9737                 3.9593

                     52                     53                     54
                      A                      A                      A
 Frequencies --   1488.6759              1489.7673              1494.6227
 Red. masses --      1.0662                 1.0569                 1.0668
 Frc consts  --      1.3922                 1.3821                 1.4041
 IR Inten    --     12.3538                18.7412                 4.5872

                     55                     56                     57
                      A                      A                      A
 Frequencies --   1592.9539              2990.6020              2998.1028
 Red. masses --      7.1878                 1.0444                 1.0358
 Frc consts  --     10.7462                 5.5035                 5.4853
 IR Inten    --     85.8932               145.2869                76.7906

                     58                     59                     60
                      A                      A                      A
 Frequencies --   3007.5021              3028.7813              3038.8073
 Red. masses --      1.0357                 1.0950                 1.0873
 Frc consts  --      5.5195                 5.9185                 5.9156
 IR Inten    --    102.8544                61.7612                 8.2869

                     61                     62                     63
                      A                      A                      A
 Frequencies --   3055.1337              3065.0842              3072.3502
 Red. masses --      1.0998                 1.0974                 1.1013
 Frc consts  --      6.0482                 6.0744                 6.1247
 IR Inten    --     18.3250               162.2401                52.3897

                     64                     65                     66
                      A                      A                      A
 Frequencies --   3078.0539              3106.0750              3116.8805
 Red. masses --      1.0985                 1.0943                 1.0866
 Frc consts  --      6.1322                 6.2204                 6.2198
 IR Inten    --     83.0362                20.7483               110.9764

 - Thermochemistry -
 -------------------
 Temperature   298.150 Kelvin.  Pressure   1.00000 Atm.
 Atom     1 has atomic number  6 and mass  12.00000

 Molecular mass:   289.97630 amu.
 Principal axes and moments of inertia in atomic units:
                           1         2         3
     Eigenvalues --  2246.116995673.045007536.43105
           X            0.95246  -0.17743  -0.24766
           Y           -0.00130   0.81053  -0.58570
           Z            0.30466   0.55818   0.77176
 This molecule is an asymmetric top.
 Rotational symmetry number  1.
 Warning -- assumption of classical behavior for rotation
           may cause significant error
 Rotational temperatures (Kelvin)      0.03856     0.01527     0.01149
 Rotational constants (GHZ):           0.80349     0.31813     0.23947
 Zero-point vibrational energy     478615.4 (Joules/Mol)
                                  114.39182 (Kcal/Mol)
 Warning -- explicit consideration of  20 degrees of freedom as
           vibrations may cause significant error
 Vibrational temperatures:     45.63   122.88   130.35   177.17   187.15
          (Kelvin)            212.57   263.76   294.58   332.82   344.80
                              376.01   399.64   456.08   479.43   565.37
                              596.33   613.21   706.75   764.47   799.38
                              946.82   973.08   979.70  1081.38  1085.50
                             1220.19  1235.85  1288.91  1330.49  1370.00
                             1424.20  1499.08  1514.05  1588.58  1604.08
                             1647.23  1682.88  1717.58  1774.34  1889.73
                             1947.17  1960.30  1964.06  1987.42  1991.08
                             2017.15  2063.67  2086.79  2123.40  2124.05
                             2132.05  2141.87  2143.44  2150.43  2291.91
                             4302.81  4313.60  4327.12  4357.74  4372.17
                             4395.66  4409.97  4420.43  4428.63  4468.95
                             4484.50

 Zero-point correction=                           0.182295 (Hartree/Particle)
 Thermal correction to Energy=                    0.196067
 Thermal correction to Enthalpy=                  0.197012
 Thermal correction to Gibbs Free Energy=         0.140427
 Sum of electronic and zero-point Energies=           -836.146330
 Sum of electronic and thermal Energies=              -836.132557
 Sum of electronic and thermal Enthalpies=            -836.131613
 Sum of electronic and thermal Free Energies=         -836.188198

                     E (Thermal)             CV                S
                      KCal/Mol        Cal/Mol-Kelvin    Cal/Mol-Kelvin
 Total                  123.034             50.164            119.093
 Electronic               0.000              0.000              0.000
 Translational            0.889              2.981             42.891
 Rotational               0.889              2.981             32.929
 Vibrational            121.257             44.202             43.272
 Vibration     1          0.594              1.983              5.719
 Vibration     2          0.601              1.959              3.763
 Vibration     3          0.602              1.956              3.647
 Vibration     4          0.610              1.930              3.051
 Vibration     5          0.612              1.923              2.945
 Vibration     6          0.617              1.905              2.701
 Vibration     7          0.631              1.863              2.294
 Vibration     8          0.640              1.833              2.090
 Vibration     9          0.653              1.793              1.869
 Vibration    10          0.657              1.780              1.805
 Vibration    11          0.669              1.744              1.653
 Vibration    12          0.679              1.715              1.547
 Vibration    13          0.704              1.641              1.326
 Vibration    14          0.715              1.609              1.244
 Vibration    15          0.760              1.485              0.989
 Vibration    16          0.778              1.439              0.911
 Vibration    17          0.788              1.413              0.871
 Vibration    18          0.847              1.270              0.680
 Vibration    19          0.886              1.181              0.584
 Vibration    20          0.911              1.127              0.533

 Optimization completed.
    -- Stationary point found.
 Normal termination of Gaussian 16 at Sat Feb 10 12:52:03 2024.
