 Gaussian 16, Revision A.03,
 Gaussian 16:  ES64L-G16RevA.03 25-Dec-2016

 ----------------------------------------------
 #P UB3LYP/6-311++G(d,p) nosym opt freq SCF=YQC
 ----------------------------------------------

 -------
 Reduced
 -------
 Symbolic Z-matrix:
 Charge = -2 Multiplicity = 1

 SCF Done:  E(UB3LYP) =  -914.591316072     a.u. after   16 cycles
 SCF Done:  E(UB3LYP) =  -914.594284022     A.U. after   33 cycles
 SCF Done:  E(UB3LYP) =  -914.594284022     a.u. after    1 cycles
 SCF Done:  E(UB3LYP) =  -914.639225749     a.u. after   45 cycles
 SCF Done:  E(UB3LYP) =  -914.639545038     A.U. after   29 cycles
 SCF Done:  E(UB3LYP) =  -914.647629223     a.u. after   45 cycles
 SCF Done:  E(UB3LYP) =  -914.649444883     A.U. after   22 cycles
 SCF Done:  E(UB3LYP) =  -914.672267659     a.u. after   21 cycles
 SCF Done:  E(UB3LYP) =  -914.672427562     A.U. after   21 cycles
 SCF Done:  E(UB3LYP) =  -914.674235498     a.u. after   21 cycles
 SCF Done:  E(UB3LYP) =  -914.685245648     a.u. after    1 cycles
 SCF Done:  E(UB3LYP) =  -914.685247484     A.U. after   17 cycles
 SCF Done:  E(UB3LYP) =  -914.685244673     a.u. after    1 cycles
 SCF Done:  E(UB3LYP) =  -914.685247526     A.U. after   17 cycles
 SCF Done:  E(UB3LYP) =  -914.685245117     a.u. after    1 cycles
 SCF Done:  E(UB3LYP) =  -914.685247574     A.U. after   17 cycles
 SCF Done:  E(UB3LYP) =  -914.685246871     a.u. after    1 cycles
 SCF Done:  E(UB3LYP) =  -914.685247612     A.U. after   16 cycles
 Optimization completed.
    -- Stationary point found.
 Normal termination of Gaussian 16 at Fri Dec 22 12:07:21 2023.

 ----------------------------------------------------------------------
 #P Geom=AllCheck Guess=TCheck SCRF=Check GenChk UB3LYP/6-311++G(d,p) F
 req
 ----------------------------------------------------------------------

 Structure from the checkpoint file:  "202-an.chk"
 -------
 Reduced
 -------
 Charge = -2 Multiplicity = 1

                          Input orientation:
 ---------------------------------------------------------------------
 Center     Atomic      Atomic             Coordinates (Angstroms)
 Number     Number       Type             X           Y           Z
 ---------------------------------------------------------------------
      1          8           0        4.893003    0.888911   -0.721810
      2          6           0        3.629789    0.309065   -0.517108
      3          6           0        3.520446   -1.105614   -0.437438
      4          6           0        2.269834   -1.662487   -0.220147
      5          6           0        1.105754   -0.884835   -0.106211
      6          6           0       -0.178771   -1.555402    0.107316
      7          8           0       -0.235823   -2.815660    0.194554
      8          6           0       -1.344361   -0.672622    0.210409
      9          6           0       -2.665086   -1.182085    0.414913
     10          8           0       -2.890051   -2.560460    0.519621
     11          6           0       -3.745186   -0.330046    0.513153
     12          6           0       -3.604159    1.072775    0.412188
     13          6           0       -2.356019    1.668507    0.211080
     14          8           0       -2.210659    2.967417    0.117383
     15          6           0       -1.193887    0.769476    0.107473
     16          6           0        0.085742    1.351022   -0.101667
     17          8           0        0.228213    2.715079   -0.202877
     18          6           0        1.226306    0.549992   -0.208011
     19          6           0        2.532504    1.115416   -0.399741
     20          1           0        5.543270    0.262913   -0.380188
     21          1           0        4.400095   -1.730005   -0.583807
     22          1           0        2.141511   -2.737968   -0.148375
     23          1           0       -3.847089   -2.648780    0.582447
     24          1           0       -4.737826   -0.757628    0.676153
     25          1           0       -4.471214    1.723323    0.492527
     26          1           0       -0.732675    3.057108   -0.090220
     27          1           0        2.636340    2.192589   -0.441618
 ---------------------------------------------------------------------

 SCF Done:  E(UB3LYP) =  -914.685247612     a.u. after    1 cycles
 SCF Done:  E(UB3LYP) =  -914.685247612     A.U. after    1 cycles

 Alpha  occ. eigenvalues --  -18.93668 -18.90275 -18.84874 -18.80321 -18.79385
 Alpha  occ. eigenvalues --   -9.99607  -9.97169  -9.96215  -9.95772  -9.94919
 Alpha  occ. eigenvalues --   -9.93668  -9.93452  -9.92451  -9.92041  -9.91999
 Alpha  occ. eigenvalues --   -9.91792  -9.91537  -9.91114  -9.90129  -0.83644
 Alpha  occ. eigenvalues --   -0.80745  -0.76621  -0.71903  -0.70910  -0.60903
 Alpha  occ. eigenvalues --   -0.57866  -0.53282  -0.51025  -0.48419  -0.46447
 Alpha  occ. eigenvalues --   -0.42201  -0.38737  -0.38355  -0.34285  -0.33678
 Alpha  occ. eigenvalues --   -0.29979  -0.29290  -0.27233  -0.24745  -0.23449
 Alpha  occ. eigenvalues --   -0.21850  -0.20560  -0.19978  -0.19284  -0.18557
 Alpha  occ. eigenvalues --   -0.16919  -0.16392  -0.16128  -0.14449  -0.13939
 Alpha  occ. eigenvalues --   -0.13660  -0.13015  -0.12615  -0.11482  -0.10255
 Alpha  occ. eigenvalues --   -0.09561  -0.09294  -0.08175  -0.07531  -0.03439
 Alpha  occ. eigenvalues --   -0.01678   0.00046   0.01334   0.01904   0.03891
 Alpha  occ. eigenvalues --    0.06123   0.11838
 Alpha virt. eigenvalues --    0.14053   0.16089   0.17598   0.18361   0.19981
 Alpha virt. eigenvalues --    0.20339   0.20912   0.21086   0.22596   0.23467
 Alpha virt. eigenvalues --    0.24582   0.24926   0.25672   0.26346   0.26593

  Beta  occ. eigenvalues --  -18.93668 -18.90275 -18.84874 -18.80321 -18.79385
  Beta  occ. eigenvalues --   -9.99607  -9.97169  -9.96215  -9.95772  -9.94919
  Beta  occ. eigenvalues --   -9.93668  -9.93452  -9.92451  -9.92041  -9.91999
  Beta  occ. eigenvalues --   -9.91792  -9.91537  -9.91114  -9.90129  -0.83644
  Beta  occ. eigenvalues --   -0.80745  -0.76621  -0.71903  -0.70910  -0.60903
  Beta  occ. eigenvalues --   -0.57866  -0.53282  -0.51025  -0.48419  -0.46447
  Beta  occ. eigenvalues --   -0.42201  -0.38737  -0.38355  -0.34285  -0.33678
  Beta  occ. eigenvalues --   -0.29979  -0.29290  -0.27233  -0.24745  -0.23449
  Beta  occ. eigenvalues --   -0.21850  -0.20560  -0.19978  -0.19284  -0.18557
  Beta  occ. eigenvalues --   -0.16919  -0.16392  -0.16128  -0.14449  -0.13939
  Beta  occ. eigenvalues --   -0.13660  -0.13015  -0.12615  -0.11482  -0.10255
  Beta  occ. eigenvalues --   -0.09561  -0.09294  -0.08175  -0.07531  -0.03439
  Beta  occ. eigenvalues --   -0.01678   0.00046   0.01334   0.01904   0.03891
  Beta  occ. eigenvalues --    0.06123   0.11838
  Beta virt. eigenvalues --    0.14053   0.16089   0.17598   0.18361   0.19981
  Beta virt. eigenvalues --    0.20339   0.20912   0.21086   0.22596   0.23467
  Beta virt. eigenvalues --    0.24582   0.24926   0.25672   0.26346   0.26593

 Mulliken charges and spin densities:
               1          2
     1  O   -0.303066  -0.000000
     2  C   -0.535843   0.000000
     3  C   -0.210088  -0.000000
     4  C   -0.068319  -0.000000
     5  C   -0.119281   0.000000
     6  C   -0.514215   0.000000
     7  O   -0.445540  -0.000000
     8  C    0.516601  -0.000000
     9  C   -0.377836   0.000000
    10  O   -0.214925  -0.000000
    11  C   -0.192318   0.000000
    12  C   -0.007007  -0.000000
    13  C   -0.818205   0.000000
    14  O   -0.567437  -0.000000
    15  C    0.812525  -0.000000
    16  C   -0.107271  -0.000000
    17  O   -0.483603  -0.000000
    18  C    0.809289  -0.000000
    19  C   -0.224132  -0.000000
    20  H    0.041875  -0.000000
    21  H    0.015301  -0.000000
    22  H    0.135370   0.000000
    23  H    0.203808  -0.000000
    24  H    0.026556   0.000000
    25  H    0.077670   0.000000
    26  H    0.406945   0.000000
    27  H    0.143144   0.000000
 Sum of Mulliken charges =  -2.00000   0.00000

 Dipole moment (field-independent basis, Debye):
    X=              1.3733    Y=             -2.7529    Z=              0.0825  Tot=              3.0776
 Quadrupole moment (field-independent basis, Debye-Ang):
   XX=           -178.8530   YY=           -177.5898   ZZ=           -123.6922
   XY=              7.1888   XZ=              8.2448   YZ=              3.3610

  Exact polarizability:1854.583-118.539 273.841  -7.523 -10.630 122.524
 Approx polarizability:2012.920-114.572 477.756 -56.031 -17.409 189.547

                      1                      2                      3
                      A                      A                      A
 Frequencies --     39.3539                69.1545                97.0057
 Red. masses --      6.4316                 6.9693                 4.5410
 Frc consts  --      0.0059                 0.0196                 0.0252
 IR Inten    --      8.6308                 0.2715                 8.2126

                      4                      5                      6
                      A                      A                      A
 Frequencies --    111.7921               147.0670               166.0879
 Red. masses --      6.5239                 1.3341                 5.5149
 Frc consts  --      0.0480                 0.0170                 0.0896
 IR Inten    --      0.2982                46.3627                 5.2169

                      7                      8                      9
                      A                      A                      A
 Frequencies --    176.3458               226.4734               273.7878
 Red. masses --      6.9625                 5.6404                 4.6073
 Frc consts  --      0.1276                 0.1704                 0.2035
 IR Inten    --     13.3836                 5.6565                14.6033

                     10                     11                     12
                      A                      A                      A
 Frequencies --    282.6002               317.6326               331.7786
 Red. masses --      1.2881                 6.3028                 8.4051
 Frc consts  --      0.0606                 0.3747                 0.5451
 IR Inten    --    181.1685                 0.3319                 7.4258

                     13                     14                     15
                      A                      A                      A
 Frequencies --    355.8112               359.2320               387.5049
 Red. masses --      7.4300                10.4264                 6.2777
 Frc consts  --      0.5542                 0.7927                 0.5554
 IR Inten    --      4.1694                 3.0628                12.4322

                     16                     17                     18
                      A                      A                      A
 Frequencies --    394.4549               405.8031               428.7412
 Red. masses --      6.8750                 6.3386                 6.7075
 Frc consts  --      0.6303                 0.6150                 0.7264
 IR Inten    --     84.3615                59.4631               157.3052

                     19                     20                     21
                      A                      A                      A
 Frequencies --    447.0173               473.0886               484.9734
 Red. masses --      3.4427                11.5526                 7.4183
 Frc consts  --      0.4053                 1.5234                 1.0280
 IR Inten    --    118.6035               135.4703                96.7356

                     22                     23                     24
                      A                      A                      A
 Frequencies --    518.4501               539.3057               566.2506
 Red. masses --      4.0633                 8.1287                 2.9483
 Frc consts  --      0.6435                 1.3930                 0.5570
 IR Inten    --      2.6175                74.3183                42.3375

                     25                     26                     27
                      A                      A                      A
 Frequencies --    584.1255               630.6163               657.2660
 Red. masses --      4.9123                 2.2898                 3.8930
 Frc consts  --      0.9875                 0.5365                 0.9909
 IR Inten    --     23.8377                49.4218                37.7816

                     28                     29                     30
                      A                      A                      A
 Frequencies --    660.5780               681.4655               698.4232
 Red. masses --      3.0485                 6.6428                 2.1282
 Frc consts  --      0.7838                 1.8176                 0.6117
 IR Inten    --      9.5985                31.4301                28.3647

                     31                     32                     33
                      A                      A                      A
 Frequencies --    711.9126               735.3702               743.4100
 Red. masses --      4.3228                 6.7476                 1.6839
 Frc consts  --      1.2908                 2.1499                 0.5483
 IR Inten    --     40.7374                35.8774                 3.4508

                     34                     35                     36
                      A                      A                      A
 Frequencies --    778.6505               794.0279               797.9191
 Red. masses --      2.6241                 7.6994                 8.1187
 Frc consts  --      0.9374                 2.8601                 3.0455
 IR Inten    --     25.3677               122.4248                 1.2485

                     37                     38                     39
                      A                      A                      A
 Frequencies --    864.4515               874.6228               908.5128
 Red. masses --      1.5590                 4.8421                 8.7750
 Frc consts  --      0.6864                 2.1824                 4.2674
 IR Inten    --     88.8680               215.5647               169.0317

                     40                     41                     42
                      A                      A                      A
 Frequencies --    951.4857               969.2283              1010.1902
 Red. masses --      1.3310                 3.9323                 1.0506
 Frc consts  --      0.7099                 2.1764                 0.6317
 IR Inten    --     35.2034               379.1431                62.8620

                     43                     44                     45
                      A                      A                      A
 Frequencies --   1054.4047              1079.8788              1113.2456
 Red. masses --      2.3364                 2.6355                 1.6318
 Frc consts  --      1.5304                 1.8108                 1.1915
 IR Inten    --    408.8787               177.7087               179.2155

                     46                     47                     48
                      A                      A                      A
 Frequencies --   1151.1696              1152.2826              1187.1722
 Red. masses --      1.7959                 2.1739                 3.3429
 Frc consts  --      1.4022                 1.7007                 2.7759
 IR Inten    --   1496.3390                39.0025                95.7301

                     49                     50                     51
                      A                      A                      A
 Frequencies --   1198.8685              1213.6862              1218.8851
 Red. masses --      2.3307                 1.5066                 2.5587
 Frc consts  --      1.9737                 1.3076                 2.2397
 IR Inten    --     45.7440                59.0327               796.5924

                     52                     53                     54
                      A                      A                      A
 Frequencies --   1248.3223              1284.9511              1302.9440
 Red. masses --      1.9091                 5.5757                 4.3631
 Frc consts  --      1.7528                 5.4241                 4.3641
 IR Inten    --    161.0888               352.9727               417.2159

                     55                     56                     57
                      A                      A                      A
 Frequencies --   1334.5570              1357.2939              1378.6561
 Red. masses --      4.0605                 4.3085                 3.2692
 Frc consts  --      4.2610                 4.6765                 3.6610
 IR Inten    --    174.9734                14.3860               479.7830

                     58                     59                     60
                      A                      A                      A
 Frequencies --   1409.7043              1449.0120              1464.8949
 Red. masses --      3.6374                 3.3464                 3.7374
 Frc consts  --      4.2589                 4.1398                 4.7254
 IR Inten    --    177.9377               395.8540               709.1053

                     61                     62                     63
                      A                      A                      A
 Frequencies --   1489.1797              1528.4457              1532.1606
 Red. masses --      3.5088                 5.8081                 7.0943
 Frc consts  --      4.5846                 7.9943                 9.8123
 IR Inten    --   1619.7798               236.9737               413.4997

                     64                     65                     66
                      A                      A                      A
 Frequencies --   1563.5724              1579.0374              1629.5551
 Red. masses --      4.8912                 5.8155                 5.5777
 Frc consts  --      7.0453                 8.5432                 8.7266
 IR Inten    --    689.2747              1207.8579              1357.6863

                     67                     68                     69
                      A                      A                      A
 Frequencies --   1660.3366              2625.3806              3053.6924
 Red. masses --      1.6853                 1.0821                 1.0858
 Frc consts  --      2.7373                 4.3944                 5.9657
 IR Inten    --    571.7025              1426.2408               278.7881

                     70                     71                     72
                      A                      A                      A
 Frequencies --   3107.8491              3132.9802              3161.6468
 Red. masses --      1.0874                 1.0895                 1.0902
 Frc consts  --      6.1883                 6.3005                 6.4206
 IR Inten    --    251.8340               286.8200                39.9771

                     73                     74                     75
                      A                      A                      A
 Frequencies --   3190.3077              3732.0293              3796.0194
 Red. masses --      1.0893                 1.0655                 1.0649
 Frc consts  --      6.5323                 8.7435                 9.0413
 IR Inten    --     15.1247             10699.0513                 0.1076

 - Thermochemistry -
 -------------------
 Temperature   298.150 Kelvin.  Pressure   1.00000 Atm.
 Atom     1 has atomic number  8 and mass  15.99491

 Molecular mass:   256.03717 amu.
 Principal axes and moments of inertia in atomic units:
                           1         2         3
     Eigenvalues --  2663.267656218.441538880.47442
           X            0.99079  -0.03013   0.13203
           Y            0.02283   0.99814   0.05645
           Z           -0.13348  -0.05291   0.98964
 This molecule is an asymmetric top.
 Rotational symmetry number  1.
 Warning -- assumption of classical behavior for rotation
           may cause significant error
 Rotational temperatures (Kelvin)      0.03252     0.01393     0.00975
 Rotational constants (GHZ):           0.67764     0.29022     0.20323
 Zero-point vibrational energy     484691.5 (Joules/Mol)
                                  115.84405 (Kcal/Mol)
 Warning -- explicit consideration of  25 degrees of freedom as
           vibrations may cause significant error
 Vibrational temperatures:     56.62    99.50   139.57   160.84   211.60
          (Kelvin)            238.96   253.72   325.84   393.92   406.60
                              457.00   477.36   511.93   516.85   557.53
                              567.53   583.86   616.86   643.16   680.67
                              697.77   745.93   775.94   814.71   840.43
                              907.32   945.66   950.42   980.48  1004.88
                             1024.28  1058.03  1069.60  1120.30  1142.43
                             1148.03  1243.75  1258.39  1307.15  1368.98
                             1394.50  1453.44  1517.05  1553.70  1601.71
                             1656.28  1657.88  1708.08  1724.90  1746.22
                             1753.70  1796.06  1848.76  1874.65  1920.13
                             1952.84  1983.58  2028.25  2084.81  2107.66
                             2142.60  2199.09  2204.44  2249.63  2271.88
                             2344.57  2388.85  3777.34  4393.58  4471.50
                             4507.66  4548.90  4590.14  5369.56  5461.63

 Zero-point correction=                           0.184609 (Hartree/Particle)
 Thermal correction to Energy=                    0.199815
 Thermal correction to Enthalpy=                  0.200759
 Thermal correction to Gibbs Free Energy=         0.142608
 Sum of electronic and zero-point Energies=           -914.500638
 Sum of electronic and thermal Energies=              -914.485433
 Sum of electronic and thermal Enthalpies=            -914.484489
 Sum of electronic and thermal Free Energies=         -914.542640

                     E (Thermal)             CV                S
                      KCal/Mol        Cal/Mol-Kelvin    Cal/Mol-Kelvin
 Total                  125.386             60.717            122.389
 Electronic               0.000              0.000              0.000
 Translational            0.889              2.981             42.520
 Rotational               0.889              2.981             33.353
 Vibrational            123.608             54.755             46.516
 Vibration     1          0.594              1.981              5.291
 Vibration     2          0.598              1.969              4.177
 Vibration     3          0.603              1.951              3.514
 Vibration     4          0.607              1.940              3.238
 Vibration     5          0.617              1.906              2.710
 Vibration     6          0.624              1.884              2.479
 Vibration     7          0.628              1.872              2.367
 Vibration     8          0.650              1.801              1.907
 Vibration     9          0.676              1.722              1.572
 Vibration    10          0.682              1.706              1.518
 Vibration    11          0.704              1.640              1.322
 Vibration    12          0.714              1.612              1.251
 Vibration    13          0.731              1.563              1.140
 Vibration    14          0.734              1.556              1.125
 Vibration    15          0.756              1.497              1.010
 Vibration    16          0.761              1.482              0.983
 Vibration    17          0.771              1.458              0.942
 Vibration    18          0.790              1.408              0.863
 Vibration    19          0.806              1.367              0.805
 Vibration    20          0.830              1.310              0.729
 Vibration    21          0.841              1.283              0.697
 Vibration    22          0.873              1.209              0.614
 Vibration    23          0.894              1.163              0.567
 Vibration    24          0.922              1.104              0.511
 Vibration    25          0.941              1.066              0.478

 Optimization completed.
    -- Stationary point found.
 Normal termination of Gaussian 16 at Fri Dec 22 12:57:12 2023.
