 Gaussian 16, Revision A.03,
 Gaussian 16:  ES64L-G16RevA.03 25-Dec-2016

 ----------------------------------------------------------------------
 #P UB3LYP/6-311++G(d,p) nosym opt freq SCRF=(PCM,Solvent=n,n-DiMethylF
 ormamide)
 ----------------------------------------------------------------------

 -------
 Radical
 -------
 Symbolic Z-matrix:
 Charge = -1 Multiplicity = 2

 SCF Done:  E(UB3LYP) =  -1069.29311385     A.U. after   21 cycles
 SCF Done:  E(UB3LYP) =  -1069.29361113     A.U. after   16 cycles
 SCF Done:  E(UB3LYP) =  -1069.29370576     A.U. after   16 cycles
 SCF Done:  E(UB3LYP) =  -1069.29357385     A.U. after   15 cycles
 SCF Done:  E(UB3LYP) =  -1069.29373717     A.U. after   14 cycles
 SCF Done:  E(UB3LYP) =  -1069.29375483     A.U. after   14 cycles
 SCF Done:  E(UB3LYP) =  -1069.29375571     A.U. after   13 cycles
 SCF Done:  E(UB3LYP) =  -1069.29375624     A.U. after   12 cycles
 SCF Done:  E(UB3LYP) =  -1069.29375643     A.U. after   11 cycles
 SCF Done:  E(UB3LYP) =  -1069.29375648     A.U. after   10 cycles
 SCF Done:  E(UB3LYP) =  -1069.29375649     A.U. after    9 cycles
 Optimization completed.
    -- Stationary point found.
 Normal termination of Gaussian 16 at Sat Feb 10 11:56:02 2024.

 ----------------------------------------------------------------------
 #P Geom=AllCheck Guess=TCheck SCRF=Check GenChk UB3LYP/6-311++G(d,p) F
 req
 ----------------------------------------------------------------------

 Structure from the checkpoint file:  "115-rad.chk"
 -------
 Radical
 -------
 Charge = -1 Multiplicity = 2

                          Input orientation:
 ---------------------------------------------------------------------
 Center     Atomic      Atomic             Coordinates (Angstroms)
 Number     Number       Type             X           Y           Z
 ---------------------------------------------------------------------
      1          6           0       -2.201437   -3.845232    1.235895
      2          6           0       -0.762255   -3.879473    1.386846
      3          6           0       -0.002872   -2.758813    1.557792
      4          6           0       -0.582996   -1.436786    1.600658
      5          6           0       -2.028805   -1.373645    1.448587
      6          6           0       -2.776657   -2.510081    1.280324
      7          8           0       -2.891581   -4.888536    1.081536
      8          8           0        0.106501   -0.388701    1.758686
      9         17           0       -4.529117   -2.392340    1.106505
     10          6           0       -2.643368   -0.006082    1.452377
     11          8           0       -2.801748    0.676047    0.463779
     12          8           0       -2.983506    0.381445    2.688157
     13          6           0       -3.567954    1.699285    2.818679
     14          1           0       -0.302947   -4.862279    1.357584
     15          1           0        1.074397   -2.827130    1.668654
     16          1           0       -3.766069    1.821842    3.880173
     17          1           0       -4.493797    1.758101    2.246513
     18          1           0       -2.867158    2.457341    2.469155
 ---------------------------------------------------------------------

 SCF Done:  E(UB3LYP) =  -1069.29375649     A.U. after    1 cycles

 Alpha  occ. eigenvalues -- -101.55670 -19.18050 -19.12641 -19.09118 -19.09078
 Alpha  occ. eigenvalues --  -10.31809 -10.23926 -10.23903 -10.23885 -10.22606
 Alpha  occ. eigenvalues --  -10.19690 -10.17748 -10.17569  -9.47121  -7.23553
 Alpha  occ. eigenvalues --   -7.22640  -7.22570  -1.12136  -1.03394  -1.01522
 Alpha  occ. eigenvalues --   -1.01168  -0.88321  -0.82504  -0.77453  -0.72934
 Alpha  occ. eigenvalues --   -0.69645  -0.63475  -0.58873  -0.57095  -0.52579
 Alpha  occ. eigenvalues --   -0.50547  -0.49235  -0.47961  -0.47442  -0.44690
 Alpha  occ. eigenvalues --   -0.43289  -0.42688  -0.41988  -0.40852  -0.39472
 Alpha  occ. eigenvalues --   -0.39059  -0.38150  -0.36823  -0.35376  -0.32048
 Alpha  occ. eigenvalues --   -0.32028  -0.30421  -0.29147  -0.26354  -0.25851
 Alpha  occ. eigenvalues --   -0.25370  -0.17739
 Alpha virt. eigenvalues --   -0.02631  -0.01135  -0.00280   0.00782   0.00988
 Alpha virt. eigenvalues --    0.01380   0.02348   0.03172   0.03455   0.03997
 Alpha virt. eigenvalues --    0.05399   0.05763   0.06236   0.06594   0.07398

  Beta  occ. eigenvalues -- -101.55665 -19.18047 -19.12630 -19.08394 -19.08366
  Beta  occ. eigenvalues --  -10.31817 -10.23795 -10.23786 -10.23741 -10.22604
  Beta  occ. eigenvalues --  -10.19567 -10.17662 -10.17465  -9.47117  -7.23558
  Beta  occ. eigenvalues --   -7.22618  -7.22568  -1.12123  -1.03371  -1.00294
  Beta  occ. eigenvalues --   -0.99916  -0.88010  -0.82061  -0.77230  -0.72816
  Beta  occ. eigenvalues --   -0.68657  -0.63150  -0.58489  -0.56962  -0.52395
  Beta  occ. eigenvalues --   -0.50346  -0.49183  -0.47850  -0.47092  -0.44459
  Beta  occ. eigenvalues --   -0.43013  -0.41488  -0.41087  -0.40684  -0.39153
  Beta  occ. eigenvalues --   -0.37938  -0.36793  -0.36433  -0.34242  -0.32027
  Beta  occ. eigenvalues --   -0.31978  -0.30185  -0.26104  -0.25488  -0.25175
  Beta  occ. eigenvalues --   -0.24727
  Beta virt. eigenvalues --   -0.10451  -0.01177  -0.01099  -0.00220   0.00820
  Beta virt. eigenvalues --    0.01077   0.02400   0.03036   0.03343   0.03853
  Beta virt. eigenvalues --    0.04023   0.05546   0.05865   0.06343   0.06634

 Mulliken charges and spin densities:
               1          2
     1  C   -0.616439   0.121574
     2  C    0.043288   0.070028
     3  C    0.181140   0.097098
     4  C   -0.720787   0.064661
     5  C    0.510036   0.089454
     6  C    0.441753   0.042510
     7  O   -0.434788   0.258415
     8  O   -0.438253   0.257397
     9  Cl   0.434820   0.008418
    10  C   -0.874887   0.000067
    11  O   -0.238836   0.002892
    12  O    0.007102  -0.000774
    13  C   -0.229843   0.001230
    14  H    0.203631  -0.005790
    15  H    0.200076  -0.007159
    16  H    0.172759   0.000236
    17  H    0.179143   0.000055
    18  H    0.180085  -0.000312
 Sum of Mulliken charges =  -1.00000   1.00000

 Dipole moment (field-independent basis, Debye):
    X=              9.1335    Y=             11.5847    Z=             -4.2497  Tot=             15.3520
 Quadrupole moment (field-independent basis, Debye-Ang):
   XX=           -112.7685   YY=           -133.1906   ZZ=            -89.5940
   XY=            -43.3737   XZ=              1.7794   YZ=             16.7812

  Exact polarizability: 215.654  32.774 241.605  12.718  16.088 114.734
 Approx polarizability: 235.333  51.708 266.599  16.103  13.946 133.215

                      1                      2                      3
                      A                      A                      A
 Frequencies --     35.9227                69.5473                99.6714
 Red. masses --      5.5432                 8.1768                 3.5907
 Frc consts  --      0.0042                 0.0233                 0.0210
 IR Inten    --      5.1311                 1.4688                 1.2053

                      4                      5                      6
                      A                      A                      A
 Frequencies --    117.0667               140.1836               148.5585
 Red. masses --      7.0874                 1.2236                 8.5118
 Frc consts  --      0.0572                 0.0142                 0.1107
 IR Inten    --     20.1378                 0.1727                 1.3780

                      7                      8                      9
                      A                      A                      A
 Frequencies --    201.4340               231.6968               284.7911
 Red. masses --      7.0761                 9.8841                 5.4960
 Frc consts  --      0.1692                 0.3126                 0.2626
 IR Inten    --      3.4254                 0.3661                11.1780

                     10                     11                     12
                      A                      A                      A
 Frequencies --    313.8425               319.2045               343.0244
 Red. masses --      7.4741                 5.8612                17.2667
 Frc consts  --      0.4337                 0.3519                 1.1970
 IR Inten    --     15.1246                 4.1496                 0.6111

                     13                     14                     15
                      A                      A                      A
 Frequencies --    382.6008               460.8768               518.5989
 Red. masses --      5.9846                11.0318                 9.8317
 Frc consts  --      0.5161                 1.3806                 1.5579
 IR Inten    --      6.7758                12.6465                39.4976

                     16                     17                     18
                      A                      A                      A
 Frequencies --    558.4873               562.6618               634.8863
 Red. masses --      5.2849                 5.7217                 3.0811
 Frc consts  --      0.9712                 1.0673                 0.7317
 IR Inten    --      6.6214                 0.5697                 6.8504

                     19                     20                     21
                      A                      A                      A
 Frequencies --    692.6475               737.3912               756.4208
 Red. masses --      8.3633                 7.3054                 8.6679
 Frc consts  --      2.3640                 2.3404                 2.9221
 IR Inten    --      5.4060                34.7861                 2.2019

                     22                     23                     24
                      A                      A                      A
 Frequencies --    805.9971               829.8135               899.3414
 Red. masses --      6.1442                 1.9402                10.0577
 Frc consts  --      2.3517                 0.7871                 4.7929
 IR Inten    --     63.7680                65.0595               164.6728

                     25                     26                     27
                      A                      A                      A
 Frequencies --    922.9033               962.5444               996.9134
 Red. masses --      7.3616                 1.2716                 6.9544
 Frc consts  --      3.6943                 0.6941                 4.0722
 IR Inten    --     36.1418                 0.0443                67.1822

                     28                     29                     30
                      A                      A                      A
 Frequencies --   1086.5761              1117.3134              1165.2334
 Red. masses --      3.8581                 1.9353                 1.2810
 Frc consts  --      2.6838                 1.4235                 1.0248
 IR Inten    --    204.5797                70.3449                 1.4479

                     31                     32                     33
                      A                      A                      A
 Frequencies --   1202.2606              1211.5855              1247.1592
 Red. masses --      1.6029                 2.2373                 5.3409
 Frc consts  --      1.3651                 1.9350                 4.8945
 IR Inten    --     19.4913                96.3384               460.5226

                     34                     35                     36
                      A                      A                      A
 Frequencies --   1334.6177              1410.0947              1463.9660
 Red. masses --      2.6121                 4.0193                 1.2184
 Frc consts  --      2.7413                 4.7087                 1.5385
 IR Inten    --    112.2350               273.4125                 9.3472

                     37                     38                     39
                      A                      A                      A
 Frequencies --   1475.1884              1483.7231              1496.4357
 Red. masses --      1.0455                 1.0526                10.7364
 Frc consts  --      1.3405                 1.3653                14.1653
 IR Inten    --     12.3703                18.1228                97.1297

                     40                     41                     42
                      A                      A                      A
 Frequencies --   1500.4017              1524.1857              1635.1860
 Red. masses --      6.8868                 6.9949                 7.9719
 Frc consts  --      9.1344                 9.5744                12.5588
 IR Inten    --    175.9126               966.7584                33.6186

                     43                     44                     45
                      A                      A                      A
 Frequencies --   1741.4039              3057.0242              3135.0427
 Red. masses --     11.8578                 1.0294                 1.1080
 Frc consts  --     21.1861                 5.6680                 6.4160
 IR Inten    --    588.9815                38.1239                24.1228

                     46                     47                     48
                      A                      A                      A
 Frequencies --   3159.0262              3167.9676              3176.5043
 Red. masses --      1.0864                 1.1064                 1.0957
 Frc consts  --      6.3879                 6.5425                 6.5142
 IR Inten    --     19.1139                16.0917                20.0982

 - Thermochemistry -
 -------------------
 Temperature   298.150 Kelvin.  Pressure   1.00000 Atm.
 Atom     1 has atomic number  6 and mass  12.00000

 Molecular mass:   199.98764 amu.
 Principal axes and moments of inertia in atomic units:
                           1         2         3
     Eigenvalues --  1811.251372898.409144301.01224
           X           -0.15483   0.98588  -0.06384
           Y            0.97433   0.14169  -0.17492
           Z            0.16341   0.08928   0.98251
 This molecule is an asymmetric top.
 Rotational symmetry number  1.
 Warning -- assumption of classical behavior for rotation
           may cause significant error
 Rotational temperatures (Kelvin)      0.04782     0.02988     0.02014
 Rotational constants (GHZ):           0.99641     0.62267     0.41961
 Zero-point vibrational energy     303958.7 (Joules/Mol)
                                   72.64787 (Kcal/Mol)
 Warning -- explicit consideration of  17 degrees of freedom as
           vibrations may cause significant error
 Vibrational temperatures:     51.68   100.06   143.40   168.43   201.69
          (Kelvin)            213.74   289.82   333.36   409.75   451.55
                              459.26   493.54   550.48   663.10   746.15
                              803.54   809.54   913.46   996.57  1060.94
                             1088.32  1159.65  1193.92  1293.95  1327.85
                             1384.89  1434.34  1563.34  1607.56  1676.51
                             1729.78  1743.20  1794.38  1920.22  2028.81
                             2106.32  2122.47  2134.75  2153.04  2158.74
                             2192.96  2352.67  2505.49  4398.38  4510.63
                             4545.13  4558.00  4570.28

 Zero-point correction=                           0.115772 (Hartree/Particle)
 Thermal correction to Energy=                    0.127791
 Thermal correction to Enthalpy=                  0.128735
 Thermal correction to Gibbs Free Energy=         0.075675
 Sum of electronic and zero-point Energies=          -1069.177985
 Sum of electronic and thermal Energies=             -1069.165965
 Sum of electronic and thermal Enthalpies=           -1069.165021
 Sum of electronic and thermal Free Energies=        -1069.218082

                     E (Thermal)             CV                S
                      KCal/Mol        Cal/Mol-Kelvin    Cal/Mol-Kelvin
 Total                   80.190             42.549            111.675
 Electronic               0.000              0.000              1.377
 Translational            0.889              2.981             41.784
 Rotational               0.889              2.981             31.491
 Vibrational             78.413             36.587             37.023
 Vibration     1          0.594              1.982              5.472
 Vibration     2          0.598              1.969              4.166
 Vibration     3          0.604              1.949              3.461
 Vibration     4          0.608              1.935              3.148
 Vibration     5          0.615              1.913              2.801
 Vibration     6          0.618              1.904              2.691
 Vibration     7          0.638              1.838              2.120
 Vibration     8          0.653              1.793              1.866
 Vibration     9          0.683              1.702              1.505
 Vibration    10          0.702              1.647              1.342
 Vibration    11          0.705              1.637              1.314
 Vibration    12          0.722              1.589              1.198
 Vibration    13          0.752              1.507              1.029
 Vibration    14          0.819              1.337              0.764
 Vibration    15          0.874              1.209              0.613
 Vibration    16          0.914              1.121              0.527
 Vibration    17          0.918              1.112              0.519

 Optimization completed.
    -- Stationary point found.
 Normal termination of Gaussian 16 at Sat Feb 10 12:09:16 2024.
