 Q-Chem 5.4, Q-Chem, Inc., Pleasanton, CA (2021)
 Q-Chem 5.4.0 for Intel X86 EM64T Linux

User input:
--------------------------------------------------------------
$molecule
-1 2
O                 -2.7068030000     -2.5614880000      0.5390930000
C                 -2.5649290000     -1.2213860000      0.3981030000
C                 -3.7045060000     -0.4245370000      0.4079660000
C                 -3.6121890000      0.9631030000      0.2661110000
C                 -2.3782150000      1.5851440000      0.1112350000
O                 -2.3412110000      2.9330250000     -0.0224990000
C                 -1.1890260000      0.8028050000      0.0961880000
C                  0.0955110000      1.4359460000     -0.0636500000
O                  0.1813140000      2.7247670000     -0.1956000000
C                  1.2836910000      0.6208100000     -0.0754820000
C                  2.5648200000      1.2213770000     -0.2319130000
O                  2.7064030000      2.5616000000     -0.3728580000
C                  3.7044700000      0.4246390000     -0.2418370000
C                  3.6122260000     -0.9630190000     -0.1000020000
C                  2.3783290000     -1.5852020000      0.0549100000
O                  2.3414250000     -2.9330420000      0.1886110000
C                  1.1890420000     -0.8028630000      0.0700060000
C                 -0.0954450000     -1.4359970000      0.2298650000
O                 -0.1809940000     -2.7249340000      0.3617050000
C                 -1.2837090000     -0.6209070000      0.2416930000
H                 -1.7816550000     -2.9307730000      0.5041260000
H                 -4.6678520000     -0.9070300000      0.5285580000
H                 -4.5022060000      1.5821320000      0.2741110000
H                 -1.3763190000      3.1630980000     -0.1186420000
H                  1.7812670000      2.9307980000     -0.3378040000
H                  4.6677350000      0.9072750000     -0.3624540000
H                  4.5023110000     -1.5819690000     -0.1080460000
H                  1.3765160000     -3.1633710000      0.2847980000
$end
$rem
MAX_SCF_CYCLES=200
BASIS  =  6-311++G(d,p)
GUI  =  2
JOB_TYPE  =  SP
METHOD  =  B3LYP
SOLVENT_METHOD = PCM
$end
$pcm
theory = CPCM
$end
$solvent
dielectric 37.219
opticaldielectric 1.43
$end

--------------------------------------------------------------

             Standard Nuclear Orientation (Angstroms)
    I     Atom           X                Y                Z
 ----------------------------------------------------------------
    1      O      -2.7068030000    -2.5614880000     0.5390930000
    2      C      -2.5649290000    -1.2213860000     0.3981030000
    3      C      -3.7045060000    -0.4245370000     0.4079660000
    4      C      -3.6121890000     0.9631030000     0.2661110000
    5      C      -2.3782150000     1.5851440000     0.1112350000
    6      O      -2.3412110000     2.9330250000    -0.0224990000
    7      C      -1.1890260000     0.8028050000     0.0961880000
    8      C       0.0955110000     1.4359460000    -0.0636500000
    9      O       0.1813140000     2.7247670000    -0.1956000000
   10      C       1.2836910000     0.6208100000    -0.0754820000
   11      C       2.5648200000     1.2213770000    -0.2319130000
   12      O       2.7064030000     2.5616000000    -0.3728580000
   13      C       3.7044700000     0.4246390000    -0.2418370000
   14      C       3.6122260000    -0.9630190000    -0.1000020000
   15      C       2.3783290000    -1.5852020000     0.0549100000
   16      O       2.3414250000    -2.9330420000     0.1886110000
   17      C       1.1890420000    -0.8028630000     0.0700060000
   18      C      -0.0954450000    -1.4359970000     0.2298650000
   19      O      -0.1809940000    -2.7249340000     0.3617050000
   20      C      -1.2837090000    -0.6209070000     0.2416930000
   21      H      -1.7816550000    -2.9307730000     0.5041260000
   22      H      -4.6678520000    -0.9070300000     0.5285580000
   23      H      -4.5022060000     1.5821320000     0.2741110000
   24      H      -1.3763190000     3.1630980000    -0.1186420000
   25      H       1.7812670000     2.9307980000    -0.3378040000
   26      H       4.6677350000     0.9072750000    -0.3624540000
   27      H       4.5023110000    -1.5819690000    -0.1080460000
   28      H       1.3765160000    -3.1633710000     0.2847980000
 ----------------------------------------------------------------

    8    -990.1410194587      6.67e-06  Convergence criterion met
 Total energy in the final basis set =     -990.1410194587

                    Orbital Energies (a.u.)
 --------------------------------------------------------------

 Alpha MOs
 -- Occupied --
-19.1381 -19.1380 -19.1380 -19.1380 -19.1063 -19.1062 -10.2475 -10.2475
-10.2382 -10.2382 -10.2382 -10.2381 -10.1872 -10.1872 -10.1868 -10.1868
-10.1754 -10.1754 -10.1748 -10.1748  -1.0662  -1.0645  -1.0565  -1.0553
 -1.0140  -1.0126  -0.8701  -0.8495  -0.7990  -0.7557  -0.7535  -0.7364
 -0.6879  -0.6576  -0.6464  -0.6098  -0.5971  -0.5602  -0.5352  -0.5333
 -0.5262  -0.5219  -0.5181  -0.4773  -0.4614  -0.4536  -0.4427  -0.4385
 -0.4370  -0.4234  -0.4178  -0.4160  -0.4140  -0.4119  -0.4105  -0.3964
 -0.3840  -0.3726  -0.3716  -0.3710  -0.3602  -0.3533  -0.3199  -0.3104
 -0.2799  -0.2790  -0.2622  -0.2593  -0.2338  -0.2123  -0.1519

 Beta MOs
 -- Occupied --
-19.1375 -19.1374 -19.1374 -19.1374 -19.1026 -19.1026 -10.2452 -10.2452
-10.2375 -10.2375 -10.2375 -10.2375 -10.1873 -10.1872 -10.1869 -10.1868
-10.1744 -10.1744 -10.1738 -10.1738  -1.0640  -1.0623  -1.0553  -1.0541
 -1.0082  -1.0067  -0.8677  -0.8477  -0.7950  -0.7541  -0.7497  -0.7338
 -0.6818  -0.6556  -0.6442  -0.6087  -0.5957  -0.5578  -0.5340  -0.5318
 -0.5249  -0.5216  -0.5159  -0.4756  -0.4596  -0.4457  -0.4411  -0.4351
 -0.4349  -0.4191  -0.4151  -0.4131  -0.4107  -0.4094  -0.4082  -0.3921
 -0.3724  -0.3722  -0.3694  -0.3591  -0.3577  -0.3521  -0.3114  -0.3057
 -0.2762  -0.2663  -0.2596  -0.2556  -0.2208  -0.2036

          Ground-State Mulliken Net Atomic Charges

     Atom                 Charge (a.u.)    Spin (a.u.)
  --------------------------------------------------------
      1 O                    -0.412159       0.018419
      2 C                    -0.293419       0.056039
      3 C                    -0.163922       0.064894
      4 C                    -0.165990       0.064894
      5 C                    -0.293418       0.055995
      6 O                    -0.411948       0.018416
      7 C                     0.466529      -0.013318
      8 C                    -0.340970       0.135673
      9 O                    -0.569451       0.128808
     10 C                     0.463288      -0.013345
     11 C                    -0.292610       0.056026
     12 O                    -0.412448       0.018422
     13 C                    -0.163915       0.064914
     14 C                    -0.165883       0.064873
     15 C                    -0.293724       0.056008
     16 O                    -0.411922       0.018428
     17 C                     0.466142      -0.013339
     18 C                    -0.340889       0.135704
     19 O                    -0.569452       0.128831
     20 C                     0.463437      -0.013377
     21 H                     0.394188      -0.002337
     22 H                     0.216485      -0.005903
     23 H                     0.216559      -0.005908
     24 H                     0.394068      -0.002334
     25 H                     0.394356      -0.002336
     26 H                     0.216464      -0.005906
     27 H                     0.216564      -0.005906
     28 H                     0.394040      -0.002335
  --------------------------------------------------------
  Sum of atomic charges =    -1.000000

                    Cartesian Multipole Moments
 -----------------------------------------------------------------
    Charge (ESU x 10^10)
                -4.8032
    Dipole Moment (Debye)
         X      -0.0020      Y      -0.0005      Z      -0.3986
       Tot       0.3986
    Quadrupole Moments (Debye-Ang)
        XX    -136.0362     XY      -1.4279     YY    -158.9894
        XZ       1.3463     YZ       3.8558     ZZ    -120.9173

 Total job time:  121.86s(wall), 472.25s(cpu)
        *  Thank you very much for using Q-Chem.  Have a nice day.  *
