 Gaussian 16, Revision A.03,
 Gaussian 16:  ES64L-G16RevA.03 25-Dec-2016

 ----------------------------------------------------------------
 #P UB3LYP/6-311++G(d,p) SCRF=(PCM,Solvent=n,n-DiMethylFormamide)
 ----------------------------------------------------------------

 ------------------
 Radical PCM in DMF
 ------------------
 Symbolic Z-matrix:
 Charge = -1 Multiplicity = 2

                         Standard orientation:
 ---------------------------------------------------------------------
 Center     Atomic      Atomic             Coordinates (Angstroms)
 Number     Number       Type             X           Y           Z
 ---------------------------------------------------------------------
      1          8           0        2.536931    2.767661   -0.000028
      2          6           0        2.484200    1.413741   -0.000001
      3          6           0        3.677036    0.699008   -0.000003
      4          6           0        3.677033   -0.698916   -0.000018
      5          6           0        2.484195   -1.413584    0.000006
      6          8           0        2.536873   -2.767564    0.000015
      7          6           0        1.242704   -0.717057    0.000033
      8          6           0        0.000030   -1.446586    0.000044
      9          8           0       -0.000046   -2.744982   -0.000160
     10          6           0       -1.242638   -0.717110    0.000024
     11          6           0       -2.484071   -1.413734    0.000018
     12          8           0       -2.536501   -2.767750    0.000080
     13          6           0       -3.676976   -0.699122   -0.000024
     14          6           0       -3.677048    0.698812   -0.000025
     15          6           0       -2.484295    1.413620   -0.000021
     16          8           0       -2.537071    2.767550   -0.000052
     17          6           0       -1.242703    0.717104   -0.000006
     18          6           0       -0.000077    1.446625    0.000007
     19          8           0       -0.000269    2.745109    0.000111
     20          6           0        1.242671    0.717200    0.000013
     21          1           0        1.587019    3.069588   -0.000022
     22          1           0        4.608475    1.253805   -0.000036
     23          1           0        4.608424   -1.253806   -0.000045
     24          1           0        1.587095   -3.069419    0.000099
     25          1           0       -1.586601   -3.069583    0.000153
     26          1           0       -4.608326   -1.254058   -0.000008
     27          1           0       -4.608504    1.253615   -0.000029
     28          1           0       -1.587292    3.069664   -0.000118
 ---------------------------------------------------------------------

 SCF Done:  E(UB3LYP) =  -990.137415337     A.U. after   16 cycles

 The electronic state is 2-A.
 Alpha  occ. eigenvalues --  -19.13748 -19.13747 -19.13746 -19.13743 -19.10637
 Alpha  occ. eigenvalues --  -19.10635 -10.24747 -10.24746 -10.23822 -10.23822
 Alpha  occ. eigenvalues --  -10.23821 -10.23820 -10.18738 -10.18736 -10.18697
 Alpha  occ. eigenvalues --  -10.18695 -10.17632 -10.17632 -10.17580 -10.17579
 Alpha  occ. eigenvalues --   -1.06584  -1.06408  -1.05598  -1.05476  -1.01382
 Alpha  occ. eigenvalues --   -1.01246  -0.87024  -0.84978  -0.79945  -0.75610
 Alpha  occ. eigenvalues --   -0.75356  -0.73648  -0.68816  -0.65777  -0.64693
 Alpha  occ. eigenvalues --   -0.61002  -0.59700  -0.56040  -0.53578  -0.53358
 Alpha  occ. eigenvalues --   -0.52641  -0.52175  -0.51798  -0.47794  -0.46189
 Alpha  occ. eigenvalues --   -0.45343  -0.44302  -0.43832  -0.43687  -0.42310
 Alpha  occ. eigenvalues --   -0.41746  -0.41517  -0.41505  -0.41223  -0.41133
 Alpha  occ. eigenvalues --   -0.39571  -0.38378  -0.37200  -0.37192  -0.37122
 Alpha  occ. eigenvalues --   -0.36039  -0.35268  -0.31956  -0.30999  -0.28013
 Alpha  occ. eigenvalues --   -0.27891  -0.26210  -0.25957  -0.23360  -0.21203
 Alpha  occ. eigenvalues --   -0.15197
 Alpha virt. eigenvalues --   -0.05094  -0.03314  -0.00075   0.00739   0.00959
 Alpha virt. eigenvalues --    0.01440   0.01749   0.02540   0.04139   0.04142
 Alpha virt. eigenvalues --    0.04306   0.04406   0.04425   0.06148   0.06378

  Beta  occ. eigenvalues --  -19.13690 -19.13688 -19.13688 -19.13684 -19.10258
  Beta  occ. eigenvalues --  -19.10256 -10.24521 -10.24520 -10.23761 -10.23761
  Beta  occ. eigenvalues --  -10.23760 -10.23759 -10.18745 -10.18743 -10.18704
  Beta  occ. eigenvalues --  -10.18702 -10.17532 -10.17532 -10.17479 -10.17479
  Beta  occ. eigenvalues --   -1.06360  -1.06188  -1.05479  -1.05359  -1.00784
  Beta  occ. eigenvalues --   -1.00636  -0.86786  -0.84802  -0.79549  -0.75463
  Beta  occ. eigenvalues --   -0.74974  -0.73398  -0.68201  -0.65587  -0.64468
  Beta  occ. eigenvalues --   -0.60893  -0.59563  -0.55796  -0.53453  -0.53212
  Beta  occ. eigenvalues --   -0.52507  -0.52142  -0.51583  -0.47628  -0.46013
  Beta  occ. eigenvalues --   -0.44556  -0.44137  -0.43489  -0.43456  -0.41884
  Beta  occ. eigenvalues --   -0.41424  -0.41417  -0.41098  -0.41027  -0.40777
  Beta  occ. eigenvalues --   -0.39153  -0.37199  -0.37155  -0.37036  -0.35928
  Beta  occ. eigenvalues --   -0.35710  -0.35149  -0.31095  -0.30534  -0.27595
  Beta  occ. eigenvalues --   -0.26627  -0.25936  -0.25606  -0.22048  -0.20344
  Beta virt. eigenvalues --   -0.10221  -0.03585  -0.02360  -0.00049   0.00747
  Beta virt. eigenvalues --    0.00988   0.01769   0.01950   0.02552   0.04157
  Beta virt. eigenvalues --    0.04174   0.04422   0.04487   0.05352   0.06523

 Mulliken charges and spin densities:
               1          2
     1  O   -0.400116   0.018346
     2  C   -0.305894   0.055453
     3  C   -0.140554   0.065820
     4  C   -0.140617   0.065816
     5  C   -0.305562   0.055447
     6  O   -0.400198   0.018342
     7  C    0.464663  -0.014196
     8  C   -0.348437   0.134575
     9  O   -0.558493   0.131446
    10  C    0.464354  -0.014189
    11  C   -0.305343   0.055428
    12  O   -0.400399   0.018348
    13  C   -0.140635   0.065845
    14  C   -0.140573   0.065796
    15  C   -0.305624   0.055468
    16  O   -0.400168   0.018355
    17  C    0.464375  -0.014222
    18  C   -0.348478   0.134605
    19  O   -0.558478   0.131472
    20  C    0.464623  -0.014221
    21  H    0.385196  -0.002416
    22  H    0.200130  -0.006017
    23  H    0.200124  -0.006018
    24  H    0.385260  -0.002415
    25  H    0.385378  -0.002416
    26  H    0.200120  -0.006020
    27  H    0.200125  -0.006016
    28  H    0.385221  -0.002416
 Sum of Mulliken charges =  -1.00000   1.00000

 Dipole moment (field-independent basis, Debye):
    X=              0.0019    Y=              0.0006    Z=              0.0003  Tot=              0.0020
 Quadrupole moment (field-independent basis, Debye-Ang):
   XX=           -137.3557   YY=           -159.0847   ZZ=           -120.3816
   XY=             -0.0023   XZ=              0.0000   YZ=             -0.0032

 Normal termination of Gaussian 16 at Tue Jan 16 05:53:44 2024.
