 Gaussian 16, Revision A.03,
 Gaussian 16:  ES64L-G16RevA.03 25-Dec-2016

 ----------------------------------------------
 #P UB3LYP/6-311++G(d,p) nosym opt freq SCF=YQC
 ----------------------------------------------

 -------
 Reduced
 -------
 Symbolic Z-matrix:
 Charge = -2 Multiplicity = 1

 SCF Done:  E(UB3LYP) =  -692.472441437     a.u. after    8 cycles
 SCF Done:  E(UB3LYP) =  -692.483352361     A.U. after   33 cycles
 SCF Done:  E(UB3LYP) =  -692.483352361     a.u. after    1 cycles
 SCF Done:  E(UB3LYP) =  -692.517874983     a.u. after   29 cycles
 SCF Done:  E(UB3LYP) =  -692.518436193     A.U. after   33 cycles
 SCF Done:  E(UB3LYP) =  -692.518436193     a.u. after    1 cycles
 SCF Done:  E(UB3LYP) =  -692.526826593     a.u. after   39 cycles
 SCF Done:  E(UB3LYP) =  -692.528102701     A.U. after   30 cycles
 SCF Done:  E(UB3LYP) =  -692.530241913     a.u. after   36 cycles
 SCF Done:  E(UB3LYP) =  -692.530536681     A.U. after   30 cycles
 SCF Done:  E(UB3LYP) =  -692.530778229     a.u. after   13 cycles
 SCF Done:  E(UB3LYP) =  -692.530887362     A.U. after   24 cycles
 SCF Done:  E(UB3LYP) =  -692.530865485     a.u. after   10 cycles
 SCF Done:  E(UB3LYP) =  -692.530959750     A.U. after   27 cycles
 SCF Done:  E(UB3LYP) =  -692.530950468     a.u. after    1 cycles
 SCF Done:  E(UB3LYP) =  -692.530960660     A.U. after   24 cycles
 SCF Done:  E(UB3LYP) =  -692.530960093     a.u. after    1 cycles
 SCF Done:  E(UB3LYP) =  -692.530960708     A.U. after   24 cycles
 Optimization completed.
    -- Stationary point found.
 Normal termination of Gaussian 16 at Wed Dec 27 03:43:25 2023.

 ----------------------------------------------------------------------
 #P Geom=AllCheck Guess=TCheck SCRF=Check GenChk UB3LYP/6-311++G(d,p) F
 req
 ----------------------------------------------------------------------

 Structure from the checkpoint file:  "239-an.chk"
 -------
 Reduced
 -------
 Charge = -2 Multiplicity = 1

                          Input orientation:
 ---------------------------------------------------------------------
 Center     Atomic      Atomic             Coordinates (Angstroms)
 Number     Number       Type             X           Y           Z
 ---------------------------------------------------------------------
      1          6           0       -2.888760    1.309013   -0.739052
      2          6           0       -2.161347    0.083784   -0.150954
      3          6           0       -2.703743   -0.144971    1.281387
      4          6           0       -2.526815   -1.138286   -1.032037
      5          6           0       -0.624573    0.243801   -0.104668
      6          6           0       -0.009122    1.430499   -0.563664
      7          6           0        1.384735    1.702085   -0.566356
      8          8           0        1.898624    2.804366   -1.002774
      9          6           0        2.197138    0.621290   -0.024011
     10          6           0        3.603353    0.752926    0.040014
     11          6           0        4.413548   -0.246941    0.547819
     12          6           0        3.823802   -1.447574    1.023504
     13          6           0        2.450596   -1.604052    0.970863
     14          6           0        1.595015   -0.599299    0.456484
     15          6           0        0.157291   -0.835363    0.427187
     16          8           0       -0.340685   -1.951313    0.866352
     17          1           0       -2.575310    1.509868   -1.768956
     18          1           0       -3.972075    1.129722   -0.746124
     19          1           0       -2.700968    2.213347   -0.151835
     20          1           0       -2.189692   -1.000920    1.724366
     21          1           0       -3.787455   -0.331045    1.267984
     22          1           0       -2.517211    0.741668    1.899443
     23          1           0       -3.617804   -1.295804   -1.052626
     24          1           0       -2.030776   -2.027102   -0.638537
     25          1           0       -2.190374   -0.970793   -2.061554
     26          1           0       -0.619416    2.233197   -0.966208
     27          1           0        4.017608    1.685175   -0.333480
     28          1           0        5.494244   -0.115384    0.585217
     29          1           0        4.450914   -2.241179    1.428164
     30          1           0        1.969257   -2.510717    1.324960
 ---------------------------------------------------------------------

 SCF Done:  E(UB3LYP) =  -692.530960708     a.u. after    1 cycles
 SCF Done:  E(UB3LYP) =  -692.530960708     A.U. after    4 cycles

 Alpha  occ. eigenvalues --  -18.77086 -18.76805  -9.94709  -9.93414  -9.92961
 Alpha  occ. eigenvalues --   -9.92716  -9.92530  -9.92481  -9.91989  -9.91905
 Alpha  occ. eigenvalues --   -9.91521  -9.91438  -9.89947  -9.89824  -9.89551
 Alpha  occ. eigenvalues --   -9.87886  -0.68619  -0.67971  -0.59125  -0.58070
 Alpha  occ. eigenvalues --   -0.51923  -0.48914  -0.46536  -0.45606  -0.44747
 Alpha  occ. eigenvalues --   -0.40028  -0.36054  -0.34730  -0.30553  -0.28475
 Alpha  occ. eigenvalues --   -0.24296  -0.23898  -0.21081  -0.20555  -0.20157
 Alpha  occ. eigenvalues --   -0.19112  -0.16879  -0.16714  -0.16237  -0.15816
 Alpha  occ. eigenvalues --   -0.13487  -0.13187  -0.12619  -0.12097  -0.10644
 Alpha  occ. eigenvalues --   -0.09847  -0.09825  -0.08702  -0.07466  -0.07191
 Alpha  occ. eigenvalues --   -0.06491  -0.06053   0.00659   0.02042   0.02903
 Alpha  occ. eigenvalues --    0.05161   0.05672   0.13598
 Alpha virt. eigenvalues --    0.15138   0.16277   0.17778   0.18041   0.18357
 Alpha virt. eigenvalues --    0.19126   0.20777   0.21226   0.21331   0.21523
 Alpha virt. eigenvalues --    0.22461   0.22826   0.23461   0.24168   0.24770

  Beta  occ. eigenvalues --  -18.77086 -18.76805  -9.94709  -9.93414  -9.92961
  Beta  occ. eigenvalues --   -9.92716  -9.92530  -9.92481  -9.91989  -9.91905
  Beta  occ. eigenvalues --   -9.91521  -9.91438  -9.89947  -9.89824  -9.89551
  Beta  occ. eigenvalues --   -9.87886  -0.68619  -0.67971  -0.59125  -0.58070
  Beta  occ. eigenvalues --   -0.51923  -0.48914  -0.46536  -0.45606  -0.44747
  Beta  occ. eigenvalues --   -0.40028  -0.36054  -0.34730  -0.30553  -0.28475
  Beta  occ. eigenvalues --   -0.24296  -0.23898  -0.21081  -0.20555  -0.20157
  Beta  occ. eigenvalues --   -0.19112  -0.16879  -0.16714  -0.16237  -0.15816
  Beta  occ. eigenvalues --   -0.13487  -0.13187  -0.12619  -0.12097  -0.10644
  Beta  occ. eigenvalues --   -0.09847  -0.09825  -0.08702  -0.07466  -0.07191
  Beta  occ. eigenvalues --   -0.06491  -0.06053   0.00659   0.02042   0.02903
  Beta  occ. eigenvalues --    0.05161   0.05672   0.13598
  Beta virt. eigenvalues --    0.15138   0.16277   0.17778   0.18041   0.18357
  Beta virt. eigenvalues --    0.19126   0.20777   0.21226   0.21331   0.21523
  Beta virt. eigenvalues --    0.22461   0.22826   0.23461   0.24168   0.24770

 Mulliken charges and spin densities:
               1          2
     1  C   -0.525234  -0.000000
     2  C    0.540851   0.000000
     3  C   -0.518515  -0.000000
     4  C   -0.272886  -0.000000
     5  C    0.982260  -0.000000
     6  C    0.068691  -0.000000
     7  C   -0.968840  -0.000000
     8  O   -0.540033  -0.000000
     9  C    0.900469  -0.000000
    10  C   -0.218923   0.000000
    11  C   -0.384467  -0.000000
    12  C   -0.397648  -0.000000
    13  C    0.063823   0.000000
    14  C    0.512303  -0.000000
    15  C   -1.351963   0.000000
    16  O   -0.491057  -0.000000
    17  H    0.084719   0.000000
    18  H   -0.431258   0.000000
    19  H    0.085469   0.000000
    20  H    0.178432  -0.000000
    21  H    0.022530   0.000000
    22  H    0.087324   0.000000
    23  H   -0.285872   0.000000
    24  H    0.244626  -0.000000
    25  H    0.101900  -0.000000
    26  H    0.119505  -0.000000
    27  H    0.119519   0.000000
    28  H    0.072224   0.000000
    29  H    0.071350   0.000000
    30  H    0.130703  -0.000000
 Sum of Mulliken charges =  -2.00000   0.00000

 Dipole moment (field-independent basis, Debye):
    X=             -4.0698    Y=             -2.6362    Z=              0.7765  Tot=              4.9108
 Quadrupole moment (field-independent basis, Debye-Ang):
   XX=           -183.2476   YY=           -151.6121   ZZ=           -121.3055
   XY=            -13.2708   XZ=             -3.7379   YZ=             14.4852

  Exact polarizability:2043.996 -56.993 495.875 253.916 -23.701 328.396
 Approx polarizability:3685.022  61.135 514.700 525.360 -61.747 409.861

                      1                      2                      3
                      A                      A                      A
 Frequencies --     53.9614                71.7169               137.8859
 Red. masses --      4.4003                 3.4658                 4.3269
 Frc consts  --      0.0075                 0.0105                 0.0485
 IR Inten    --      3.3938                 0.0641                 0.2197

                      4                      5                      6
                      A                      A                      A
 Frequencies --    172.2998               179.8596               208.4746
 Red. masses --      5.8133                 3.6905                 4.5271
 Frc consts  --      0.1017                 0.0703                 0.1159
 IR Inten    --      3.7338                30.5902                 0.1159

                      7                      8                      9
                      A                      A                      A
 Frequencies --    251.0857               267.6227               274.7975
 Red. masses --      1.0479                 3.6084                 2.8782
 Frc consts  --      0.0389                 0.1523                 0.1281
 IR Inten    --      6.4183                17.4572                20.2452

                     10                     11                     12
                      A                      A                      A
 Frequencies --    291.3674               303.3914               318.6258
 Red. masses --      1.3670                 3.3549                 2.6915
 Frc consts  --      0.0684                 0.1819                 0.1610
 IR Inten    --      3.2866                 3.4842               104.0975

                     13                     14                     15
                      A                      A                      A
 Frequencies --    329.3377               367.5787               381.5800
 Red. masses --      1.0534                11.0010                 2.7079
 Frc consts  --      0.0673                 0.8758                 0.2323
 IR Inten    --     11.7363                 9.3542                 4.4345

                     16                     17                     18
                      A                      A                      A
 Frequencies --    416.1413               428.3567               446.0453
 Red. masses --      2.6210                 3.8039                 3.5388
 Frc consts  --      0.2674                 0.4112                 0.4148
 IR Inten    --      2.4201                 5.1375                 2.7267

                     19                     20                     21
                      A                      A                      A
 Frequencies --    453.6067               480.3845               535.1063
 Red. masses --      6.7739                 5.2654                 3.9478
 Frc consts  --      0.8212                 0.7159                 0.6660
 IR Inten    --   1363.3884                32.3580                57.1218

                     22                     23                     24
                      A                      A                      A
 Frequencies --    546.4602               620.2085               638.8452
 Red. masses --      3.8481                 5.3626                 2.7112
 Frc consts  --      0.6770                 1.2154                 0.6519
 IR Inten    --     11.7394                11.3646                12.9440

                     25                     26                     27
                      A                      A                      A
 Frequencies --    672.3796               696.7692               722.3107
 Red. masses --      5.8437                 2.2351                 6.0176
 Frc consts  --      1.5566                 0.6393                 1.8498
 IR Inten    --      4.0702                47.8290                13.3583

                     28                     29                     30
                      A                      A                      A
 Frequencies --    744.7039               770.4958               790.4671
 Red. masses --      1.9975                 2.1523                 3.8300
 Frc consts  --      0.6527                 0.7528                 1.4100
 IR Inten    --     32.4166                 1.5358                18.4307

                     31                     32                     33
                      A                      A                      A
 Frequencies --    818.6213               834.8910               846.6787
 Red. masses --      2.2092                 5.0109                 1.8486
 Frc consts  --      0.8723                 2.0579                 0.7808
 IR Inten    --     11.3604                 9.9361                24.3429

                     34                     35                     36
                      A                      A                      A
 Frequencies --    899.5436               914.8549               928.2555
 Red. masses --      3.1421                 1.8156                 1.7835
 Frc consts  --      1.4980                 0.8953                 0.9055
 IR Inten    --     43.2086                31.5039               218.1034

                     37                     38                     39
                      A                      A                      A
 Frequencies --    949.4876               953.6192               959.5060
 Red. masses --      1.2592                 1.2063                 1.3239
 Frc consts  --      0.6689                 0.6463                 0.7181
 IR Inten    --      1.4147                 4.9022                 2.2974

                     40                     41                     42
                      A                      A                      A
 Frequencies --   1012.7428              1030.9334              1047.1702
 Red. masses --      2.2223                 1.4600                 1.3855
 Frc consts  --      1.3429                 0.9142                 0.8952
 IR Inten    --    584.2365               236.1633                11.6258

                     43                     44                     45
                      A                      A                      A
 Frequencies --   1086.6314              1098.9523              1124.0778
 Red. masses --      2.3782                 3.0195                 1.5199
 Frc consts  --      1.6545                 2.1485                 1.1315
 IR Inten    --     32.0773               240.9714                 5.3051

                     46                     47                     48
                      A                      A                      A
 Frequencies --   1154.2199              1206.4287              1208.4562
 Red. masses --      1.8437                 2.4525                 2.5706
 Frc consts  --      1.4472                 2.1031                 2.2118
 IR Inten    --     98.0999               788.2423               194.8657

                     49                     50                     51
                      A                      A                      A
 Frequencies --   1209.2618              1222.3472              1249.3459
 Red. masses --      2.6030                 1.8695                 2.4302
 Frc consts  --      2.2427                 1.6457                 2.2349
 IR Inten    --     28.4469               168.1361               213.2867

                     52                     53                     54
                      A                      A                      A
 Frequencies --   1283.9635              1316.4227              1352.6800
 Red. masses --      2.3639                 5.3177                 1.2185
 Frc consts  --      2.2961                 5.4296                 1.3136
 IR Inten    --     39.3954              2005.8803                 0.7750

                     55                     56                     57
                      A                      A                      A
 Frequencies --   1357.6803              1376.3165              1381.5333
 Red. masses --      1.6317                 2.9869                 1.6788
 Frc consts  --      1.7720                 3.3335                 1.8879
 IR Inten    --     83.3498               649.9185               530.6594

                     58                     59                     60
                      A                      A                      A
 Frequencies --   1407.5242              1414.8308              1448.8282
 Red. masses --      3.6528                 2.6607                 2.7923
 Frc consts  --      4.2638                 3.1381                 3.4534
 IR Inten    --   1172.3376               434.9934               170.7030

                     61                     62                     63
                      A                      A                      A
 Frequencies --   1458.9396              1474.5587              1485.5835
 Red. masses --      1.0476                 1.8388                 1.0532
 Frc consts  --      1.3137                 2.3556                 1.3695
 IR Inten    --     24.4114               501.6183                63.7194

                     64                     65                     66
                      A                      A                      A
 Frequencies --   1490.4907              1491.7828              1509.5626
 Red. masses --      1.4859                 1.0803                 1.0586
 Frc consts  --      1.9449                 1.4165                 1.4212
 IR Inten    --    392.8207               244.5021                 0.8651

                     67                     68                     69
                      A                      A                      A
 Frequencies --   1514.4547              1526.8479              1564.7999
 Red. masses --      3.9432                 1.0651                 5.9548
 Frc consts  --      5.3286                 1.4629                 8.5908
 IR Inten    --    309.2360                 6.5759              3865.1983

                     70                     71                     72
                      A                      A                      A
 Frequencies --   1584.5995              2939.4233              2963.2193
 Red. masses --      5.4213                 1.0528                 1.0434
 Frc consts  --      8.0203                 5.3595                 5.3980
 IR Inten    --    208.5883               156.2290               540.6857

                     73                     74                     75
                      A                      A                      A
 Frequencies --   2986.4642              3025.0719              3029.5441
 Red. masses --      1.0413                 1.0917                 1.0841
 Frc consts  --      5.4719                 5.8863                 5.8625
 IR Inten    --    193.9542               219.8685                 0.5404

                     76                     77                     78
                      A                      A                      A
 Frequencies --   3042.4833              3066.7996              3083.3645
 Red. masses --      1.0917                 1.1008                 1.0823
 Frc consts  --      5.9541                 6.0999                 6.0625
 IR Inten    --    296.2358                28.1465                37.9798

                     79                     80                     81
                      A                      A                      A
 Frequencies --   3085.2039              3098.2436              3107.8984
 Red. masses --      1.0992                 1.0981                 1.0907
 Frc consts  --      6.1647                 6.2103                 6.2069
 IR Inten    --      6.5838                41.9022               368.0728

                     82                     83                     84
                      A                      A                      A
 Frequencies --   3145.7315              3150.6132              3156.2991
 Red. masses --      1.0851                 1.0904                 1.0906
 Frc consts  --      6.3267                 6.3769                 6.4015
 IR Inten    --     88.1519               146.6623               168.0343

 - Thermochemistry -
 -------------------
 Temperature   298.150 Kelvin.  Pressure   1.00000 Atm.
 Atom     1 has atomic number  6 and mass  12.00000

 Molecular mass:   214.09938 amu.
 Principal axes and moments of inertia in atomic units:
                           1         2         3
     Eigenvalues --  1856.068284572.978176030.57477
           X            0.99588   0.04731  -0.07737
           Y           -0.01265   0.91727   0.39807
           Z            0.08980  -0.39545   0.91409
 This molecule is an asymmetric top.
 Rotational symmetry number  1.
 Warning -- assumption of classical behavior for rotation
           may cause significant error
 Rotational temperatures (Kelvin)      0.04667     0.01894     0.01436
 Rotational constants (GHZ):           0.97235     0.39465     0.29927
 Zero-point vibrational energy     625943.9 (Joules/Mol)
                                  149.60419 (Kcal/Mol)
 Warning -- explicit consideration of  23 degrees of freedom as
           vibrations may cause significant error
 Vibrational temperatures:     77.64   103.18   198.39   247.90   258.78
          (Kelvin)            299.95   361.26   385.05   395.37   419.21
                              436.51   458.43   473.84   528.86   549.01
                              598.73   616.31   641.76   652.64   691.17
                              769.90   786.23   892.34   919.16   967.40
                             1002.50  1039.24  1071.46  1108.57  1137.31
                             1177.81  1201.22  1218.18  1294.24  1316.27
                             1335.55  1366.10  1372.05  1380.52  1457.11
                             1483.28  1506.64  1563.42  1581.15  1617.30
                             1660.67  1735.78  1738.70  1739.86  1758.69
                             1797.53  1847.34  1894.04  1946.20  1953.40
                             1980.21  1987.72  2025.11  2035.63  2084.54
                             2099.09  2121.56  2137.42  2144.48  2146.34
                             2171.92  2178.96  2196.79  2251.40  2279.89
                             4229.17  4263.41  4296.86  4352.40  4358.84
                             4377.45  4412.44  4436.27  4438.92  4457.68
                             4471.57  4526.01  4533.03  4541.21

 Zero-point correction=                           0.238409 (Hartree/Particle)
 Thermal correction to Energy=                    0.252487
 Thermal correction to Enthalpy=                  0.253432
 Thermal correction to Gibbs Free Energy=         0.198765
 Sum of electronic and zero-point Energies=           -692.292551
 Sum of electronic and thermal Energies=              -692.278473
 Sum of electronic and thermal Enthalpies=            -692.277529
 Sum of electronic and thermal Free Energies=         -692.332195

                     E (Thermal)             CV                S
                      KCal/Mol        Cal/Mol-Kelvin    Cal/Mol-Kelvin
 Total                  158.438             57.394            115.055
 Electronic               0.000              0.000              0.000
 Translational            0.889              2.981             41.987
 Rotational               0.889              2.981             32.304
 Vibrational            156.661             51.433             40.764
 Vibration     1          0.596              1.976              4.667
 Vibration     2          0.598              1.967              4.106
 Vibration     3          0.614              1.915              2.833
 Vibration     4          0.626              1.877              2.410
 Vibration     5          0.629              1.867              2.330
 Vibration     6          0.642              1.828              2.057
 Vibration     7          0.663              1.761              1.723
 Vibration     8          0.673              1.733              1.612
 Vibration     9          0.677              1.720              1.566
 Vibration    10          0.687              1.690              1.466
 Vibration    11          0.695              1.667              1.398
 Vibration    12          0.705              1.638              1.317
 Vibration    13          0.712              1.617              1.263
 Vibration    14          0.740              1.539              1.090
 Vibration    15          0.751              1.509              1.033
 Vibration    16          0.779              1.435              0.905
 Vibration    17          0.790              1.409              0.864
 Vibration    18          0.805              1.370              0.808
 Vibration    19          0.812              1.353              0.785
 Vibration    20          0.837              1.294              0.709
 Vibration    21          0.890              1.172              0.576
 Vibration    22          0.902              1.147              0.552
 Vibration    23          0.980              0.989              0.416

                           ! Non-Optimized Parameters !
 Normal termination of Gaussian 16 at Wed Dec 27 04:55:11 2023.
