 Q-Chem 5.4, Q-Chem, Inc., Pleasanton, CA (2021)
 Q-Chem 5.4.0 for Intel X86 EM64T Linux

User input:
--------------------------------------------------------------
$molecule
0 1
C                 -2.0260430000      0.3635840000      1.5090390000
C                 -2.9526580000      1.2245100000      0.6965350000
C                 -2.5700790000      1.5348240000     -0.5572100000
C                 -1.2845530000      1.0721450000     -1.1755790000
C                 -0.3580980000      0.2109700000     -0.3631980000
C                 -0.7406240000     -0.0992770000      0.8905940000
O                 -0.9941820000      1.3858630000     -2.3116360000
O                 -2.3161710000      0.0501620000      2.6452380000
Br                 0.3129650000     -1.1814940000      2.0610130000
Br                -3.6237640000      2.6169620000     -1.7275960000
C                  0.9367640000     -0.2450260000     -1.0117380000
C                  1.8688050000      0.9363430000     -1.3506710000
C                  0.6909370000     -1.1572050000     -2.2310310000
C                 -4.2477090000      1.6803440000      1.3448370000
C                 -4.0022870000      2.5933160000      2.5636360000
C                 -5.1794630000      0.4988870000      1.6842710000
H                  1.4477910000     -0.8481270000     -0.2611590000
H                  2.0521210000      1.5601510000     -0.4715200000
H                  1.4560890000      1.5609870000     -2.1426060000
H                  2.8333060000      0.5463570000     -1.6872800000
H                  0.0475450000     -2.0017830000     -1.9695350000
H                  1.6470400000     -1.5624250000     -2.5735220000
H                  0.2338820000     -0.6119740000     -3.0565390000
H                 -4.7588750000      2.2828910000      0.5939010000
H                 -4.9585520000      2.9984130000      2.9058200000
H                 -3.3591570000      3.4379580000      2.3017030000
H                 -3.5451250000      2.0487080000      3.3894890000
H                 -6.1441580000      0.8887910000      2.0204200000
H                 -4.7667600000     -0.1251630000      2.4766710000
H                 -5.3624050000     -0.1255020000      0.8054520000
$end

$rem
BASIS  =  6-311++G(d,p)
GUI  =  2
JOB_TYPE  =  SP
METHOD  =  B3LYP
SCF_CONVERGENCE  = 8
SOLVENT_METHOD = sm12
$end

$smx
solvent dimethylformamide
charges CM5
$end

--------------------------------------------------------------

             Standard Nuclear Orientation (Angstroms)
    I     Atom           X                Y                Z
 ----------------------------------------------------------------
    1      C      -2.0260430000     0.3635840000     1.5090390000
    2      C      -2.9526580000     1.2245100000     0.6965350000
    3      C      -2.5700790000     1.5348240000    -0.5572100000
    4      C      -1.2845530000     1.0721450000    -1.1755790000
    5      C      -0.3580980000     0.2109700000    -0.3631980000
    6      C      -0.7406240000    -0.0992770000     0.8905940000
    7      O      -0.9941820000     1.3858630000    -2.3116360000
    8      O      -2.3161710000     0.0501620000     2.6452380000
    9      Br      0.3129650000    -1.1814940000     2.0610130000
   10      Br     -3.6237640000     2.6169620000    -1.7275960000
   11      C       0.9367640000    -0.2450260000    -1.0117380000
   12      C       1.8688050000     0.9363430000    -1.3506710000
   13      C       0.6909370000    -1.1572050000    -2.2310310000
   14      C      -4.2477090000     1.6803440000     1.3448370000
   15      C      -4.0022870000     2.5933160000     2.5636360000
   16      C      -5.1794630000     0.4988870000     1.6842710000
   17      H       1.4477910000    -0.8481270000    -0.2611590000
   18      H       2.0521210000     1.5601510000    -0.4715200000
   19      H       1.4560890000     1.5609870000    -2.1426060000
   20      H       2.8333060000     0.5463570000    -1.6872800000
   21      H       0.0475450000    -2.0017830000    -1.9695350000
   22      H       1.6470400000    -1.5624250000    -2.5735220000
   23      H       0.2338820000    -0.6119740000    -3.0565390000
   24      H      -4.7588750000     2.2828910000     0.5939010000
   25      H      -4.9585520000     2.9984130000     2.9058200000
   26      H      -3.3591570000     3.4379580000     2.3017030000
   27      H      -3.5451250000     2.0487080000     3.3894890000
   28      H      -6.1441580000     0.8887910000     2.0204200000
   29      H      -4.7667600000    -0.1251630000     2.4766710000
   30      H      -5.3624050000    -0.1255020000     0.8054520000
 ----------------------------------------------------------------

   15   -5764.5866803978      7.06e-09  Convergence criterion met
 Total energy in the final basis set =    -5764.5983048659

                    Orbital Energies (a.u.)
 --------------------------------------------------------------

 Alpha MOs
 -- Occupied --
********-482.8472 -62.5001 -62.5001 -56.3207 -56.3207 -56.3168 -56.3168
-56.3164 -56.3164 -19.1503 -19.1503 -10.3035 -10.3035 -10.2658 -10.2658
-10.2337 -10.2336 -10.1983 -10.1983 -10.1651 -10.1651 -10.1651 -10.1651
 -8.7089  -8.7089  -6.5407  -6.5407  -6.5278  -6.5278  -6.5264  -6.5264
 -2.6517  -2.6517  -2.6480  -2.6479  -2.6470  -2.6470  -2.6368  -2.6368
 -2.6368  -2.6368  -1.0884  -1.0864  -0.8968  -0.8670  -0.8130  -0.8114
 -0.7904  -0.7466  -0.7014  -0.6929  -0.6928  -0.6560  -0.6077  -0.5999
 -0.5705  -0.5567  -0.4934  -0.4864  -0.4747  -0.4714  -0.4599  -0.4434
 -0.4431  -0.4406  -0.4368  -0.4242  -0.4163  -0.4083  -0.3893  -0.3893
 -0.3742  -0.3671  -0.3638  -0.3565  -0.3563  -0.3529  -0.3442  -0.3441
 -0.3072  -0.2978  -0.2923  -0.2922  -0.2860  -0.2716

          Ground-State Mulliken Net Atomic Charges

     Atom                 Charge (a.u.)
  ----------------------------------------
      1 C                    -1.540395
      2 C                     1.337342
      3 C                    -0.064245
      4 C                    -1.540017
      5 C                     1.337031
      6 C                    -0.064525
      7 O                    -0.137828
      8 O                    -0.137830
      9 Br                   -0.117007
     10 Br                   -0.117000
     11 C                     0.610844
     12 C                    -0.617987
     13 C                    -0.617571
     14 C                     0.610895
     15 C                    -0.617550
     16 C                    -0.617961
     17 H                     0.190956
     18 H                     0.136919
     19 H                     0.150447
     20 H                     0.190849
     21 H                     0.137112
     22 H                     0.190721
     23 H                     0.149898
     24 H                     0.190916
     25 H                     0.190750
     26 H                     0.137123
     27 H                     0.149914
     28 H                     0.190864
     29 H                     0.150418
     30 H                     0.136915
  ----------------------------------------
  Sum of atomic charges =     0.000000

                    Cartesian Multipole Moments
 -----------------------------------------------------------------
    Charge (ESU x 10^10)
                 0.0000
    Dipole Moment (Debye)
         X      -0.0007      Y      -0.0003      Z      -0.0005
       Tot       0.0009
    Quadrupole Moments (Debye-Ang)
        XX    -111.9964     XY      -3.8597     YY    -120.9860
        XZ      -2.0688     YZ       6.4761     ZZ    -133.0950

 Total job time:  809.97s(wall), 6141.91s(cpu)
        *  Thank you very much for using Q-Chem.  Have a nice day.  *
