 Gaussian 16, Revision A.03,
 Gaussian 16:  ES64L-G16RevA.03 25-Dec-2016

 ----------------------------------------------------------------
 #P UB3LYP/6-311++G(d,p) SCRF=(PCM,Solvent=n,n-DiMethylFormamide)
 ----------------------------------------------------------------

 -------
 Reduced
 -------
 Symbolic Z-matrix:
 Charge = -2 Multiplicity = 1

                         Standard orientation:
 ---------------------------------------------------------------------
 Center     Atomic      Atomic             Coordinates (Angstroms)
 Number     Number       Type             X           Y           Z
 ---------------------------------------------------------------------
      1          6           0        0.995890    1.436337    0.040380
      2          6           0        0.406111    0.103170   -0.010970
      3          6           0        1.271306   -1.041592   -0.056624
      4          6           0        2.684881   -1.018249   -0.039996
      5          6           0        3.226993    0.320181    0.035323
      6          6           0        2.438216    1.449512    0.071778
      7          8           0        0.349133    2.555088    0.067903
      8          8           0        3.452451   -2.065946   -0.093440
      9          6           0       -1.043915   -0.087329   -0.003549
     10          6           0       -1.971362    0.994270   -0.118644
     11          6           0       -1.646579   -1.377968    0.120644
     12          6           0       -3.023243   -1.567805    0.114645
     13          6           0       -3.346727    0.793086   -0.121999
     14          6           0       -3.908031   -0.488192   -0.009258
     15          1           0        0.839038   -2.034701   -0.133839
     16          1           0        4.314973    0.408699    0.052595
     17          1           0        2.891771    2.439828    0.120547
     18          1           0       -1.544592    1.987117   -0.190551
     19          1           0       -1.013270   -2.248024    0.235597
     20          1           0       -3.415253   -2.579470    0.216039
     21          1           0       -4.001531    1.659358   -0.215689
     22          1           0       -4.985049   -0.638470   -0.010791
 ---------------------------------------------------------------------

 SCF Done:  E(UB3LYP) =  -612.938723618     A.U. after   18 cycles

 The electronic state is 1-A.
 Alpha  occ. eigenvalues --  -19.01895 -19.01209 -10.17626 -10.16658 -10.16500
 Alpha  occ. eigenvalues --  -10.16041 -10.15826 -10.15609 -10.15246 -10.14189
 Alpha  occ. eigenvalues --  -10.13510 -10.12759 -10.12493 -10.11537  -0.93510
 Alpha  occ. eigenvalues --   -0.92204  -0.83568  -0.77974  -0.74180  -0.72618
 Alpha  occ. eigenvalues --   -0.68451  -0.64474  -0.59479  -0.58411  -0.54836
 Alpha  occ. eigenvalues --   -0.52580  -0.48543  -0.44552  -0.44160  -0.42872
 Alpha  occ. eigenvalues --   -0.40696  -0.40196  -0.39798  -0.37703  -0.36673
 Alpha  occ. eigenvalues --   -0.35473  -0.34422  -0.34228  -0.32365  -0.31892
 Alpha  occ. eigenvalues --   -0.31146  -0.30836  -0.26299  -0.24093  -0.22480
 Alpha  occ. eigenvalues --   -0.19259  -0.19237  -0.19086  -0.11912
 Alpha virt. eigenvalues --   -0.01931   0.00108   0.00352   0.01060   0.01590
 Alpha virt. eigenvalues --    0.02691   0.02932   0.04006   0.04730   0.04969
 Alpha virt. eigenvalues --    0.05062   0.05664   0.06744   0.07478   0.07868

  Beta  occ. eigenvalues --  -19.01895 -19.01209 -10.17626 -10.16658 -10.16500
  Beta  occ. eigenvalues --  -10.16041 -10.15826 -10.15609 -10.15246 -10.14189
  Beta  occ. eigenvalues --  -10.13510 -10.12759 -10.12493 -10.11537  -0.93510
  Beta  occ. eigenvalues --   -0.92204  -0.83568  -0.77974  -0.74180  -0.72618
  Beta  occ. eigenvalues --   -0.68451  -0.64474  -0.59479  -0.58411  -0.54836
  Beta  occ. eigenvalues --   -0.52580  -0.48543  -0.44552  -0.44160  -0.42872
  Beta  occ. eigenvalues --   -0.40696  -0.40196  -0.39798  -0.37703  -0.36673
  Beta  occ. eigenvalues --   -0.35473  -0.34422  -0.34228  -0.32365  -0.31892
  Beta  occ. eigenvalues --   -0.31146  -0.30836  -0.26299  -0.24093  -0.22480
  Beta  occ. eigenvalues --   -0.19259  -0.19237  -0.19086  -0.11912
  Beta virt. eigenvalues --   -0.01931   0.00108   0.00352   0.01060   0.01590
  Beta virt. eigenvalues --    0.02691   0.02932   0.04006   0.04730   0.04969
  Beta virt. eigenvalues --    0.05062   0.05664   0.06744   0.07478   0.07868

 Mulliken charges and spin densities:
               1          2
     1  C   -0.870370   0.000000
     2  C    1.493042  -0.000000
     3  C   -0.858835   0.000000
     4  C   -0.452090   0.000000
     5  C   -0.058097   0.000000
     6  C   -0.172380  -0.000000
     7  O   -0.643497  -0.000000
     8  O   -0.744199  -0.000000
     9  C    1.288637  -0.000000
    10  C   -0.283917  -0.000000
    11  C   -0.619510   0.000000
    12  C   -0.351792   0.000000
    13  C   -0.432813  -0.000000
    14  C   -0.429680   0.000000
    15  H    0.073377   0.000000
    16  H    0.139510  -0.000000
    17  H    0.140232  -0.000000
    18  H    0.174697   0.000000
    19  H    0.093872   0.000000
    20  H    0.181970   0.000000
    21  H    0.176098   0.000000
    22  H    0.155746  -0.000000
 Sum of Mulliken charges =  -2.00000   0.00000

 Dipole moment (field-independent basis, Debye):
    X=            -14.1308    Y=             -0.3275    Z=              0.1159  Tot=             14.1350
 Quadrupole moment (field-independent basis, Debye-Ang):
   XX=           -146.7051   YY=           -128.6032   ZZ=            -94.7644
   XY=             24.6499   XZ=              1.1769   YZ=             -2.1112

 Normal termination of Gaussian 16 at Wed Jan 24 22:51:27 2024.
