 Q-Chem 5.4, Q-Chem, Inc., Pleasanton, CA (2021)
 Q-Chem 5.4.0 for Intel X86 EM64T Linux

User input:
--------------------------------------------------------------
$molecule
-1 2
C                 -4.5513480000      0.8946280000      0.3461130000
C                 -3.1974480000      0.2556570000      0.1795640000
C                 -3.0624850000     -1.1183940000     -0.0598810000
C                 -1.8186820000     -1.7198770000     -0.2151020000
O                 -1.7668570000     -3.0543970000     -0.4442890000
C                 -0.6369440000     -0.9345710000     -0.1318680000
C                  0.6580460000     -1.5440610000     -0.2906450000
O                  0.7613580000     -2.8193370000     -0.5119540000
C                  1.8359660000     -0.7194390000     -0.2005140000
C                  3.1290160000     -1.2947730000     -0.3532430000
O                  3.2909110000     -2.6201560000     -0.5852880000
C                  4.2585870000     -0.4890110000     -0.2643390000
C                  4.1439760000      0.8841950000     -0.0261630000
C                  2.8982920000      1.4817120000      0.1283450000
O                  2.8403430000      2.8162970000      0.3575400000
C                  1.7179180000      0.6894620000      0.0439670000
C                  0.4217910000      1.2971820000      0.2025290000
O                  0.3158150000      2.5735920000      0.4241760000
C                 -0.7570630000      0.4722550000      0.1124590000
C                 -2.0480730000      1.0468030000      0.2651710000
O                 -2.2050600000      2.3745170000      0.4977200000
H                 -4.7150000000      1.6772840000     -0.4020230000
H                 -4.6430280000      1.3801240000      1.3233550000
H                 -5.3465200000      0.1512270000      0.2513280000
H                 -3.9436990000     -1.7476020000     -0.1294270000
H                 -0.7971330000     -3.2711820000     -0.5225300000
H                  2.3695100000     -2.9991730000     -0.6105240000
H                  5.2314480000     -0.9521640000     -0.3843690000
H                  5.0261580000      1.5106680000      0.0427690000
H                  1.8699070000      3.0295290000      0.4351110000
H                 -1.2796990000      2.7490060000      0.5220070000
$end
$rem
MAX_SCF_CYCLES=200
BASIS  =  6-311++G(d,p)
GUI  =  2
JOB_TYPE  =  SP
METHOD  =  B3LYP
SOLVENT_METHOD = COSMO
$end
$solvent
dielectric 37.219
opticaldielectric 1.43
$end

--------------------------------------------------------------

             Standard Nuclear Orientation (Angstroms)
    I     Atom           X                Y                Z
 ----------------------------------------------------------------
    1      C       4.8485817141    -0.7956922165     0.0002336237
    2      C       3.4663560142    -0.1969270150    -0.0000238408
    3      C       3.2712166432     1.1906916967    -0.0001064099
    4      C       2.0007698421     1.7553917821    -0.0001015890
    5      O       1.8905197911     3.1059476161    -0.0001872306
    6      C       0.8531007037     0.9169446099    -0.0000650404
    7      C      -0.4688974011     1.4879159812    -0.0000750525
    8      O      -0.6280548547     2.7765776188    -0.0001628697
    9      C      -1.6110244027     0.6097551352     0.0000107178
   10      C      -2.9295794333     1.1461563577     0.0001565655
   11      O      -3.1495144571     2.4834384972     0.0003422356
   12      C      -4.0241743150     0.2888646858     0.0001643205
   13      C      -3.8494417073    -1.0985886262    -0.0000079482
   14      C      -2.5772927692    -1.6591820435    -0.0001297866
   15      O      -2.4609271084    -3.0095392405    -0.0003040021
   16      C      -1.4312873002    -0.8137626498    -0.0000730668
   17      C      -0.1082275496    -1.3829055145    -0.0000260998
   18      O       0.0536457607    -2.6726255657     0.0000930032
   19      C       1.0348238905    -0.5044140127    -0.0000398826
   20      C       2.3513138754    -1.0401259651     0.0000147145
   21      O       2.5664570322    -2.3799997754     0.0001409645
   22      H       5.0034163502    -1.4357936314    -0.8746013779
   23      H       5.0047747956    -1.4319718428     0.8776534055
   24      H       5.6113121869    -0.0132824410    -0.0019848689
   25      H       4.1251139068     1.8601219935    -0.0001970457
   26      H       0.9110545886     3.2906905065    -0.0002773956
   27      H      -2.2444668561     2.9007625726     0.0003123299
   28      H      -5.0175487875     0.7231267794     0.0003024072
   29      H      -4.7044321530    -1.7652643037    -0.0000234746
   30      H      -1.4809098982    -3.1906398851    -0.0003086335
   31      H       1.6572497283    -2.7928761831     0.0001604941
 ----------------------------------------------------------------

    8   -1029.4012249304      9.89e-06  Convergence criterion met
 Total energy in the final basis set =    -1029.4012249304
    3   -1029.4719494282      9.92e-06  Convergence criterion met
 Total energy in the final basis set =    -1029.4719494282

                    Orbital Energies (a.u.)
 --------------------------------------------------------------

 Alpha MOs
 -- Occupied --
-19.1396 -19.1395 -19.1393 -19.1379 -19.1065 -19.1065 -10.2477 -10.2472
-10.2388 -10.2386 -10.2383 -10.2351 -10.1876 -10.1871 -10.1868 -10.1855
-10.1851 -10.1751 -10.1746 -10.1719 -10.1625  -1.0669  -1.0651  -1.0574
 -1.0558  -1.0144  -1.0129  -0.8707  -0.8514  -0.8055  -0.7665  -0.7536
 -0.7389  -0.7073  -0.6787  -0.6546  -0.6318  -0.6084  -0.5979  -0.5582
 -0.5339  -0.5296  -0.5233  -0.5198  -0.5181  -0.4762  -0.4574  -0.4554
 -0.4495  -0.4391  -0.4368  -0.4320  -0.4192  -0.4180  -0.4141  -0.4125
 -0.4067  -0.4046  -0.3943  -0.3788  -0.3769  -0.3724  -0.3704  -0.3686
 -0.3582  -0.3538  -0.3200  -0.3095  -0.2798  -0.2771  -0.2627  -0.2551
 -0.2342  -0.2120  -0.1513

 Beta MOs
 -- Occupied --
-19.1390 -19.1389 -19.1387 -19.1373 -19.1029 -19.1027 -10.2455 -10.2448
-10.2382 -10.2380 -10.2377 -10.2342 -10.1877 -10.1871 -10.1869 -10.1852
-10.1845 -10.1741 -10.1735 -10.1711 -10.1626  -1.0648  -1.0629  -1.0562
 -1.0545  -1.0086  -1.0069  -0.8684  -0.8495  -0.8020  -0.7649  -0.7500
 -0.7364  -0.7048  -0.6741  -0.6526  -0.6299  -0.6074  -0.5965  -0.5560
 -0.5326  -0.5283  -0.5226  -0.5178  -0.5168  -0.4745  -0.4556  -0.4480
 -0.4480  -0.4355  -0.4348  -0.4276  -0.4171  -0.4131  -0.4115  -0.4110
 -0.4037  -0.4018  -0.3892  -0.3763  -0.3720  -0.3690  -0.3672  -0.3575
 -0.3571  -0.3527  -0.3113  -0.3051  -0.2769  -0.2643  -0.2600  -0.2513
 -0.2211  -0.2034

          Ground-State Mulliken Net Atomic Charges

     Atom                 Charge (a.u.)    Spin (a.u.)
  --------------------------------------------------------
      1 C                    -0.173760       0.002745
      2 C                     0.863702       0.074185
      3 C                    -0.848866       0.044917
      4 C                    -0.360329       0.056722
      5 O                    -0.424823       0.017744
      6 C                     0.576733      -0.019549
      7 C                    -0.513435       0.128010
      8 O                    -0.571015       0.124505
      9 C                     0.427537      -0.004956
     10 C                    -0.317392       0.048638
     11 O                    -0.428025       0.017015
     12 C                    -0.158005       0.072193
     13 C                    -0.193056       0.064968
     14 C                    -0.276384       0.057359
     15 O                    -0.432748       0.018028
     16 C                     0.483382      -0.008490
     17 C                    -0.433223       0.139348
     18 O                    -0.584493       0.131051
     19 C                     0.183975      -0.036252
     20 C                    -0.214188       0.071189
     21 O                    -0.438595       0.020971
     22 H                     0.187575       0.003234
     23 H                     0.187824       0.003259
     24 H                     0.179714       0.000043
     25 H                     0.183941      -0.005540
     26 H                     0.406351      -0.002186
     27 H                     0.406173      -0.002222
     28 H                     0.220342      -0.006447
     29 H                     0.220687      -0.006018
     30 H                     0.407284      -0.002286
     31 H                     0.433117      -0.002177
  --------------------------------------------------------
  Sum of atomic charges =    -1.000000

                    Cartesian Multipole Moments
 -----------------------------------------------------------------
    Charge (ESU x 10^10)
                -4.8032
    Dipole Moment (Debye)
         X       2.3474      Y      -0.5145      Z      -0.0002
       Tot       2.4031
    Quadrupole Moments (Debye-Ang)
        XX    -140.0380     XY       1.7956     YY    -166.5884
        XZ      -0.0008     YZ       0.0020     ZZ    -126.6136

 Total job time:  92.87s(wall), 696.10s(cpu)
        *  Thank you very much for using Q-Chem.  Have a nice day.  *
