 Q-Chem 5.4, Q-Chem, Inc., Pleasanton, CA (2021)
 Q-Chem 5.4.0 for Intel X86 EM64T Linux

User input:
--------------------------------------------------------------
$molecule
-2 1
C                  2.2354570000     -0.0726360000      0.0772680000
C                  0.7293830000      0.0063960000      0.0269650000
C                  0.0815080000      1.2440390000      0.0821640000
C                 -1.3410250000      1.4188320000      0.0412000000
O                 -1.9312600000      2.5763620000      0.0932040000
C                 -2.0456750000      0.1757170000     -0.0637010000
C                 -1.3683670000     -1.0452830000     -0.1168290000
Br                -2.5046640000     -2.6846670000     -0.2623740000
C                  0.0372400000     -1.2595260000     -0.0789080000
O                  0.6589620000     -2.3928380000     -0.1280580000
H                  2.5767110000     -0.6823990000      0.9267310000
H                  2.6786890000      0.9284860000      0.1581140000
H                  2.6408020000     -0.5703100000     -0.8159370000
H                  0.6819290000      2.1526550000      0.1619210000
H                 -3.1296900000      0.2051720000     -0.1017600000
$end
$rem
MAX_SCF_CYCLES=200
BASIS  =  6-311++G(d,p)
GUI  =  2
JOB_TYPE  =  SP
METHOD  =  B3LYP
SOLVENT_METHOD = PCM
$end
$pcm
theory = CPCM
$end
$solvent
dielectric 37.219
opticaldielectric 1.43
$end

--------------------------------------------------------------

             Standard Nuclear Orientation (Angstroms)
    I     Atom           X                Y                Z
 ----------------------------------------------------------------
    1      C       2.2354570000    -0.0726360000     0.0772680000
    2      C       0.7293830000     0.0063960000     0.0269650000
    3      C       0.0815080000     1.2440390000     0.0821640000
    4      C      -1.3410250000     1.4188320000     0.0412000000
    5      O      -1.9312600000     2.5763620000     0.0932040000
    6      C      -2.0456750000     0.1757170000    -0.0637010000
    7      C      -1.3683670000    -1.0452830000    -0.1168290000
    8      Br     -2.5046640000    -2.6846670000    -0.2623740000
    9      C       0.0372400000    -1.2595260000    -0.0789080000
   10      O       0.6589620000    -2.3928380000    -0.1280580000
   11      H       2.5767110000    -0.6823990000     0.9267310000
   12      H       2.6786890000     0.9284860000     0.1581140000
   13      H       2.6408020000    -0.5703100000    -0.8159370000
   14      H       0.6819290000     2.1526550000     0.1619210000
   15      H      -3.1296900000     0.2051720000    -0.1017600000
 ----------------------------------------------------------------

    9   -2994.7128189243      6.12e-06  Convergence criterion met
 Total energy in the final basis set =    -2994.7128189243

                    Orbital Energies (a.u.)
 --------------------------------------------------------------

 Alpha MOs
 -- Occupied --
******** -62.4540 -56.2740 -56.2709 -56.2707 -19.0241 -19.0215 -10.1827
-10.1802 -10.1772 -10.1427 -10.1413 -10.1306 -10.1255  -8.6625  -6.4923
 -6.4819  -6.4815  -2.6035  -2.6006  -2.6002  -2.5920  -2.5920  -0.9386
 -0.9308  -0.8013  -0.7644  -0.7158  -0.6602  -0.6423  -0.5429  -0.5248
 -0.4482  -0.4344  -0.3974  -0.3924  -0.3746  -0.3639  -0.3585  -0.3545
 -0.3312  -0.3195  -0.3165  -0.2856  -0.2698  -0.2301  -0.2103  -0.2052
 -0.2014  -0.1270

          Ground-State Mulliken Net Atomic Charges

     Atom                 Charge (a.u.)
  ----------------------------------------
      1 C                    -0.445634
      2 C                     1.347734
      3 C                    -0.724071
      4 C                    -0.342923
      5 O                    -0.755119
      6 C                    -0.197015
      7 C                     1.025724
      8 Br                   -0.326076
      9 C                    -1.635404
     10 O                    -0.683702
     11 H                     0.147933
     12 H                     0.141245
     13 H                     0.148175
     14 H                     0.121953
     15 H                     0.177181
  ----------------------------------------
  Sum of atomic charges =    -2.000000

                    Cartesian Multipole Moments
 -----------------------------------------------------------------
    Charge (ESU x 10^10)
                -9.6064
    Dipole Moment (Debye)
         X       9.1421      Y       2.1269      Z       0.4686
       Tot       9.3980
    Quadrupole Moments (Debye-Ang)
        XX    -104.4793     XY      17.3603     YY    -138.1374
        XZ       0.2267     YZ      -3.0351     ZZ     -80.6117

 Total job time:  20.66s(wall), 98.44s(cpu)
        *  Thank you very much for using Q-Chem.  Have a nice day.  *
