 Gaussian 16, Revision A.03,
 Gaussian 16:  ES64L-G16RevA.03 25-Dec-2016

 ----------------------------------------------------------------------
 #P UB3LYP/6-311++G(d,p) nosym opt freq SCRF=(PCM,Solvent=n,n-DiMethylF
 ormamide)
 ----------------------------------------------------------------------

 -------
 Radical
 -------
 Symbolic Z-matrix:
 Charge = -1 Multiplicity = 2

 SCF Done:  E(UB3LYP) =  -1243.41488036     A.U. after   20 cycles
 SCF Done:  E(UB3LYP) =  -1243.41511607     A.U. after   16 cycles
 SCF Done:  E(UB3LYP) =  -1243.41524565     A.U. after   16 cycles
 SCF Done:  E(UB3LYP) =  -1243.41530661     A.U. after   14 cycles
 SCF Done:  E(UB3LYP) =  -1243.41532704     A.U. after   14 cycles
 SCF Done:  E(UB3LYP) =  -1243.41533684     A.U. after   14 cycles
 SCF Done:  E(UB3LYP) =  -1243.41534373     A.U. after   13 cycles
 SCF Done:  E(UB3LYP) =  -1243.41534593     A.U. after   13 cycles
 SCF Done:  E(UB3LYP) =  -1243.41534646     A.U. after   10 cycles
 SCF Done:  E(UB3LYP) =  -1243.41534675     A.U. after   10 cycles
 SCF Done:  E(UB3LYP) =  -1243.41534683     A.U. after   10 cycles
 Optimization completed.
    -- Stationary point found.
 Normal termination of Gaussian 16 at Sat Feb 10 18:53:11 2024.

 ----------------------------------------------------------------------
 #P Geom=AllCheck Guess=TCheck SCRF=Check GenChk UB3LYP/6-311++G(d,p) F
 req
 ----------------------------------------------------------------------

 Structure from the checkpoint file:  "162-rad.chk"
 -------
 Radical
 -------
 Charge = -1 Multiplicity = 2

                          Input orientation:
 ---------------------------------------------------------------------
 Center     Atomic      Atomic             Coordinates (Angstroms)
 Number     Number       Type             X           Y           Z
 ---------------------------------------------------------------------
      1          6           0       -4.387142   -0.458981   -0.107507
      2          6           0       -2.899790   -0.700373   -0.113125
      3          6           0       -2.392389   -1.981922   -0.324900
      4          6           0       -1.035535   -2.246050   -0.305934
      5         17           0       -0.632136   -3.949198   -0.636472
      6          6           0       -0.073422   -1.230112   -0.083441
      7          6           0        1.367206   -1.504666   -0.012070
      8          8           0        1.845751   -2.670258   -0.041422
      9          6           0        2.264484   -0.357024    0.104479
     10          6           0        3.662996   -0.568925    0.114815
     11          6           0        4.545467    0.487382    0.217524
     12          6           0        4.054587    1.806756    0.320446
     13          6           0        2.693287    2.035041    0.319130
     14          6           0        1.772792    0.966483    0.212067
     15          6           0        0.342488    1.243652    0.227651
     16          8           0       -0.049522    2.451450    0.349492
     17          6           0       -0.576936    0.120160    0.089554
     18          6           0       -1.997737    0.358370    0.096464
     19          7           0       -2.501252    1.613174    0.348161
     20          1           0       -4.724302   -0.032339    0.844399
     21          1           0       -4.694861    0.237938   -0.897167
     22          1           0       -4.931015   -1.391165   -0.266164
     23          1           0       -3.082706   -2.797314   -0.505611
     24          1           0        4.023818   -1.586714    0.036029
     25          1           0        5.614836    0.305560    0.218858
     26          1           0        4.746651    2.637969    0.401882
     27          1           0        2.299543    3.040215    0.401143
     28          1           0       -1.809531    2.360117    0.316225
     29          1           0       -3.445630    1.810776    0.058558
 ---------------------------------------------------------------------

 SCF Done:  E(UB3LYP) =  -1243.41534683     A.U. after    1 cycles

 Alpha  occ. eigenvalues -- -101.54039 -19.07758 -19.07071 -14.30780 -10.22844
 Alpha  occ. eigenvalues --  -10.22576 -10.22306 -10.21864 -10.18632 -10.18057
 Alpha  occ. eigenvalues --  -10.17716 -10.17520 -10.17249 -10.17221 -10.17199
 Alpha  occ. eigenvalues --  -10.17164 -10.16973 -10.16927 -10.16807  -9.45514
 Alpha  occ. eigenvalues --   -7.21958  -7.21040  -7.20939  -1.00345  -0.99842
 Alpha  occ. eigenvalues --   -0.91981  -0.87353  -0.85697  -0.81897  -0.79437
 Alpha  occ. eigenvalues --   -0.75377  -0.74971  -0.72165  -0.70106  -0.65959
 Alpha  occ. eigenvalues --   -0.63401  -0.61630  -0.58002  -0.55899  -0.54958
 Alpha  occ. eigenvalues --   -0.51944  -0.50889  -0.48056  -0.47150  -0.45381
 Alpha  occ. eigenvalues --   -0.44685  -0.44283  -0.43440  -0.42333  -0.42053
 Alpha  occ. eigenvalues --   -0.41673  -0.40863  -0.40044  -0.39018  -0.38452
 Alpha  occ. eigenvalues --   -0.37602  -0.37347  -0.36593  -0.34999  -0.34658
 Alpha  occ. eigenvalues --   -0.33998  -0.33648  -0.30941  -0.29560  -0.26567
 Alpha  occ. eigenvalues --   -0.25583  -0.24855  -0.24575  -0.23040  -0.21074
 Alpha  occ. eigenvalues --   -0.13884
 Alpha virt. eigenvalues --   -0.05029  -0.02298  -0.00495   0.00064   0.00235
 Alpha virt. eigenvalues --    0.00979   0.01599   0.02085   0.02326   0.03472
 Alpha virt. eigenvalues --    0.03960   0.04062   0.04818   0.04915   0.05495

  Beta  occ. eigenvalues -- -101.54033 -19.07266 -19.06503 -14.30758 -10.22653
  Beta  occ. eigenvalues --  -10.22412 -10.22234 -10.21860 -10.18561 -10.18043
  Beta  occ. eigenvalues --  -10.17584 -10.17493 -10.17208 -10.17157 -10.17148
  Beta  occ. eigenvalues --  -10.17091 -10.16971 -10.16924 -10.16816  -9.45508
  Beta  occ. eigenvalues --   -7.21958  -7.21018  -7.20936  -0.99491  -0.98854
  Beta  occ. eigenvalues --   -0.91870  -0.87200  -0.85506  -0.81770  -0.79110
  Beta  occ. eigenvalues --   -0.75199  -0.74769  -0.71973  -0.69855  -0.65426
  Beta  occ. eigenvalues --   -0.63184  -0.61428  -0.57893  -0.55699  -0.54789
  Beta  occ. eigenvalues --   -0.51779  -0.50790  -0.47857  -0.46911  -0.45277
  Beta  occ. eigenvalues --   -0.44563  -0.44194  -0.42957  -0.42285  -0.41947
  Beta  occ. eigenvalues --   -0.40826  -0.40309  -0.39876  -0.38887  -0.37409
  Beta  occ. eigenvalues --   -0.37243  -0.36853  -0.36307  -0.34863  -0.33782
  Beta  occ. eigenvalues --   -0.33486  -0.33047  -0.30862  -0.29076  -0.24957
  Beta  occ. eigenvalues --   -0.24668  -0.24389  -0.24128  -0.22553  -0.20184
  Beta virt. eigenvalues --   -0.08278  -0.04011  -0.01302  -0.00482   0.00239
  Beta virt. eigenvalues --    0.00424   0.01011   0.01628   0.02094   0.02358
  Beta virt. eigenvalues --    0.03560   0.03967   0.04085   0.04870   0.05099

 Mulliken charges and spin densities:
               1          2
     1  C   -0.442814  -0.004715
     2  C    0.344326   0.092015
     3  C   -0.745954   0.009464
     4  C    0.937365   0.060865
     5  Cl   0.331424   0.004215
     6  C    0.442145   0.052999
     7  C   -1.485098   0.090092
     8  O   -0.362995   0.208652
     9  C   -0.023513   0.038122
    10  C    0.118987   0.029723
    11  C   -0.426946   0.032083
    12  C   -0.522106   0.033782
    13  C    0.113553   0.027639
    14  C   -0.174050   0.015926
    15  C   -0.454479   0.109336
    16  O   -0.455513   0.179690
    17  C    0.209032   0.000602
    18  C    0.002757   0.011984
    19  N   -0.390616   0.012161
    20  H    0.174958   0.004503
    21  H    0.174403   0.004297
    22  H    0.170668   0.000149
    23  H    0.180416  -0.002002
    24  H    0.160998  -0.001890
    25  H    0.182532  -0.002667
    26  H    0.180090  -0.002905
    27  H    0.167641  -0.000960
    28  H    0.324195  -0.002215
    29  H    0.268594  -0.000946
 Sum of Mulliken charges =  -1.00000   1.00000

 Dipole moment (field-independent basis, Debye):
    X=             -5.8970    Y=              5.0540    Z=             -0.8255  Tot=              7.8102
 Quadrupole moment (field-independent basis, Debye-Ang):
   XX=           -114.1800   YY=           -158.4224   ZZ=           -126.1254
   XY=              8.0102   XZ=              2.2403   YZ=             -4.3862

  Exact polarizability: 520.833  21.695 424.131  11.647  35.258 161.003
 Approx polarizability: 530.721   1.182 493.243   9.279  39.391 184.926

                      1                      2                      3
                      A                      A                      A
 Frequencies --     44.2873                54.0922                93.1095
 Red. masses --      5.6420                10.3707                 4.5188
 Frc consts  --      0.0065                 0.0179                 0.0231
 IR Inten    --     10.3137                 2.2089                 2.5496

                      4                      5                      6
                      A                      A                      A
 Frequencies --    128.4390               147.8103               180.7456
 Red. masses --      4.7921                 5.3612                 8.2366
 Frc consts  --      0.0466                 0.0690                 0.1585
 IR Inten    --      0.6616                 0.0938                10.4870

                      7                      8                      9
                      A                      A                      A
 Frequencies --    184.2498               201.3862               240.9214
 Red. masses --      4.3832                 1.1472                 4.8678
 Frc consts  --      0.0877                 0.0274                 0.1665
 IR Inten    --      0.8319                 5.3492                 1.5578

                     10                     11                     12
                      A                      A                      A
 Frequencies --    274.9169               292.3558               328.3464
 Red. masses --      3.8627                 4.9324                 7.6127
 Frc consts  --      0.1720                 0.2484                 0.4836
 IR Inten    --     13.1630                 6.9824                 4.3558

                     13                     14                     15
                      A                      A                      A
 Frequencies --    346.8109               352.7627               369.3922
 Red. masses --      4.0733                 4.0632                 3.3773
 Frc consts  --      0.2887                 0.2979                 0.2715
 IR Inten    --     43.1954                84.3522               113.8746

                     16                     17                     18
                      A                      A                      A
 Frequencies --    380.6904               403.2247               425.2617
 Red. masses --      2.6624                 5.2753                 5.6888
 Frc consts  --      0.2273                 0.5053                 0.6062
 IR Inten    --    100.5111                38.5787                 2.3450

                     19                     20                     21
                      A                      A                      A
 Frequencies --    434.8841               444.1410               494.7412
 Red. masses --      4.9562                 3.7119                 9.9355
 Frc consts  --      0.5523                 0.4314                 1.4328
 IR Inten    --     37.7502                45.1864                 0.8927

                     22                     23                     24
                      A                      A                      A
 Frequencies --    498.5486               511.2517               579.4984
 Red. masses --      4.8918                 4.0065                 6.0262
 Frc consts  --      0.7164                 0.6170                 1.1923
 IR Inten    --     15.0785                35.3767                44.2480

                     25                     26                     27
                      A                      A                      A
 Frequencies --    584.1989               627.8152               663.1970
 Red. masses --      5.4111                 4.4386                 4.8689
 Frc consts  --      1.0881                 1.0308                 1.2617
 IR Inten    --     11.8564                 4.4946                 7.7430

                     28                     29                     30
                      A                      A                      A
 Frequencies --    669.3054               694.4711               715.1736
 Red. masses --      4.2497                 1.3409                 3.1084
 Frc consts  --      1.1216                 0.3810                 0.9367
 IR Inten    --     12.5217               108.3278                67.1997

                     31                     32                     33
                      A                      A                      A
 Frequencies --    724.1144               746.9476               791.6670
 Red. masses --      5.9847                 3.6316                 2.1922
 Frc consts  --      1.8489                 1.1938                 0.8095
 IR Inten    --     11.3020                70.4215                32.1901

                     34                     35                     36
                      A                      A                      A
 Frequencies --    799.2452               801.1060               827.7125
 Red. masses --      5.2468                 7.0377                 5.7182
 Frc consts  --      1.9747                 2.6611                 2.3082
 IR Inten    --     13.8940               123.8509                24.4129

                     37                     38                     39
                      A                      A                      A
 Frequencies --    884.5471               885.7779               906.8161
 Red. masses --      1.4342                 1.3486                 7.3966
 Frc consts  --      0.6611                 0.6234                 3.5836
 IR Inten    --      5.5882                17.3477                18.6906

                     40                     41                     42
                      A                      A                      A
 Frequencies --    985.9266               990.3525              1001.4098
 Red. masses --      3.1747                 1.3630                 1.2850
 Frc consts  --      1.8182                 0.7877                 0.7593
 IR Inten    --     14.3205                 2.8206                 0.2113

                     43                     44                     45
                      A                      A                      A
 Frequencies --   1011.5441              1040.3795              1050.1556
 Red. masses --      2.1728                 1.8781                 1.4798
 Frc consts  --      1.3099                 1.1977                 0.9615
 IR Inten    --    102.4109                19.9830                 1.6712

                     46                     47                     48
                      A                      A                      A
 Frequencies --   1060.8503              1114.8115              1149.1135
 Red. masses --      2.8421                 2.0350                 1.3527
 Frc consts  --      1.8845                 1.4901                 1.0524
 IR Inten    --     65.8039                25.6643                18.8641

                     49                     50                     51
                      A                      A                      A
 Frequencies --   1163.9030              1202.4175              1214.0341
 Red. masses --      2.1447                 2.0972                 2.8311
 Frc consts  --      1.7118                 1.7865                 2.4585
 IR Inten    --     50.3741                16.7023               185.3717

                     52                     53                     54
                      A                      A                      A
 Frequencies --   1226.3369              1251.5991              1285.4058
 Red. masses --      3.3617                 2.1898                 3.8040
 Frc consts  --      2.9787                 2.0211                 3.7032
 IR Inten    --     48.5376               179.6535                65.6979

                     55                     56                     57
                      A                      A                      A
 Frequencies --   1325.2877              1358.1505              1368.8883
 Red. masses --      3.0151                 3.5396                 6.8575
 Frc consts  --      3.1201                 3.8468                 7.5709
 IR Inten    --     26.7574                53.8385                54.0801

                     58                     59                     60
                      A                      A                      A
 Frequencies --   1382.5315              1388.2311              1413.1751
 Red. masses --      4.1353                 3.0171                 1.4294
 Frc consts  --      4.6570                 3.4258                 1.6819
 IR Inten    --    557.4457               123.7756                 7.2790

                     61                     62                     63
                      A                      A                      A
 Frequencies --   1461.3658              1474.5234              1476.1293
 Red. masses --      3.2900                 2.8798                 1.0926
 Frc consts  --      4.1397                 3.6891                 1.4027
 IR Inten    --    895.1142               101.9307                19.5101

                     64                     65                     66
                      A                      A                      A
 Frequencies --   1485.2094              1498.7282              1512.0246
 Red. masses --      1.6241                 3.9220                 2.4519
 Frc consts  --      2.1108                 5.1905                 3.3027
 IR Inten    --     58.7585              1250.3501               228.2498

                     67                     68                     69
                      A                      A                      A
 Frequencies --   1555.4225              1582.3612              1599.3848
 Red. masses --      4.5233                 2.0885                 2.4159
 Frc consts  --      6.4477                 3.0811                 3.6412
 IR Inten    --     74.8500               114.4732               201.3090

                     70                     71                     72
                      A                      A                      A
 Frequencies --   1610.0048              1626.6172              2998.9823
 Red. masses --      7.3076                 5.8363                 1.0421
 Frc consts  --     11.1604                 9.0983                 5.5220
 IR Inten    --      4.1870                 0.6976               104.3783

                     73                     74                     75
                      A                      A                      A
 Frequencies --   3038.3928              3104.7142              3159.1780
 Red. masses --      1.0984                 1.0965                 1.0863
 Frc consts  --      5.9746                 6.2271                 6.3877
 IR Inten    --     39.0104                29.8214                16.1693

                     76                     77                     78
                      A                      A                      A
 Frequencies --   3173.9062              3179.6492              3195.2776
 Red. masses --      1.0914                 1.0908                 1.0916
 Frc consts  --      6.4776                 6.4976                 6.5667
 IR Inten    --     30.9228                17.7906                14.8789

                     79                     80                     81
                      A                      A                      A
 Frequencies --   3198.4754              3398.4044              3656.8799
 Red. masses --      1.0931                 1.0621                 1.0882
 Frc consts  --      6.5887                 7.2272                 8.5736
 IR Inten    --     38.1534               242.4842               105.9282

 - Thermochemistry -
 -------------------
 Temperature   298.150 Kelvin.  Pressure   1.00000 Atm.
 Atom     1 has atomic number  6 and mass  12.00000

 Molecular mass:   271.04001 amu.
 Principal axes and moments of inertia in atomic units:
                           1         2         3
     Eigenvalues --  3417.266296144.266529534.89733
           X            0.91890  -0.39369  -0.02506
           Y            0.38671   0.91150  -0.14008
           Z            0.07799   0.11903   0.98982
 This molecule is an asymmetric top.
 Rotational symmetry number  1.
 Warning -- assumption of classical behavior for rotation
           may cause significant error
 Rotational temperatures (Kelvin)      0.02535     0.01410     0.00908
 Rotational constants (GHZ):           0.52812     0.29373     0.18928
 Zero-point vibrational energy     554493.6 (Joules/Mol)
                                  132.52716 (Kcal/Mol)
 Warning -- explicit consideration of  25 degrees of freedom as
           vibrations may cause significant error
 Vibrational temperatures:     63.72    77.83   133.96   184.80   212.67
          (Kelvin)            260.05   265.09   289.75   346.63   395.54
                              420.63   472.42   498.98   507.55   531.47
                              547.73   580.15   611.86   625.70   639.02
                              711.82   717.30   735.58   833.77   840.53
                              903.29   954.19   962.98   999.19  1028.98
                             1041.84  1074.69  1139.03  1149.94  1152.61
                             1190.89  1272.67  1274.44  1304.71  1418.53
                             1424.90  1440.81  1455.39  1496.87  1510.94
                             1526.33  1603.97  1653.32  1674.60  1730.01
                             1746.72  1764.43  1800.77  1849.41  1906.79
                             1954.08  1969.52  1989.15  1997.35  2033.24
                             2102.58  2121.51  2123.82  2136.88  2156.34
                             2175.47  2237.91  2276.66  2301.16  2316.44
                             2340.34  4314.87  4371.57  4466.99  4545.35
                             4566.54  4574.81  4597.29  4601.89  4889.55
                             5261.43

 Zero-point correction=                           0.211195 (Hartree/Particle)
 Thermal correction to Energy=                    0.226590
 Thermal correction to Enthalpy=                  0.227534
 Thermal correction to Gibbs Free Energy=         0.168118
 Sum of electronic and zero-point Energies=          -1243.204151
 Sum of electronic and thermal Energies=             -1243.188757
 Sum of electronic and thermal Enthalpies=           -1243.187813
 Sum of electronic and thermal Free Energies=        -1243.247229

                     E (Thermal)             CV                S
                      KCal/Mol        Cal/Mol-Kelvin    Cal/Mol-Kelvin
 Total                  142.187             61.425            125.052
 Electronic               0.000              0.000              1.377
 Translational            0.889              2.981             42.690
 Rotational               0.889              2.981             33.659
 Vibrational            140.410             55.463             47.325
 Vibration     1          0.595              1.980              5.057
 Vibration     2          0.596              1.976              4.662
 Vibration     3          0.602              1.954              3.594
 Vibration     4          0.611              1.925              2.969
 Vibration     5          0.617              1.905              2.700
 Vibration     6          0.630              1.866              2.321
 Vibration     7          0.631              1.861              2.285
 Vibration     8          0.638              1.838              2.120
 Vibration     9          0.658              1.778              1.796
 Vibration    10          0.677              1.720              1.565
 Vibration    11          0.688              1.688              1.460
 Vibration    12          0.712              1.619              1.268
 Vibration    13          0.725              1.582              1.181
 Vibration    14          0.729              1.570              1.154
 Vibration    15          0.742              1.535              1.082
 Vibration    16          0.750              1.511              1.036
 Vibration    17          0.769              1.463              0.951
 Vibration    18          0.787              1.415              0.874
 Vibration    19          0.795              1.394              0.843
 Vibration    20          0.804              1.374              0.814
 Vibration    21          0.850              1.262              0.671
 Vibration    22          0.854              1.253              0.662
 Vibration    23          0.866              1.225              0.631
 Vibration    24          0.936              1.076              0.486
 Vibration    25          0.941              1.066              0.478

                           ! Non-Optimized Parameters !
 Normal termination of Gaussian 16 at Sat Feb 10 20:57:10 2024.
