 Gaussian 16, Revision A.03,
 Gaussian 16:  ES64L-G16RevA.03 25-Dec-2016

 ----------------------------------------------------------------------
 #P UB3LYP/6-311++G(d,p) nosym opt freq SCRF=(PCM,Solvent=n,n-DiMethylF
 ormamide)
 ----------------------------------------------------------------------

 -------
 Radical
 -------
 Symbolic Z-matrix:
 Charge = -1 Multiplicity = 2

 SCF Done:  E(UB3LYP) =  -5528.81519366     A.U. after   18 cycles
 SCF Done:  E(UB3LYP) =  -5528.81534336     A.U. after   13 cycles
 SCF Done:  E(UB3LYP) =  -5528.81537307     A.U. after   12 cycles
 SCF Done:  E(UB3LYP) =  -5528.81537085     A.U. after   11 cycles
 SCF Done:  E(UB3LYP) =  -5528.81537379     A.U. after   10 cycles
 Optimization completed.
    -- Stationary point found.
 Normal termination of Gaussian 16 at Sat Feb 10 10:13:09 2024.

 ----------------------------------------------------------------------
 #P Geom=AllCheck Guess=TCheck SCRF=Check GenChk UB3LYP/6-311++G(d,p) F
 req
 ----------------------------------------------------------------------

 Structure from the checkpoint file:  "012-rad.chk"
 -------
 Radical
 -------
 Charge = -1 Multiplicity = 2

                          Input orientation:
 ---------------------------------------------------------------------
 Center     Atomic      Atomic             Coordinates (Angstroms)
 Number     Number       Type             X           Y           Z
 ---------------------------------------------------------------------
      1         35           0       -2.705022   -1.850535   -0.092773
      2          6           0       -1.141267   -0.726856   -0.039533
      3          6           0       -1.298386    0.628007   -0.030552
      4          6           0       -0.155103    1.513677    0.011375
      5          8           0       -0.284267    2.771910    0.020633
      6          6           0        1.144248    0.877877    0.042205
      7          6           0        1.265110   -0.480702    0.030768
      8         35           0        3.023685   -1.266174    0.071081
      9          6           0        0.144657   -1.410799   -0.011009
     10          8           0        0.272851   -2.657143   -0.022318
     11          1           0       -2.282036    1.080450   -0.054299
     12          1           0        2.015531    1.520289    0.074422
 ---------------------------------------------------------------------

 SCF Done:  E(UB3LYP) =  -5528.81537379     A.U. after    1 cycles

 Alpha  occ. eigenvalues -- -482.82967-482.82964 -62.48245 -62.48242 -56.30271
 Alpha  occ. eigenvalues --  -56.30268 -56.29907 -56.29904 -56.29880 -56.29877
 Alpha  occ. eigenvalues --  -19.09485 -19.09142 -10.24877 -10.23778 -10.23126
 Alpha  occ. eigenvalues --  -10.23125 -10.18241 -10.18239  -8.69207  -8.69204
 Alpha  occ. eigenvalues --   -6.52315  -6.52312  -6.51098  -6.51095  -6.51023
 Alpha  occ. eigenvalues --   -6.51020  -2.63415  -2.63412  -2.63078  -2.63075
 Alpha  occ. eigenvalues --   -2.63022  -2.63019  -2.62052  -2.62052  -2.62049
 Alpha  occ. eigenvalues --   -2.62049  -1.02247  -1.01131  -0.86099  -0.82432
 Alpha  occ. eigenvalues --   -0.77733  -0.72820  -0.69703  -0.59966  -0.57967
 Alpha  occ. eigenvalues --   -0.50192  -0.48602  -0.44094  -0.43350  -0.42373
 Alpha  occ. eigenvalues --   -0.42041  -0.39403  -0.39206  -0.37226  -0.33943
 Alpha  occ. eigenvalues --   -0.32342  -0.29555  -0.29189  -0.27913  -0.26206
 Alpha  occ. eigenvalues --   -0.25364  -0.25324  -0.17909
 Alpha virt. eigenvalues --   -0.02898  -0.02880   0.00146   0.00183   0.01367
 Alpha virt. eigenvalues --    0.01604   0.02091   0.03898   0.04144   0.05185
 Alpha virt. eigenvalues --    0.05384   0.05868   0.07033   0.08014   0.08121

  Beta  occ. eigenvalues -- -482.82967-482.82964 -62.48245 -62.48242 -56.30273
  Beta  occ. eigenvalues --  -56.30270 -56.29903 -56.29901 -56.29880 -56.29877
  Beta  occ. eigenvalues --  -19.08792 -19.08398 -10.24739 -10.23677 -10.23027
  Beta  occ. eigenvalues --  -10.23026 -10.18112 -10.18109  -8.69207  -8.69204
  Beta  occ. eigenvalues --   -6.52319  -6.52316  -6.51093  -6.51090  -6.51023
  Beta  occ. eigenvalues --   -6.51020  -2.63417  -2.63414  -2.63076  -2.63073
  Beta  occ. eigenvalues --   -2.63024  -2.63021  -2.62050  -2.62049  -2.62047
  Beta  occ. eigenvalues --   -2.62046  -1.01053  -0.99833  -0.85564  -0.82301
  Beta  occ. eigenvalues --   -0.77505  -0.72599  -0.68674  -0.59551  -0.57533
  Beta  occ. eigenvalues --   -0.49966  -0.48161  -0.43641  -0.42272  -0.41588
  Beta  occ. eigenvalues --   -0.41446  -0.38979  -0.37033  -0.36322  -0.33601
  Beta  occ. eigenvalues --   -0.30713  -0.29530  -0.29133  -0.25597  -0.25555
  Beta  occ. eigenvalues --   -0.24767  -0.24680
  Beta virt. eigenvalues --   -0.10660  -0.02754  -0.01446   0.00208   0.00214
  Beta virt. eigenvalues --    0.01610   0.02137   0.03548   0.04182   0.04221
  Beta virt. eigenvalues --    0.05207   0.05426   0.05935   0.07035   0.08136

 Mulliken charges and spin densities:
               1          2
     1  Br  -0.149796   0.003645
     2  C    1.113953   0.097067
     3  C   -0.258448   0.073817
     4  C   -0.349046   0.122244
     5  O   -0.478060   0.259502
     6  C   -0.258175   0.073762
     7  C    1.112675   0.097087
     8  Br  -0.149618   0.003644
     9  C   -1.694382   0.031145
    10  O   -0.367538   0.253853
    11  H    0.239213  -0.007884
    12  H    0.239223  -0.007880
 Sum of Mulliken charges =  -1.00000   1.00000

 Dipole moment (field-independent basis, Debye):
    X=             -0.1944    Y=              1.8952    Z=              0.0195  Tot=              1.9052
 Quadrupole moment (field-independent basis, Debye-Ang):
   XX=            -91.8811   YY=           -124.8646   ZZ=            -85.9140
   XY=              3.4215   XZ=             -0.1257   YZ=             -0.3234

  Exact polarizability: 218.702  -4.913 265.483   3.431   1.663  93.542
 Approx polarizability: 221.086  -9.588 313.057   3.097   1.915 105.945

                      1                      2                      3
                      A                      A                      A
 Frequencies --     75.6821               131.2802               151.4519
 Red. masses --     17.8880                30.5249                11.4267
 Frc consts  --      0.0604                 0.3100                 0.1544
 IR Inten    --      8.1510                 2.3376                11.5927

                      4                      5                      6
                      A                      A                      A
 Frequencies --    180.8806               216.3943               258.3026
 Red. masses --      4.8921                14.7651                22.2841
 Frc consts  --      0.0943                 0.4074                 0.8760
 IR Inten    --      0.0001                 0.0388                 0.1335

                      7                      8                      9
                      A                      A                      A
 Frequencies --    274.0769               328.6559               435.8931
 Red. masses --     17.5927                 6.6961                 8.5762
 Frc consts  --      0.7786                 0.4261                 0.9601
 IR Inten    --      0.9548                 1.2983                37.3756

                     10                     11                     12
                      A                      A                      A
 Frequencies --    460.4959               482.7805               612.0737
 Red. masses --      5.3862                12.9373                 6.2502
 Frc consts  --      0.6730                 1.7766                 1.3796
 IR Inten    --      0.0010                 0.0035                15.7445

                     13                     14                     15
                      A                      A                      A
 Frequencies --    632.8844               701.6988               735.1853
 Red. masses --      3.0358                10.2451                 9.7066
 Frc consts  --      0.7164                 2.9721                 3.0911
 IR Inten    --      0.3002               134.9153                 7.0394

                     16                     17                     18
                      A                      A                      A
 Frequencies --    814.8297               855.3406               871.8420
 Red. masses --      6.8401                 1.3184                 1.6326
 Frc consts  --      2.6758                 0.5683                 0.7312
 IR Inten    --    103.2198                 0.0280                71.2829

                     19                     20                     21
                      A                      A                      A
 Frequencies --    892.0290              1002.6817              1117.6671
 Red. masses --      7.9627                 2.8974                 4.2650
 Frc consts  --      3.7331                 1.7162                 3.1390
 IR Inten    --     69.7943               197.6049                62.2461

                     22                     23                     24
                      A                      A                      A
 Frequencies --   1235.1190              1298.6976              1376.7372
 Red. masses --      1.7524                 1.7009                 5.9342
 Frc consts  --      1.5751                 1.6902                 6.6269
 IR Inten    --      9.0991                 0.6974               171.9335

                     25                     26                     27
                      A                      A                      A
 Frequencies --   1478.6200              1494.4377              1524.1504
 Red. masses --      6.1301                10.4871                10.4010
 Frc consts  --      7.8965                13.7994                14.2357
 IR Inten    --      2.9173               568.3849               782.5344

                     28                     29                     30
                      A                      A                      A
 Frequencies --   1613.6697              3191.5179              3193.2043
 Red. masses --      8.1890                 1.0918                 1.0916
 Frc consts  --     12.5635                 6.5520                 6.5577
 IR Inten    --     31.4583                 2.6373                 6.6585

 - Thermochemistry -
 -------------------
 Temperature   298.150 Kelvin.  Pressure   1.00000 Atm.
 Atom     1 has atomic number 35 and mass  78.91834

 Molecular mass:   263.84215 amu.
 Principal axes and moments of inertia in atomic units:
                           1         2         3
     Eigenvalues --  1746.386054964.720706711.10497
           X            0.99444  -0.10159  -0.02760
           Y            0.10134   0.99480  -0.01029
           Z            0.02850   0.00744   0.99957
 This molecule is an asymmetric top.
 Rotational symmetry number  1.
 Warning -- assumption of classical behavior for rotation
           may cause significant error
 Rotational temperatures (Kelvin)      0.04960     0.01745     0.01291
 Rotational constants (GHZ):           1.03341     0.36351     0.26892
 Zero-point vibrational energy     165313.6 (Joules/Mol)
                                   39.51091 (Kcal/Mol)
 Warning -- explicit consideration of  12 degrees of freedom as
           vibrations may cause significant error
 Vibrational temperatures:    108.89   188.88   217.91   260.25   311.34
          (Kelvin)            371.64   394.34   472.86   627.15   662.55
                              694.61   880.64   910.58  1009.59  1057.77
                             1172.36  1230.64  1254.39  1283.43  1442.64
                             1608.07  1777.06  1868.54  1980.82  2127.40
                             2150.16  2192.91  2321.71  4591.88  4594.31

 Zero-point correction=                           0.062965 (Hartree/Particle)
 Thermal correction to Energy=                    0.071979
 Thermal correction to Enthalpy=                  0.072923
 Thermal correction to Gibbs Free Energy=         0.025666
 Sum of electronic and zero-point Energies=          -5528.752409
 Sum of electronic and thermal Energies=             -5528.743395
 Sum of electronic and thermal Enthalpies=           -5528.742451
 Sum of electronic and thermal Free Energies=        -5528.789708

                     E (Thermal)             CV                S
                      KCal/Mol        Cal/Mol-Kelvin    Cal/Mol-Kelvin
 Total                   45.167             31.699             99.461
 Electronic               0.000              0.000              1.377
 Translational            0.889              2.981             42.610
 Rotational               0.889              2.981             32.431
 Vibrational             43.390             25.738             23.042
 Vibration     1          0.599              1.965              4.000
 Vibration     2          0.612              1.922              2.927
 Vibration     3          0.619              1.901              2.654
 Vibration     4          0.630              1.866              2.319
 Vibration     5          0.645              1.816              1.989
 Vibration     6          0.667              1.749              1.673
 Vibration     7          0.676              1.721              1.570
 Vibration     8          0.712              1.618              1.267
 Vibration     9          0.796              1.392              0.840
 Vibration    10          0.818              1.338              0.765
 Vibration    11          0.839              1.288              0.703
 Vibration    12          0.971              1.006              0.429

 Optimization completed.
    -- Stationary point found.
 Normal termination of Gaussian 16 at Sat Feb 10 10:22:57 2024.
