 Gaussian 16, Revision A.03,
 Gaussian 16:  ES64L-G16RevA.03 25-Dec-2016

 --------------------------------------
 #P UB3LYP/6-311++G(d,p) nosym opt freq
 --------------------------------------

 --------
 Oxidized
 --------
 Symbolic Z-matrix:
 Charge =  0 Multiplicity = 1

 SCF Done:  E(UB3LYP) =  -989.886195808     A.U. after   17 cycles
 SCF Done:  E(UB3LYP) =  -989.927992157     A.U. after   14 cycles
 SCF Done:  E(UB3LYP) =  -989.952413156     A.U. after   14 cycles
 SCF Done:  E(UB3LYP) =  -989.957641742     A.U. after   14 cycles
 SCF Done:  E(UB3LYP) =  -989.958006319     A.U. after   13 cycles
 SCF Done:  E(UB3LYP) =  -989.958597800     A.U. after   12 cycles
 SCF Done:  E(UB3LYP) =  -989.958539194     A.U. after   11 cycles
 SCF Done:  E(UB3LYP) =  -989.958542319     A.U. after   10 cycles
 SCF Done:  E(UB3LYP) =  -989.958543377     A.U. after   10 cycles
 Optimization completed.
    -- Stationary point found.
 Normal termination of Gaussian 16 at Thu Dec 21 20:07:17 2023.

 ----------------------------------------------------------------------
 #P Geom=AllCheck Guess=TCheck SCRF=Check GenChk UB3LYP/6-311++G(d,p) F
 req
 ----------------------------------------------------------------------

 Structure from the checkpoint file:  "204.chk"
 --------
 Oxidized
 --------
 Charge =  0 Multiplicity = 1

                          Input orientation:
 ---------------------------------------------------------------------
 Center     Atomic      Atomic             Coordinates (Angstroms)
 Number     Number       Type             X           Y           Z
 ---------------------------------------------------------------------
      1          8           0        4.877922   -0.865638    0.020822
      2          6           0        3.669345   -0.256830    0.058965
      3          6           0        3.580890    1.126654    0.125740
      4          6           0        2.334408    1.751134    0.164943
      5          6           0        1.162902    1.003516    0.138100
      6          6           0       -0.148263    1.709508    0.181716
      7          8           0       -0.186992    2.927519    0.240129
      8          6           0       -1.383786    0.869914    0.151194
      9          6           0       -2.657391    1.452345    0.188633
     10          8           0       -2.802638    2.798739    0.253802
     11          6           0       -3.801295    0.628676    0.158171
     12          6           0       -3.706425   -0.740343    0.092312
     13          6           0       -2.445902   -1.358143    0.053272
     14          8           0       -2.427048   -2.696966   -0.010591
     15          6           0       -1.282831   -0.556016    0.082510
     16          6           0        0.023371   -1.211644    0.041136
     17          8           0        0.107750   -2.469028   -0.019212
     18          6           0        1.236230   -0.406744    0.070214
     19          6           0        2.494554   -1.033710    0.030642
     20          8           0        2.677182   -2.369103   -0.034652
     21          1           0        4.736152   -1.822204   -0.023585
     22          1           0        4.497577    1.703816    0.146431
     23          1           0        2.256861    2.829278    0.217005
     24          1           0       -3.741737    3.015100    0.270995
     25          1           0       -4.781798    1.095948    0.187906
     26          1           0       -4.589145   -1.367078    0.069229
     27          1           0       -1.481443   -2.975561   -0.031118
     28          1           0        1.781550   -2.783141   -0.047855
 ---------------------------------------------------------------------

 SCF Done:  E(UB3LYP) =  -989.958543377     A.U. after    1 cycles

 Alpha  occ. eigenvalues --  -19.17754 -19.17659 -19.17567 -19.16551 -19.15354
 Alpha  occ. eigenvalues --  -19.11352 -10.30024 -10.27370 -10.27283 -10.27189
 Alpha  occ. eigenvalues --  -10.27094 -10.26237 -10.21960 -10.21776 -10.21664
 Alpha  occ. eigenvalues --  -10.21497 -10.20995 -10.20467 -10.20134 -10.19615
 Alpha  occ. eigenvalues --   -1.11069  -1.09672  -1.09468  -1.08038  -1.06295
 Alpha  occ. eigenvalues --   -1.04929  -0.89794  -0.88262  -0.82367  -0.78534
 Alpha  occ. eigenvalues --   -0.77602  -0.77029  -0.70563  -0.68444  -0.68064
 Alpha  occ. eigenvalues --   -0.63800  -0.62809  -0.59719  -0.58627  -0.56770
 Alpha  occ. eigenvalues --   -0.55945  -0.53235  -0.52711  -0.51290  -0.49864
 Alpha  occ. eigenvalues --   -0.48546  -0.48003  -0.47057  -0.46735  -0.45805
 Alpha  occ. eigenvalues --   -0.44265  -0.43701  -0.43634  -0.42723  -0.42100
 Alpha  occ. eigenvalues --   -0.41887  -0.40675  -0.40326  -0.39320  -0.38934
 Alpha  occ. eigenvalues --   -0.38715  -0.38378  -0.34944  -0.33979  -0.30526
 Alpha  occ. eigenvalues --   -0.30027  -0.27587  -0.26276  -0.24381  -0.23761
 Alpha virt. eigenvalues --   -0.12373  -0.06589  -0.04355  -0.02330  -0.01284
 Alpha virt. eigenvalues --   -0.01067   0.00243   0.00815   0.01032   0.02686
 Alpha virt. eigenvalues --    0.03070   0.03502   0.04123   0.04236   0.04482

  Beta  occ. eigenvalues --  -19.17754 -19.17659 -19.17567 -19.16551 -19.15354
  Beta  occ. eigenvalues --  -19.11352 -10.30024 -10.27370 -10.27283 -10.27189
  Beta  occ. eigenvalues --  -10.27094 -10.26237 -10.21960 -10.21776 -10.21664
  Beta  occ. eigenvalues --  -10.21497 -10.20995 -10.20467 -10.20134 -10.19615
  Beta  occ. eigenvalues --   -1.11069  -1.09672  -1.09468  -1.08038  -1.06295
  Beta  occ. eigenvalues --   -1.04929  -0.89794  -0.88262  -0.82367  -0.78534
  Beta  occ. eigenvalues --   -0.77602  -0.77029  -0.70563  -0.68444  -0.68064
  Beta  occ. eigenvalues --   -0.63800  -0.62809  -0.59719  -0.58627  -0.56770
  Beta  occ. eigenvalues --   -0.55945  -0.53235  -0.52711  -0.51290  -0.49864
  Beta  occ. eigenvalues --   -0.48546  -0.48003  -0.47057  -0.46735  -0.45805
  Beta  occ. eigenvalues --   -0.44265  -0.43701  -0.43634  -0.42723  -0.42100
  Beta  occ. eigenvalues --   -0.41887  -0.40675  -0.40326  -0.39320  -0.38934
  Beta  occ. eigenvalues --   -0.38715  -0.38378  -0.34944  -0.33979  -0.30526
  Beta  occ. eigenvalues --   -0.30027  -0.27587  -0.26276  -0.24381  -0.23761
  Beta virt. eigenvalues --   -0.12373  -0.06589  -0.04355  -0.02330  -0.01284
  Beta virt. eigenvalues --   -0.01067   0.00243   0.00815   0.01032   0.02686
  Beta virt. eigenvalues --    0.03070   0.03502   0.04123   0.04236   0.04482

 Mulliken charges and spin densities:
               1          2
     1  O   -0.234876   0.000000
     2  C   -0.344962  -0.000000
     3  C    0.088393   0.000000
     4  C    0.054283  -0.000000
     5  C    0.319318  -0.000000
     6  C   -0.572410  -0.000000
     7  O   -0.213808   0.000000
     8  C    0.194435   0.000000
     9  C   -0.154354   0.000000
    10  O   -0.158884  -0.000000
    11  C   -0.165775  -0.000000
    12  C   -0.056884  -0.000000
    13  C   -0.228925   0.000000
    14  O   -0.297494  -0.000000
    15  C    0.589212  -0.000000
    16  C   -0.514418  -0.000000
    17  O   -0.388434   0.000000
    18  C    0.482346  -0.000000
    19  C   -0.073669  -0.000000
    20  O   -0.381398   0.000000
    21  H    0.294061  -0.000000
    22  H    0.213986   0.000000
    23  H    0.186313  -0.000000
    24  H    0.262477   0.000000
    25  H    0.146271   0.000000
    26  H    0.205479   0.000000
    27  H    0.364750  -0.000000
    28  H    0.384966  -0.000000
 Sum of Mulliken charges =  -0.00000  -0.00000

 Dipole moment (field-independent basis, Debye):
    X=             -2.7184    Y=             -0.5489    Z=             -0.0062  Tot=              2.7733
 Quadrupole moment (field-independent basis, Debye-Ang):
   XX=            -93.7437   YY=           -122.3602   ZZ=           -115.6063
   XY=             -8.2233   XZ=             -0.8246   YZ=             -0.3132

  Exact polarizability: 311.765  -7.826 214.998  -2.093   6.187  86.721
 Approx polarizability: 488.143 -16.224 416.338  -3.433  13.306 140.459

                      1                      2                      3
                      A                      A                      A
 Frequencies --     31.9297                61.6361                96.2117
 Red. masses --      8.0950                 7.4054                 8.4835
 Frc consts  --      0.0049                 0.0166                 0.0463
 IR Inten    --      4.3492                 0.0021                 1.3157

                      4                      5                      6
                      A                      A                      A
 Frequencies --    124.5685               148.3565               183.0067
 Red. masses --      7.9074                 9.3076                 7.0093
 Frc consts  --      0.0723                 0.1207                 0.1383
 IR Inten    --      0.7107                 0.7160                 0.5713

                      7                      8                      9
                      A                      A                      A
 Frequencies --    188.0660               255.0608               273.2226
 Red. masses --      6.3574                 4.9960                 7.6248
 Frc consts  --      0.1325                 0.1915                 0.3354
 IR Inten    --      0.8160                 4.8576                 4.5447

                     10                     11                     12
                      A                      A                      A
 Frequencies --    312.0518               312.4925               333.9475
 Red. masses --      7.5336                 1.3838                 3.7138
 Frc consts  --      0.4322                 0.0796                 0.2440
 IR Inten    --      1.2122                73.3352                 7.7509

                     13                     14                     15
                      A                      A                      A
 Frequencies --    348.2131               362.4824               364.2260
 Red. masses --      5.5571                 5.1533                11.8398
 Frc consts  --      0.3970                 0.3989                 0.9254
 IR Inten    --      2.6448                 5.9476                 5.8844

                     16                     17                     18
                      A                      A                      A
 Frequencies --    416.0153               443.9224               453.3559
 Red. masses --      6.4196                 3.0336                10.9187
 Frc consts  --      0.6546                 0.3522                 1.3222
 IR Inten    --     12.9048                33.7010                 2.9157

                     19                     20                     21
                      A                      A                      A
 Frequencies --    455.0437               462.9541               472.6661
 Red. masses --      1.5219                10.1687                 8.0171
 Frc consts  --      0.1857                 1.2841                 1.0553
 IR Inten    --     92.6314                28.5964                 3.2380

                     22                     23                     24
                      A                      A                      A
 Frequencies --    485.6710               493.1123               520.9295
 Red. masses --      7.7882                 3.5464                 6.6774
 Frc consts  --      1.0824                 0.5081                 1.0676
 IR Inten    --      1.9134                 8.6933                 1.9684

                     25                     26                     27
                      A                      A                      A
 Frequencies --    561.7217               586.7151               591.2121
 Red. masses --      4.9113                 3.8027                 5.9722
 Frc consts  --      0.9130                 0.7713                 1.2299
 IR Inten    --      2.2405                13.9486                 6.8954

                     28                     29                     30
                      A                      A                      A
 Frequencies --    635.8659               676.0698               700.8945
 Red. masses --      5.9989                 6.3759                 8.3323
 Frc consts  --      1.4291                 1.7170                 2.4117
 IR Inten    --     27.4998                 6.1104                 2.2606

                     31                     32                     33
                      A                      A                      A
 Frequencies --    710.4246               743.4795               743.6890
 Red. masses --      6.6272                 7.2419                 1.0817
 Frc consts  --      1.9707                 2.3585                 0.3525
 IR Inten    --      0.9882                14.1206                53.2581

                     34                     35                     36
                      A                      A                      A
 Frequencies --    754.9866               771.1389               783.0604
 Red. masses --      6.2742                 2.3252                 1.5759
 Frc consts  --      2.1071                 0.8146                 0.5693
 IR Inten    --      0.2132                16.8235               116.4167

                     37                     38                     39
                      A                      A                      A
 Frequencies --    817.4513               835.8684               864.1940
 Red. masses --      8.8139                 1.6295                 1.5170
 Frc consts  --      3.4701                 0.6708                 0.6675
 IR Inten    --     83.5692                31.9351                16.3136

                     40                     41                     42
                      A                      A                      A
 Frequencies --    864.5955               942.9509               950.0206
 Red. masses --      8.3932                 6.4418                 1.2911
 Frc consts  --      3.6966                 3.3747                 0.6866
 IR Inten    --      7.4466                51.6815                 0.1754

                     43                     44                     45
                      A                      A                      A
 Frequencies --    980.3459               985.3037              1042.2541
 Red. masses --      1.3102                 6.9791                 3.1354
 Frc consts  --      0.7419                 3.9920                 2.0067
 IR Inten    --      0.0597                 7.8599                22.4131

                     46                     47                     48
                      A                      A                      A
 Frequencies --   1107.3254              1168.6887              1186.0441
 Red. masses --      2.4163                 1.6939                 1.3363
 Frc consts  --      1.7456                 1.3631                 1.1075
 IR Inten    --     79.3877                 3.0385               148.0170

                     49                     50                     51
                      A                      A                      A
 Frequencies --   1203.5397              1234.6473              1236.8834
 Red. masses --      1.5886                 1.6728                 2.1371
 Frc consts  --      1.3557                 1.5024                 1.9263
 IR Inten    --    104.7565                68.3876               100.6664

                     52                     53                     54
                      A                      A                      A
 Frequencies --   1275.8112              1301.3248              1306.3685
 Red. masses --      4.9615                 3.0283                 3.7756
 Frc consts  --      4.7581                 3.0215                 3.7963
 IR Inten    --    682.3411               332.5856               238.2618

                     55                     56                     57
                      A                      A                      A
 Frequencies --   1318.4072              1339.9679              1348.1224
 Red. masses --      3.9980                 2.6007                 2.6699
 Frc consts  --      4.0944                 2.7512                 2.8589
 IR Inten    --    377.4875                 0.2855               125.9443

                     58                     59                     60
                      A                      A                      A
 Frequencies --   1402.4594              1411.7873              1428.7302
 Red. masses --      4.2579                 4.3171                 2.8387
 Frc consts  --      4.9343                 5.0697                 3.4141
 IR Inten    --      5.2301               115.4145                 6.1716

                     61                     62                     63
                      A                      A                      A
 Frequencies --   1468.5067              1479.9883              1495.2567
 Red. masses --      3.9655                 3.2456                 2.6566
 Frc consts  --      5.0384                 4.1885                 3.4996
 IR Inten    --    169.2606               163.4698               500.4740

                     64                     65                     66
                      A                      A                      A
 Frequencies --   1517.1858              1601.4354              1615.8054
 Red. masses --      3.8859                 5.0212                 4.3194
 Frc consts  --      5.2701                 7.5871                 6.6444
 IR Inten    --     17.8661                29.2429                17.1430

                     67                     68                     69
                      A                      A                      A
 Frequencies --   1629.3421              1639.5537              1659.8519
 Red. masses --      4.1726                 6.0343                 7.6332
 Frc consts  --      6.5266                 9.5572                12.3907
 IR Inten    --     80.8953                38.9702               272.3978

                     70                     71                     72
                      A                      A                      A
 Frequencies --   1719.7627              3150.0635              3190.5704
 Red. masses --     11.1623                 1.0898                 1.0898
 Frc consts  --     19.4510                 6.3717                 6.5362
 IR Inten    --    136.7452                13.6560                 3.2102

                     73                     74                     75
                      A                      A                      A
 Frequencies --   3200.9519              3209.3381              3348.7253
 Red. masses --      1.0935                 1.0931                 1.0662
 Frc consts  --      6.6012                 6.6335                 7.0443
 IR Inten    --      1.4492                 1.9718               426.6599

                     76                     77                     78
                      A                      A                      A
 Frequencies --   3380.8753              3760.9464              3813.7163
 Red. masses --      1.0682                 1.0653                 1.0661
 Frc consts  --      7.1940                 8.8783                 9.1357
 IR Inten    --     53.8692               125.6074                90.9550

 - Thermochemistry -
 -------------------
 Temperature   298.150 Kelvin.  Pressure   1.00000 Atm.
 Atom     1 has atomic number  8 and mass  15.99491

 Molecular mass:   272.03209 amu.
 Principal axes and moments of inertia in atomic units:
                           1         2         3
     Eigenvalues --  2869.943746703.082719573.02639
           X            0.98902   0.14759   0.00763
           Y           -0.14707   0.98798  -0.04760
           Z           -0.01457   0.04596   0.99884
 This molecule is an asymmetric top.
 Rotational symmetry number  1.
 Warning -- assumption of classical behavior for rotation
           may cause significant error
 Rotational temperatures (Kelvin)      0.03018     0.01292     0.00905
 Rotational constants (GHZ):           0.62884     0.26924     0.18852
 Zero-point vibrational energy     516149.0 (Joules/Mol)
                                  123.36256 (Kcal/Mol)
 Warning -- explicit consideration of  27 degrees of freedom as
           vibrations may cause significant error
 Vibrational temperatures:     45.94    88.68   138.43   179.23   213.45
          (Kelvin)            263.31   270.59   366.98   393.11   448.97
                              449.61   480.48   501.00   521.53   524.04
                              598.55   638.71   652.28   654.71   666.09
                              680.06   698.77   709.48   749.50   808.19
                              844.15   850.62   914.87   972.71  1008.43
                             1022.14  1069.70  1070.00  1086.26  1109.50
                             1126.65  1176.13  1202.63  1243.38  1243.96
                             1356.70  1366.87  1410.50  1417.63  1499.57
                             1593.19  1681.48  1706.45  1731.63  1776.38
                             1779.60  1835.61  1872.32  1879.57  1896.89
                             1927.91  1939.65  2017.83  2031.25  2055.62
                             2112.85  2129.37  2151.34  2182.89  2304.11
                             2324.78  2344.26  2358.95  2388.16  2474.35
                             4532.24  4590.52  4605.46  4617.52  4818.07
                             4864.33  5411.16  5487.09

 Zero-point correction=                           0.196591 (Hartree/Particle)
 Thermal correction to Energy=                    0.211936
 Thermal correction to Enthalpy=                  0.212880
 Thermal correction to Gibbs Free Energy=         0.154295
 Sum of electronic and zero-point Energies=           -989.761953
 Sum of electronic and thermal Energies=              -989.746607
 Sum of electronic and thermal Enthalpies=            -989.745663
 Sum of electronic and thermal Free Energies=         -989.804249

                     E (Thermal)             CV                S
                      KCal/Mol        Cal/Mol-Kelvin    Cal/Mol-Kelvin
 Total                  132.992             62.021            123.303
 Electronic               0.000              0.000              0.000
 Translational            0.889              2.981             42.701
 Rotational               0.889              2.981             33.576
 Vibrational            131.214             56.059             47.026
 Vibration     1          0.594              1.983              5.706
 Vibration     2          0.597              1.973              4.404
 Vibration     3          0.603              1.952              3.530
 Vibration     4          0.610              1.928              3.028
 Vibration     5          0.618              1.904              2.693
 Vibration     6          0.631              1.863              2.298
 Vibration     7          0.633              1.856              2.247
 Vibration     8          0.665              1.754              1.695
 Vibration     9          0.676              1.723              1.576
 Vibration    10          0.700              1.651              1.351
 Vibration    11          0.701              1.650              1.349
 Vibration    12          0.715              1.608              1.241
 Vibration    13          0.726              1.579              1.174
 Vibration    14          0.736              1.550              1.111
 Vibration    15          0.738              1.546              1.104
 Vibration    16          0.779              1.435              0.906
 Vibration    17          0.803              1.374              0.814
 Vibration    18          0.812              1.353              0.786
 Vibration    19          0.813              1.350              0.781
 Vibration    20          0.821              1.332              0.758
 Vibration    21          0.830              1.311              0.730
 Vibration    22          0.842              1.282              0.695
 Vibration    23          0.849              1.265              0.676
 Vibration    24          0.876              1.204              0.608
 Vibration    25          0.917              1.114              0.520
 Vibration    26          0.944              1.060              0.473
 Vibration    27          0.949              1.051              0.465

 Optimization completed.
    -- Stationary point found.
 Normal termination of Gaussian 16 at Thu Dec 21 21:42:50 2023.
