 Gaussian 16, Revision A.03,
 Gaussian 16:  ES64L-G16RevA.03 25-Dec-2016

 ----------------------------------------------------------------
 #P UB3LYP/6-311++G(d,p) SCRF=(PCM,Solvent=n,n-DiMethylFormamide)
 ----------------------------------------------------------------

 ------------------
 Quinone PCM in DMF
 ------------------
 Symbolic Z-matrix:
 Charge =  0 Multiplicity = 1

                         Standard orientation:
 ---------------------------------------------------------------------
 Center     Atomic      Atomic             Coordinates (Angstroms)
 Number     Number       Type             X           Y           Z
 ---------------------------------------------------------------------
      1          6           0        3.927373    0.426052    0.548904
      2          6           0        4.679122   -0.742081    0.629480
      3          6           0        4.089900   -1.972732    0.333904
      4          6           0        2.583830    0.360144    0.172096
      5          6           0        1.988251   -0.876413   -0.126056
      6          6           0        2.749818   -2.040719   -0.042920
      7          6           0        1.773951    1.588560    0.081465
      8          6           0        0.343282    1.462017   -0.319787
      9          6           0       -0.251228    0.281473   -0.621726
     10          6           0        0.544080   -0.961222   -0.533922
     11          8           0        2.203406    2.712607    0.316295
     12          8           0        0.043237   -2.047072   -0.791311
     13          1           0        4.362259    1.392445    0.772811
     14          1           0        5.721752   -0.695471    0.921799
     15          1           0        4.677260   -2.881748    0.397331
     16          1           0        2.277314   -2.986856   -0.275853
     17          6           0       -1.699245    0.183261   -1.011596
     18          8           0       -0.314763    2.631910   -0.365236
     19          1           0       -1.809682   -0.632013   -1.730909
     20          1           0       -2.002468    1.112764   -1.500152
     21          1           0        0.336185    3.317578   -0.122329
     22          6           0       -2.626000   -0.085355    0.193803
     23          6           0       -4.099379   -0.195030   -0.211115
     24          6           0       -5.037535   -0.460358    0.971849
     25          6           0       -6.509361   -0.569542    0.562688
     26          1           0       -2.505373    0.721012    0.926129
     27          1           0       -2.311130   -1.011820    0.685584
     28          1           0       -4.212584   -0.999020   -0.949604
     29          1           0       -4.407373    0.729866   -0.716005
     30          1           0       -4.922541    0.342313    1.710423
     31          1           0       -4.729077   -1.384235    1.475809
     32          1           0       -6.857150    0.352662    0.086386
     33          1           0       -7.151330   -0.758689    1.427559
     34          1           0       -6.662249   -1.386704   -0.149355
 ---------------------------------------------------------------------

 SCF Done:  E(UB3LYP) =  -807.155169389     A.U. after   15 cycles

 The electronic state is 1-A.
 Alpha  occ. eigenvalues --  -19.18064 -19.15139 -19.13088 -10.29526 -10.28237
 Alpha  occ. eigenvalues --  -10.26901 -10.21294 -10.21164 -10.20558 -10.20357
 Alpha  occ. eigenvalues --  -10.20186 -10.20017 -10.19976 -10.17816 -10.16914
 Alpha  occ. eigenvalues --  -10.16346 -10.16296 -10.15604  -1.11066  -1.06917
 Alpha  occ. eigenvalues --   -1.06443  -0.89489  -0.84613  -0.80765  -0.78559
 Alpha  occ. eigenvalues --   -0.78202  -0.75000  -0.70723  -0.68114  -0.65693
 Alpha  occ. eigenvalues --   -0.63513  -0.60831  -0.59939  -0.57911  -0.57596
 Alpha  occ. eigenvalues --   -0.54466  -0.52093  -0.49994  -0.48237  -0.47638
 Alpha  occ. eigenvalues --   -0.47283  -0.46920  -0.45540  -0.45283  -0.44131
 Alpha  occ. eigenvalues --   -0.42958  -0.42754  -0.41832  -0.41550  -0.40462
 Alpha  occ. eigenvalues --   -0.40073  -0.38631  -0.37936  -0.37606  -0.37287
 Alpha  occ. eigenvalues --   -0.36210  -0.34052  -0.33358  -0.32957  -0.32477
 Alpha  occ. eigenvalues --   -0.30493  -0.29189  -0.28238  -0.28067  -0.25868
 Alpha virt. eigenvalues --   -0.12747  -0.05824  -0.02784  -0.00969  -0.00117
 Alpha virt. eigenvalues --    0.00313   0.01073   0.01207   0.01900   0.02178
 Alpha virt. eigenvalues --    0.02528   0.02991   0.03416   0.03864   0.04527

  Beta  occ. eigenvalues --  -19.18064 -19.15139 -19.13088 -10.29526 -10.28237
  Beta  occ. eigenvalues --  -10.26901 -10.21294 -10.21164 -10.20558 -10.20357
  Beta  occ. eigenvalues --  -10.20186 -10.20017 -10.19976 -10.17816 -10.16914
  Beta  occ. eigenvalues --  -10.16346 -10.16296 -10.15604  -1.11066  -1.06917
  Beta  occ. eigenvalues --   -1.06443  -0.89489  -0.84613  -0.80765  -0.78559
  Beta  occ. eigenvalues --   -0.78202  -0.75000  -0.70723  -0.68114  -0.65693
  Beta  occ. eigenvalues --   -0.63513  -0.60831  -0.59939  -0.57911  -0.57596
  Beta  occ. eigenvalues --   -0.54466  -0.52093  -0.49994  -0.48237  -0.47638
  Beta  occ. eigenvalues --   -0.47283  -0.46920  -0.45540  -0.45283  -0.44131
  Beta  occ. eigenvalues --   -0.42958  -0.42754  -0.41832  -0.41550  -0.40462
  Beta  occ. eigenvalues --   -0.40073  -0.38631  -0.37936  -0.37606  -0.37287
  Beta  occ. eigenvalues --   -0.36210  -0.34052  -0.33358  -0.32957  -0.32477
  Beta  occ. eigenvalues --   -0.30493  -0.29189  -0.28238  -0.28067  -0.25868
  Beta virt. eigenvalues --   -0.12747  -0.05824  -0.02784  -0.00969  -0.00117
  Beta virt. eigenvalues --    0.00313   0.01073   0.01207   0.01900   0.02178
  Beta virt. eigenvalues --    0.02528   0.02991   0.03416   0.03864   0.04527

 Mulliken charges and spin densities:
               1          2
     1  C    0.260810   0.000000
     2  C   -0.397819  -0.000000
     3  C   -0.379298  -0.000000
     4  C    0.295561  -0.000000
     5  C    0.040689  -0.000000
     6  C    0.198030   0.000000
     7  C   -0.708389  -0.000000
     8  C   -0.472857   0.000000
     9  C    1.847805   0.000000
    10  C   -0.841580  -0.000000
    11  O   -0.312431   0.000000
    12  O   -0.276161   0.000000
    13  H    0.192393  -0.000000
    14  H    0.210685   0.000000
    15  H    0.207855  -0.000000
    16  H    0.189845   0.000000
    17  C   -0.343833  -0.000000
    18  O   -0.222253  -0.000000
    19  H    0.213531   0.000000
    20  H    0.226150   0.000000
    21  H    0.307744   0.000000
    22  C   -0.466750   0.000000
    23  C   -0.181036   0.000000
    24  C   -0.177613  -0.000000
    25  C   -0.663232   0.000000
    26  H    0.164683  -0.000000
    27  H    0.166361  -0.000000
    28  H    0.115538  -0.000000
    29  H    0.114377  -0.000000
    30  H    0.131924  -0.000000
    31  H    0.131829   0.000000
    32  H    0.141203   0.000000
    33  H    0.144808   0.000000
    34  H    0.141429   0.000000
 Sum of Mulliken charges =  -0.00000  -0.00000

 Dipole moment (field-independent basis, Debye):
    X=              2.8310    Y=             -0.0906    Z=              1.0091  Tot=              3.0069
 Quadrupole moment (field-independent basis, Debye-Ang):
   XX=            -89.8904   YY=           -112.4368   ZZ=           -109.3644
   XY=             -9.5860   XZ=              1.9097   YZ=             -2.9843

 Normal termination of Gaussian 16 at Sun Jan 21 08:15:17 2024.
