 Q-Chem 5.4, Q-Chem, Inc., Pleasanton, CA (2021)
 Q-Chem 5.4.0 for Intel X86 EM64T Linux

User input:
--------------------------------------------------------------
$molecule
-2 1
O                  2.3669070000      1.6243180000      0.3532210000
C                  1.7303830000      0.4891290000      0.2283820000
C                  2.3940850000     -0.7552030000      0.2553720000
C                  1.6902010000     -1.9705380000      0.1191950000
C                  0.3177570000     -1.9946780000     -0.0467830000
C                 -0.4222360000     -0.7830580000     -0.0842000000
C                 -1.8860130000     -0.8415680000     -0.2621610000
O                 -2.5091220000     -1.9632010000     -0.3847390000
C                 -2.5267900000      0.4218520000     -0.2852700000
C                 -1.8305720000      1.6457560000     -0.1496200000
C                 -0.4600950000      1.6889950000      0.0165590000
O                  0.1950980000      2.9033530000      0.1468160000
C                  0.2756940000      0.4641640000      0.0525670000
H                  1.1641200000      2.6256710000      0.2508950000
H                  3.4747680000     -0.7438720000      0.3857050000
H                  2.2471000000     -2.9094830000      0.1462550000
H                 -0.2382120000     -2.9195560000     -0.1527740000
H                 -3.6085500000      0.4278670000     -0.4147480000
H                 -2.3745200000      2.5900530000     -0.1746730000
$end
$rem
MAX_SCF_CYCLES=200
BASIS  =  6-311++G(d,p)
GUI  =  2
JOB_TYPE  =  SP
METHOD  =  B3LYP
SOLVENT_METHOD = PCM
$end
$pcm
theory = CPCM
$end
$solvent
dielectric 37.219
opticaldielectric 1.43
$end

--------------------------------------------------------------

             Standard Nuclear Orientation (Angstroms)
    I     Atom           X                Y                Z
 ----------------------------------------------------------------
    1      O       2.3669070000     1.6243180000     0.3532210000
    2      C       1.7303830000     0.4891290000     0.2283820000
    3      C       2.3940850000    -0.7552030000     0.2553720000
    4      C       1.6902010000    -1.9705380000     0.1191950000
    5      C       0.3177570000    -1.9946780000    -0.0467830000
    6      C      -0.4222360000    -0.7830580000    -0.0842000000
    7      C      -1.8860130000    -0.8415680000    -0.2621610000
    8      O      -2.5091220000    -1.9632010000    -0.3847390000
    9      C      -2.5267900000     0.4218520000    -0.2852700000
   10      C      -1.8305720000     1.6457560000    -0.1496200000
   11      C      -0.4600950000     1.6889950000     0.0165590000
   12      O       0.1950980000     2.9033530000     0.1468160000
   13      C       0.2756940000     0.4641640000     0.0525670000
   14      H       1.1641200000     2.6256710000     0.2508950000
   15      H       3.4747680000    -0.7438720000     0.3857050000
   16      H       2.2471000000    -2.9094830000     0.1462550000
   17      H      -0.2382120000    -2.9195560000    -0.1527740000
   18      H      -3.6085500000     0.4278670000    -0.4147480000
   19      H      -2.3745200000     2.5900530000    -0.1746730000
 ----------------------------------------------------------------

    9    -610.7936095354      3.68e-06  Convergence criterion met
 Total energy in the final basis set =     -610.7936095354

                    Orbital Energies (a.u.)
 --------------------------------------------------------------

 Alpha MOs
 -- Occupied --
-19.0984 -19.0499 -19.0266 -10.1991 -10.1884 -10.1828 -10.1481 -10.1469
-10.1437 -10.1370 -10.1312 -10.1300 -10.1258  -1.0105  -0.9563  -0.9417
 -0.8175  -0.7744  -0.7069  -0.7000  -0.6564  -0.5912  -0.5768  -0.5312
 -0.4911  -0.4725  -0.4606  -0.4413  -0.4084  -0.3925  -0.3914  -0.3870
 -0.3706  -0.3569  -0.3533  -0.3425  -0.3414  -0.3216  -0.3117  -0.2868
 -0.2550  -0.2267  -0.2204  -0.2023  -0.1846  -0.1326

          Ground-State Mulliken Net Atomic Charges

     Atom                 Charge (a.u.)
  ----------------------------------------
      1 O                    -0.667987
      2 C                    -0.273254
      3 C                    -0.320016
      4 C                    -0.368928
      5 C                    -0.218049
      6 C                     0.366353
      7 C                    -0.435914
      8 O                    -0.711908
      9 C                    -0.131169
     10 C                    -0.140199
     11 C                    -0.259694
     12 O                    -0.500854
     13 C                     0.523268
     14 H                     0.360732
     15 H                     0.154818
     16 H                     0.171738
     17 H                     0.137018
     18 H                     0.146105
     19 H                     0.167940
  ----------------------------------------
  Sum of atomic charges =    -2.000000

                    Cartesian Multipole Moments
 -----------------------------------------------------------------
    Charge (ESU x 10^10)
                -9.6064
    Dipole Moment (Debye)
         X       3.0641      Y      -0.4850      Z       0.3463
       Tot       3.1215
    Quadrupole Moments (Debye-Ang)
        XX    -126.1359     XY     -26.2809     YY    -120.0410
        XZ      -5.8979     YZ      -4.6055     ZZ     -87.1214

 Total job time:  28.53s(wall), 159.35s(cpu)
        *  Thank you very much for using Q-Chem.  Have a nice day.  *
