 Gaussian 16, Revision A.03,
 Gaussian 16:  ES64L-G16RevA.03 25-Dec-2016

 ----------------------------------------------------------------
 #P UB3LYP/6-311++G(d,p) SCRF=(PCM,Solvent=n,n-DiMethylFormamide)
 ----------------------------------------------------------------

 ------------------
 Radical PCM in DMF
 ------------------
 Symbolic Z-matrix:
 Charge = -1 Multiplicity = 2

                         Standard orientation:
 ---------------------------------------------------------------------
 Center     Atomic      Atomic             Coordinates (Angstroms)
 Number     Number       Type             X           Y           Z
 ---------------------------------------------------------------------
      1         35           0       -1.664349   -2.048112    0.000202
      2          6           0       -0.714971   -0.378217   -0.000025
      3          6           0       -1.410332    0.816575   -0.000029
      4         35           0       -3.327000    0.883249   -0.000131
      5          6           0       -0.758241    2.115236    0.000061
      6          8           0       -1.375956    3.185333    0.000007
      7          6           0        0.759184    2.114897    0.000064
      8          8           0        1.377349    3.184762    0.000195
      9          6           0        1.410948    0.816017    0.000018
     10          6           0        0.714882   -0.378469   -0.000031
     11         35           0        1.663277   -2.049125   -0.000153
     12         35           0        3.327501    0.882645    0.000025
 ---------------------------------------------------------------------

 SCF Done:  E(UB3LYP) =  -10675.8796076     A.U. after   18 cycles

 The electronic state is 2-A.
 Alpha  occ. eigenvalues -- -482.84258-482.84257-482.83405-482.83404 -62.49532
 Alpha  occ. eigenvalues --  -62.49531 -62.48677 -62.48675 -56.31583 -56.31582
 Alpha  occ. eigenvalues --  -56.31190 -56.31189 -56.31147 -56.31146 -56.30717
 Alpha  occ. eigenvalues --  -56.30715 -56.30340 -56.30338 -56.30299 -56.30297
 Alpha  occ. eigenvalues --  -19.10202 -19.10200 -10.25764 -10.25723 -10.24961
 Alpha  occ. eigenvalues --  -10.24937 -10.23733 -10.23731  -8.70503  -8.70502
 Alpha  occ. eigenvalues --   -8.69644  -8.69642  -6.53682  -6.53681  -6.52791
 Alpha  occ. eigenvalues --   -6.52789  -6.52371  -6.52370  -6.52263  -6.52262
 Alpha  occ. eigenvalues --   -6.51533  -6.51531  -6.51419  -6.51417  -2.64768
 Alpha  occ. eigenvalues --   -2.64766  -2.64413  -2.64411  -2.64333  -2.64332
 Alpha  occ. eigenvalues --   -2.63884  -2.63882  -2.63543  -2.63542  -2.63458
 Alpha  occ. eigenvalues --   -2.63457  -2.63286  -2.63286  -2.63285  -2.63285
 Alpha  occ. eigenvalues --   -2.62455  -2.62454  -2.62453  -2.62452  -1.04714
 Alpha  occ. eigenvalues --   -1.01911  -0.89856  -0.84070  -0.81265  -0.79202
 Alpha  occ. eigenvalues --   -0.77802  -0.70756  -0.69705  -0.58895  -0.58715
 Alpha  occ. eigenvalues --   -0.52545  -0.47844  -0.45030  -0.44652  -0.43014
 Alpha  occ. eigenvalues --   -0.41944  -0.40285  -0.39280  -0.38843  -0.38646
 Alpha  occ. eigenvalues --   -0.33745  -0.32939  -0.31674  -0.31344  -0.30711
 Alpha  occ. eigenvalues --   -0.28993  -0.28952  -0.28782  -0.26208  -0.24994
 Alpha  occ. eigenvalues --   -0.23774  -0.18750
 Alpha virt. eigenvalues --   -0.06904  -0.01940  -0.01861  -0.01629   0.00061
 Alpha virt. eigenvalues --    0.00205   0.00838   0.02356   0.02903   0.03776
 Alpha virt. eigenvalues --    0.04607   0.04998   0.05150   0.05829   0.05912

  Beta  occ. eigenvalues -- -482.84254-482.84254-482.83404-482.83402 -62.49529
  Beta  occ. eigenvalues --  -62.49529 -62.48676 -62.48674 -56.31583 -56.31582
  Beta  occ. eigenvalues --  -56.31179 -56.31178 -56.31146 -56.31145 -56.30717
  Beta  occ. eigenvalues --  -56.30716 -56.30334 -56.30332 -56.30298 -56.30297
  Beta  occ. eigenvalues --  -19.09585 -19.09584 -10.25592 -10.25552 -10.24868
  Beta  occ. eigenvalues --  -10.24846 -10.23631 -10.23629  -8.70497  -8.70496
  Beta  occ. eigenvalues --   -8.69641  -8.69639  -6.53684  -6.53683  -6.52793
  Beta  occ. eigenvalues --   -6.52791  -6.52350  -6.52349  -6.52261  -6.52260
  Beta  occ. eigenvalues --   -6.51521  -6.51519  -6.51418  -6.51416  -2.64767
  Beta  occ. eigenvalues --   -2.64765  -2.64403  -2.64401  -2.64335  -2.64334
  Beta  occ. eigenvalues --   -2.63884  -2.63882  -2.63538  -2.63536  -2.63460
  Beta  occ. eigenvalues --   -2.63458  -2.63275  -2.63275  -2.63274  -2.63274
  Beta  occ. eigenvalues --   -2.62449  -2.62448  -2.62447  -2.62446  -1.03691
  Beta  occ. eigenvalues --   -1.00781  -0.89423  -0.83902  -0.81037  -0.79115
  Beta  occ. eigenvalues --   -0.77591  -0.70501  -0.68845  -0.58479  -0.58216
  Beta  occ. eigenvalues --   -0.52320  -0.47549  -0.44095  -0.43358  -0.42476
  Beta  occ. eigenvalues --   -0.41824  -0.40045  -0.38688  -0.37553  -0.36986
  Beta  occ. eigenvalues --   -0.32894  -0.32290  -0.31269  -0.31263  -0.30278
  Beta  occ. eigenvalues --   -0.28971  -0.28534  -0.28017  -0.26019  -0.24424
  Beta  occ. eigenvalues --   -0.22629
  Beta virt. eigenvalues --   -0.12060  -0.06768  -0.01845   0.00101   0.00128
  Beta virt. eigenvalues --    0.00394   0.00421   0.00908   0.02375   0.02953
  Beta virt. eigenvalues --    0.03799   0.04650   0.05037   0.05160   0.05851

 Mulliken charges and spin densities:
               1          2
     1  Br  -0.114845   0.010959
     2  C   -0.479267   0.081458
     3  C    0.747222   0.084158
     4  Br  -0.103734   0.006787
     5  C   -0.162571   0.087277
     6  O   -0.387048   0.229377
     7  C   -0.162802   0.087274
     8  O   -0.386964   0.229377
     9  C    0.747512   0.084175
    10  C   -0.478988   0.081416
    11  Br  -0.114920   0.010950
    12  Br  -0.103596   0.006791
 Sum of Mulliken charges =  -1.00000   1.00000

 Dipole moment (field-independent basis, Debye):
    X=             -0.0024    Y=            -11.5643    Z=             -0.0003  Tot=             11.5643
 Quadrupole moment (field-independent basis, Debye-Ang):
   XX=           -138.8139   YY=           -165.1592   ZZ=           -121.1119
   XY=              0.0004   XZ=             -0.0009   YZ=             -0.0015

 Normal termination of Gaussian 16 at Sat Jan 13 19:17:02 2024.
