 Q-Chem 5.4, Q-Chem, Inc., Pleasanton, CA (2021)
 Q-Chem 5.4.0 for Intel X86 EM64T Linux

User input:
--------------------------------------------------------------
$molecule
-2 1
N                 -4.5579810000      1.0371550000     -0.4993690000
C                 -3.2778340000      0.4628570000     -0.3243410000
C                 -3.1442970000     -0.9581460000     -0.2528790000
Cl                -4.6511820000     -1.9616660000     -0.2023180000
C                 -1.9301130000     -1.5770950000     -0.1953280000
C                 -0.7292000000     -0.8389040000     -0.1413090000
C                  0.5012090000     -1.6015760000     -0.1011250000
O                  0.5266080000     -2.8822730000     -0.1842190000
C                  1.6920820000     -0.8032550000      0.0766340000
C                  2.9577420000     -1.4403860000      0.1299720000
C                  4.1283460000     -0.7322750000      0.3067670000
C                  4.0747980000      0.6827750000      0.4427010000
C                  2.8559830000      1.3283710000      0.4034680000
C                  1.6334620000      0.6318050000      0.2204820000
C                  0.3965330000      1.4012520000      0.2051360000
O                  0.4050510000      2.6673750000      0.3989830000
C                 -0.7916240000      0.6237140000     -0.0547820000
C                 -2.1009410000      1.1836000000     -0.2278220000
Br                -2.3188030000      3.1126970000     -0.6208660000
H                 -4.4877210000      1.9775130000     -0.8727140000
H                 -5.1645660000      0.4558700000     -1.0662160000
H                 -1.8342420000     -2.6566400000     -0.1776620000
H                  2.9585620000     -2.5211090000      0.0261700000
H                  5.0853300000     -1.2500440000      0.3438420000
H                  4.9926790000      1.2526470000      0.5781450000
H                  2.7801190000      2.4057410000      0.5112380000
$end

$rem
BASIS  =  6-311++G(d,p)
GUI  =  2
JOB_TYPE  =  SP
METHOD  =  B3LYP
SCF_CONVERGENCE  = 8
SOLVENT_METHOD = sm12
$end

$smx
solvent dimethylformamide
charges CM5
$end

--------------------------------------------------------------

             Standard Nuclear Orientation (Angstroms)
    I     Atom           X                Y                Z
 ----------------------------------------------------------------
    1      N      -4.5579810000     1.0371550000    -0.4993690000
    2      C      -3.2778340000     0.4628570000    -0.3243410000
    3      C      -3.1442970000    -0.9581460000    -0.2528790000
    4      Cl     -4.6511820000    -1.9616660000    -0.2023180000
    5      C      -1.9301130000    -1.5770950000    -0.1953280000
    6      C      -0.7292000000    -0.8389040000    -0.1413090000
    7      C       0.5012090000    -1.6015760000    -0.1011250000
    8      O       0.5266080000    -2.8822730000    -0.1842190000
    9      C       1.6920820000    -0.8032550000     0.0766340000
   10      C       2.9577420000    -1.4403860000     0.1299720000
   11      C       4.1283460000    -0.7322750000     0.3067670000
   12      C       4.0747980000     0.6827750000     0.4427010000
   13      C       2.8559830000     1.3283710000     0.4034680000
   14      C       1.6334620000     0.6318050000     0.2204820000
   15      C       0.3965330000     1.4012520000     0.2051360000
   16      O       0.4050510000     2.6673750000     0.3989830000
   17      C      -0.7916240000     0.6237140000    -0.0547820000
   18      C      -2.1009410000     1.1836000000    -0.2278220000
   19      Br     -2.3188030000     3.1126970000    -0.6208660000
   20      H      -4.4877210000     1.9775130000    -0.8727140000
   21      H      -5.1645660000     0.4558700000    -1.0662160000
   22      H      -1.8342420000    -2.6566400000    -0.1776620000
   23      H       2.9585620000    -2.5211090000     0.0261700000
   24      H       5.0853300000    -1.2500440000     0.3438420000
   25      H       4.9926790000     1.2526470000     0.5781450000
   26      H       2.7801190000     2.4057410000     0.5112380000
 ----------------------------------------------------------------

   19   -3777.4603465062      4.28e-09  Convergence criterion met
 Total energy in the final basis set =    -3777.7269670958

                    Orbital Energies (a.u.)
 --------------------------------------------------------------

 Alpha MOs
 -- Occupied --
********-101.5548 -62.4658 -56.2862 -56.2826 -56.2823 -19.0302 -19.0205
-14.3213 -10.2245 -10.2217 -10.2163 -10.1890 -10.1879 -10.1729 -10.1724
-10.1724 -10.1688 -10.1668 -10.1653 -10.1573 -10.1529 -10.1525  -9.4676
 -8.6741  -7.2320  -7.2228  -7.2225  -6.5049  -6.4929  -6.4923  -2.6158
 -2.6125  -2.6120  -2.6025  -2.6025  -0.9492  -0.9433  -0.9298  -0.8628
 -0.8432  -0.8290  -0.7828  -0.7614  -0.7420  -0.7199  -0.7148  -0.6505
 -0.6250  -0.6061  -0.5827  -0.5490  -0.5307  -0.5130  -0.5026  -0.4779
 -0.4514  -0.4499  -0.4417  -0.4217  -0.4135  -0.4111  -0.4033  -0.3940
 -0.3829  -0.3782  -0.3654  -0.3476  -0.3448  -0.3418  -0.3371  -0.3282
 -0.3195  -0.3139  -0.2915  -0.2865  -0.2754  -0.2484  -0.2344  -0.2315
 -0.2118  -0.2081  -0.1931  -0.1150

          Ground-State Mulliken Net Atomic Charges

     Atom                 Charge (a.u.)
  ----------------------------------------
      1 N                     0.159218
      2 C                     1.469872
      3 C                     4.656874
      4 Cl                    1.351658
      5 C                     0.437931
      6 C                    -2.974653
      7 C                    -3.616107
      8 O                    -0.327341
      9 C                    -2.419998
     10 C                    -0.601601
     11 C                     1.309242
     12 C                     1.214250
     13 C                    -0.449888
     14 C                    -1.600783
     15 C                    -3.988149
     16 O                    -0.174765
     17 C                     0.208871
     18 C                     1.201109
     19 Br                    0.332353
     20 H                     0.268157
     21 H                     0.346274
     22 H                     0.247625
     23 H                     0.101563
     24 H                     0.382310
     25 H                     0.374022
     26 H                     0.091956
  ----------------------------------------
  Sum of atomic charges =    -2.000000

                    Cartesian Multipole Moments
 -----------------------------------------------------------------
    Charge (ESU x 10^10)
                -9.6064
    Dipole Moment (Debye)
         X      -2.3470      Y       0.3424      Z      -1.3483
       Tot       2.7283
    Quadrupole Moments (Debye-Ang)
        XX    -185.6322     XY       1.0246     YY    -194.7203
        XZ       1.8946     YZ      -4.9759     ZZ    -143.1613

 Total job time:  801.28s(wall), 6019.05s(cpu)
        *  Thank you very much for using Q-Chem.  Have a nice day.  *
