 Gaussian 16, Revision A.03,
 Gaussian 16:  ES64L-G16RevA.03 25-Dec-2016

 ----------------------------------------------------------------
 #P UB3LYP/6-311++G(d,p) SCRF=(PCM,Solvent=n,n-DiMethylFormamide)
 ----------------------------------------------------------------

 ------------------
 Radical PCM in DMF
 ------------------
 Symbolic Z-matrix:
 Charge = -1 Multiplicity = 2

                         Standard orientation:
 ---------------------------------------------------------------------
 Center     Atomic      Atomic             Coordinates (Angstroms)
 Number     Number       Type             X           Y           Z
 ---------------------------------------------------------------------
      1          6           0        6.426562    0.063942   -0.858701
      2          6           0        7.045452   -1.167889   -0.789919
      3          6           0        6.403780   -2.262471   -0.183866
      4          6           0        5.134484    0.244301   -0.318846
      5          6           0        4.473541   -0.854322    0.296482
      6          6           0        5.135907   -2.091749    0.346811
      7          6           0        4.484167    1.533515   -0.390375
      8          6           0        3.163193    1.626800    0.185562
      9          6           0        2.495053    0.586609    0.796416
     10          6           0        3.120114   -0.717496    0.874861
     11          8           0        4.989723    2.579563   -0.920180
     12          8           0        2.544244   -1.697714    1.412884
     13          8           0        2.611193    2.870644    0.077746
     14          8           0        8.312400   -1.386641   -1.307058
     15          6           0        1.114368    0.763832    1.373207
     16          6           0       -0.009551    0.372012    0.394449
     17          6           0       -1.411134    0.520409    0.996305
     18          6           0       -2.539427    0.131006    0.034198
     19          6           0       -3.943135    0.276072    0.633594
     20          6           0       -5.070235   -0.117648   -0.328174
     21          6           0       -6.473670    0.024628    0.272129
     22          6           0       -7.599877   -0.371202   -0.689756
     23          6           0       -9.003108   -0.230006   -0.089364
     24          6           0      -10.129530   -0.626434   -1.050639
     25          6           0      -11.527529   -0.481818   -0.441537
     26          1           0        6.909224    0.919236   -1.323774
     27          1           0        6.913258   -3.218683   -0.143828
     28          1           0        4.615681   -2.917169    0.819399
     29          1           0        3.321909    3.368780   -0.383070
     30          1           0        8.624589   -0.558357   -1.685253
     31          1           0        0.975726    1.806191    1.678441
     32          1           0        1.032197    0.131573    2.263239
     33          1           0        0.148546   -0.666205    0.083590
     34          1           0        0.069309    0.991392   -0.507151
     35          1           0       -1.558457    1.559117    1.323064
     36          1           0       -1.480502   -0.096943    1.901928
     37          1           0       -2.391305   -0.906781   -0.291750
     38          1           0       -2.468825    0.746150   -0.872681
     39          1           0       -4.092024    1.314522    0.958468
     40          1           0       -4.012791   -0.337769    1.541432
     41          1           0       -4.920315   -1.155436   -0.653681
     42          1           0       -5.001597    0.496528   -1.235750
     43          1           0       -6.624304    1.062643    0.596932
     44          1           0       -6.541920   -0.589136    1.179978
     45          1           0       -7.448930   -1.409004   -1.014697
     46          1           0       -7.532017    0.242684   -1.597519
     47          1           0       -9.155485    0.807890    0.235311
     48          1           0       -9.071980   -0.843781    0.818566
     49          1           0       -9.978370   -1.663530   -1.374521
     50          1           0      -10.061679   -0.013145   -1.957628
     51          1           0      -11.637814   -1.110355    0.448125
     52          1           0      -12.307325   -0.772242   -1.151872
     53          1           0      -11.721841    0.552459   -0.139442
 ---------------------------------------------------------------------

 SCF Done:  E(UB3LYP) =  -1118.49223238     A.U. after   22 cycles

 The electronic state is 2-A.
 Alpha  occ. eigenvalues --  -19.15663 -19.14246 -19.08474 -19.07286 -10.23698
 Alpha  occ. eigenvalues --  -10.22278 -10.22025 -10.21884 -10.17783 -10.17416
 Alpha  occ. eigenvalues --  -10.17176 -10.17036 -10.16847 -10.16076 -10.16032
 Alpha  occ. eigenvalues --  -10.15832 -10.15813 -10.15794 -10.15769 -10.15744
 Alpha  occ. eigenvalues --  -10.15700 -10.15698 -10.15631 -10.15564 -10.15453
 Alpha  occ. eigenvalues --   -1.06280  -1.06210  -0.99874  -0.99401  -0.85901
 Alpha  occ. eigenvalues --   -0.81408  -0.80819  -0.79478  -0.77632  -0.75766
 Alpha  occ. eigenvalues --   -0.75072  -0.73304  -0.70678  -0.68022  -0.65932
 Alpha  occ. eigenvalues --   -0.63763  -0.62452  -0.60128  -0.58650  -0.57632
 Alpha  occ. eigenvalues --   -0.57426  -0.56962  -0.56734  -0.55173  -0.52043
 Alpha  occ. eigenvalues --   -0.49298  -0.48350  -0.48171  -0.47272  -0.46785
 Alpha  occ. eigenvalues --   -0.45034  -0.43928  -0.43477  -0.43070  -0.42735
 Alpha  occ. eigenvalues --   -0.42671  -0.42140  -0.41241  -0.41135  -0.40859
 Alpha  occ. eigenvalues --   -0.40359  -0.39783  -0.39077  -0.38725  -0.38383
 Alpha  occ. eigenvalues --   -0.37878  -0.37412  -0.36650  -0.35927  -0.35629
 Alpha  occ. eigenvalues --   -0.34795  -0.34509  -0.34190  -0.33523  -0.32883
 Alpha  occ. eigenvalues --   -0.32821  -0.32483  -0.32389  -0.31995  -0.31931
 Alpha  occ. eigenvalues --   -0.31787  -0.31612  -0.29646  -0.26537  -0.25924
 Alpha  occ. eigenvalues --   -0.24696  -0.23816  -0.22097  -0.14984
 Alpha virt. eigenvalues --   -0.03097  -0.00596  -0.00295  -0.00179   0.00289
 Alpha virt. eigenvalues --    0.00708   0.00784   0.00952   0.01362   0.01782
 Alpha virt. eigenvalues --    0.02020   0.02345   0.03145   0.03359   0.03627

  Beta  occ. eigenvalues --  -19.15659 -19.14207 -19.07828 -19.06779 -10.23702
  Beta  occ. eigenvalues --  -10.22155 -10.21949 -10.21573 -10.17760 -10.17449
  Beta  occ. eigenvalues --  -10.17101 -10.16954 -10.16758 -10.16076 -10.15925
  Beta  occ. eigenvalues --  -10.15832 -10.15813 -10.15794 -10.15769 -10.15743
  Beta  occ. eigenvalues --  -10.15709 -10.15698 -10.15629 -10.15553 -10.15453
  Beta  occ. eigenvalues --   -1.06268  -1.06014  -0.98991  -0.98302  -0.85676
  Beta  occ. eigenvalues --   -0.81292  -0.80681  -0.79377  -0.77526  -0.75610
  Beta  occ. eigenvalues --   -0.74910  -0.73235  -0.70564  -0.67601  -0.65489
  Beta  occ. eigenvalues --   -0.63661  -0.62346  -0.59964  -0.58530  -0.57600
  Beta  occ. eigenvalues --   -0.57289  -0.56959  -0.56623  -0.55094  -0.51855
  Beta  occ. eigenvalues --   -0.49126  -0.48327  -0.47918  -0.47168  -0.46743
  Beta  occ. eigenvalues --   -0.45013  -0.43619  -0.43019  -0.42952  -0.42686
  Beta  occ. eigenvalues --   -0.42452  -0.41943  -0.40908  -0.40788  -0.40673
  Beta  occ. eigenvalues --   -0.40176  -0.39559  -0.38968  -0.38550  -0.37856
  Beta  occ. eigenvalues --   -0.37567  -0.36800  -0.36617  -0.35564  -0.34898
  Beta  occ. eigenvalues --   -0.34639  -0.34140  -0.34044  -0.33315  -0.32785
  Beta  occ. eigenvalues --   -0.32716  -0.32380  -0.32022  -0.31988  -0.31803
  Beta  occ. eigenvalues --   -0.31729  -0.31127  -0.29588  -0.25359  -0.25224
  Beta  occ. eigenvalues --   -0.23354  -0.23192  -0.21457
  Beta virt. eigenvalues --   -0.08416  -0.02376  -0.00556  -0.00291   0.00225
  Beta virt. eigenvalues --    0.00706   0.00793   0.00869   0.00970   0.01365
  Beta virt. eigenvalues --    0.01791   0.02032   0.02352   0.03160   0.03372

 Mulliken charges and spin densities:
               1          2
     1  C    0.275573   0.094533
     2  C   -0.720032  -0.004539
     3  C   -0.130385   0.058117
     4  C    0.717416   0.009585
     5  C   -0.380094   0.038382
     6  C    0.033486  -0.001687
     7  C   -0.916745   0.177667
     8  C   -0.750984   0.042235
     9  C    2.013339   0.083739
    10  C   -0.667891   0.068921
    11  O   -0.524715   0.236294
    12  O   -0.454945   0.188234
    13  O   -0.283813   0.013952
    14  O   -0.288758   0.001752
    15  C   -0.283786   0.011794
    16  C   -0.891289   0.000211
    17  C   -0.342413  -0.000221
    18  C   -0.002948  -0.005558
    19  C    0.029897  -0.001935
    20  C    0.055807  -0.000155
    21  C   -0.046701   0.000484
    22  C   -0.302379   0.000032
    23  C   -0.494537   0.000032
    24  C   -0.286371  -0.000008
    25  C   -0.690770   0.000003
    26  H    0.155971  -0.006307
    27  H    0.205272  -0.004645
    28  H    0.173821   0.000073
    29  H    0.290969  -0.003869
    30  H    0.298640  -0.000118
    31  H    0.214940  -0.000242
    32  H    0.200745   0.003033
    33  H    0.177587  -0.001902
    34  H    0.166996   0.002118
    35  H    0.113387  -0.000495
    36  H    0.114807   0.000563
    37  H    0.124691  -0.000033
    38  H    0.125225  -0.000023
    39  H    0.131861  -0.000006
    40  H    0.132266   0.000001
    41  H    0.129080   0.000003
    42  H    0.129431  -0.000006
    43  H    0.128547  -0.000013
    44  H    0.128347   0.000004
    45  H    0.126911  -0.000001
    46  H    0.126803   0.000001
    47  H    0.123847   0.000003
    48  H    0.123840  -0.000002
    49  H    0.130992  -0.000000
    50  H    0.130909   0.000001
    51  H    0.140008  -0.000000
    52  H    0.148199   0.000001
    53  H    0.139945  -0.000000
 Sum of Mulliken charges =  -1.00000   1.00000

 Dipole moment (field-independent basis, Debye):
    X=            -17.3449    Y=             -0.6784    Z=             -1.9886  Tot=             17.4717
 Quadrupole moment (field-independent basis, Debye-Ang):
   XX=           -234.5871   YY=           -181.3374   ZZ=           -165.7002
   XY=             -3.2103   XZ=             -2.5493   YZ=              5.6396

 Normal termination of Gaussian 16 at Thu Jan 25 06:03:44 2024.
