 Gaussian 16, Revision A.03,
 Gaussian 16:  ES64L-G16RevA.03 25-Dec-2016

 --------------------------------------
 #P UB3LYP/6-311++G(d,p) nosym opt freq
 --------------------------------------

 -------
 Radical
 -------
 Symbolic Z-matrix:
 Charge = -1 Multiplicity = 2

 SCF Done:  E(UB3LYP) =  -1502.66711076     A.U. after   24 cycles
 SCF Done:  E(UB3LYP) =  -1502.71571445     A.U. after   19 cycles
 SCF Done:  E(UB3LYP) =  -1502.74847830     A.U. after   20 cycles
 SCF Done:  E(UB3LYP) =  -1502.75538397     A.U. after   18 cycles
 SCF Done:  E(UB3LYP) =  -1502.75721562     A.U. after   17 cycles
 SCF Done:  E(UB3LYP) =  -1502.75775445     A.U. after   17 cycles
 SCF Done:  E(UB3LYP) =  -1502.75784086     A.U. after   19 cycles
 SCF Done:  E(UB3LYP) =  -1502.75810381     A.U. after   17 cycles
 SCF Done:  E(UB3LYP) =  -1502.75837357     A.U. after   18 cycles
 SCF Done:  E(UB3LYP) =  -1502.75878856     A.U. after   18 cycles
 SCF Done:  E(UB3LYP) =  -1502.76003098     A.U. after   13 cycles
 SCF Done:  E(UB3LYP) =  -1502.76004519     A.U. after   13 cycles
 SCF Done:  E(UB3LYP) =  -1502.76005353     A.U. after   12 cycles
 SCF Done:  E(UB3LYP) =  -1502.76005479     A.U. after   11 cycles
 SCF Done:  E(UB3LYP) =  -1502.76005529     A.U. after   10 cycles
 SCF Done:  E(UB3LYP) =  -1502.76005571     A.U. after   10 cycles
 SCF Done:  E(UB3LYP) =  -1502.76005610     A.U. after   11 cycles
 SCF Done:  E(UB3LYP) =  -1502.76005646     A.U. after    9 cycles
 SCF Done:  E(UB3LYP) =  -1502.76005658     A.U. after   10 cycles
 Optimization completed.
    -- Stationary point found.
 Normal termination of Gaussian 16 at Thu Dec 21 22:50:54 2023.

 ----------------------------------------------------------------------
 #P Geom=AllCheck Guess=TCheck SCRF=Check GenChk UB3LYP/6-311++G(d,p) F
 req
 ----------------------------------------------------------------------

 Structure from the checkpoint file:  "195-rad.chk"
 -------
 Radical
 -------
 Charge = -1 Multiplicity = 2

                          Input orientation:
 ---------------------------------------------------------------------
 Center     Atomic      Atomic             Coordinates (Angstroms)
 Number     Number       Type             X           Y           Z
 ---------------------------------------------------------------------
      1          6           0        4.792511   -3.042117    0.317274
      2          6           0        5.702086   -2.243460   -0.346752
      3          6           0        5.272160   -1.055471   -0.974505
      4          6           0        3.428219   -2.686706    0.378844
      5          6           0        2.994788   -1.490607   -0.253377
      6          6           0        3.941736   -0.689537   -0.926170
      7          6           0        2.489317   -3.544797    1.085442
      8          6           0        1.101542   -3.139729    1.118644
      9          6           0        0.663849   -1.934773    0.483764
     10          6           0        1.596738   -1.079973   -0.217808
     11          6           0        0.163570   -3.964812    1.804615
     12          6           0       -1.176963   -3.572127    1.836483
     13          6           0       -0.713298   -1.572121    0.550872
     14          6           0       -1.614135   -2.384318    1.221351
     15          8           0        2.884056   -4.618592    1.654287
     16          8           0        1.217375   -0.004125   -0.785898
     17          8           0        0.568702   -5.084159    2.420174
     18          1           0        5.097043   -3.959147    0.806964
     19          1           0        6.748544   -2.528653   -0.386813
     20          1           0        5.989233   -0.429363   -1.495982
     21          1           0        1.568905   -5.134342    2.233175
     22          8           0       -1.162084   -0.438981   -0.031616
     23          1           0       -2.655892   -2.100130    1.272273
     24          1           0       -0.352723   -0.021511   -0.449649
     25          1           0        3.586542    0.217512   -1.400119
     26         16           0       -2.410446   -4.593371    2.616607
     27          8           0       -3.657448   -3.839574    2.658696
     28          8           0       -2.414985   -5.952254    2.079597
     29          8           0       -1.901168   -4.674058    4.183973
     30          6           0       -1.416368   -5.936073    4.691089
     31          1           0       -0.570507   -6.284463    4.101624
     32          1           0       -2.215455   -6.679446    4.697312
     33          1           0       -1.103772   -5.713113    5.711280
 ---------------------------------------------------------------------

 SCF Done:  E(UB3LYP) =  -1502.76005658     A.U. after    1 cycles

 Alpha  occ. eigenvalues --  -88.97806 -19.07032 -19.03527 -19.02533 -19.02363
 Alpha  occ. eigenvalues --  -19.02239 -18.99526 -18.99079 -10.14978 -10.14041
 Alpha  occ. eigenvalues --  -10.13652 -10.13495 -10.13411 -10.10765 -10.08848
 Alpha  occ. eigenvalues --  -10.08797 -10.08530 -10.08497 -10.08476 -10.08420
 Alpha  occ. eigenvalues --  -10.08313 -10.08236 -10.08001  -8.03838  -6.00232
 Alpha  occ. eigenvalues --   -6.00043  -5.99884  -1.04527  -0.96387  -0.95065
 Alpha  occ. eigenvalues --   -0.93965  -0.91616  -0.91177  -0.90695  -0.77408
 Alpha  occ. eigenvalues --   -0.75946  -0.70769  -0.66710  -0.66393  -0.64778
 Alpha  occ. eigenvalues --   -0.63395  -0.59104  -0.56543  -0.54497  -0.52242
 Alpha  occ. eigenvalues --   -0.50241  -0.48317  -0.45764  -0.44842  -0.43446
 Alpha  occ. eigenvalues --   -0.41901  -0.41439  -0.39936  -0.38716  -0.38178
 Alpha  occ. eigenvalues --   -0.37336  -0.36461  -0.35259  -0.34428  -0.34092
 Alpha  occ. eigenvalues --   -0.33576  -0.33170  -0.32667  -0.32279  -0.31109
 Alpha  occ. eigenvalues --   -0.30800  -0.30323  -0.29512  -0.28039  -0.27262
 Alpha  occ. eigenvalues --   -0.27062  -0.26038  -0.25895  -0.25240  -0.24600
 Alpha  occ. eigenvalues --   -0.23593  -0.22596  -0.21714  -0.21230  -0.20537
 Alpha  occ. eigenvalues --   -0.17892  -0.16792  -0.16456  -0.16124  -0.15026
 Alpha  occ. eigenvalues --   -0.11829  -0.05174
 Alpha virt. eigenvalues --    0.03996   0.05903   0.06758   0.07573   0.08768
 Alpha virt. eigenvalues --    0.09551   0.09954   0.10444   0.10775   0.11467
 Alpha virt. eigenvalues --    0.11844   0.12831   0.13197   0.13563   0.13686

  Beta  occ. eigenvalues --  -88.97806 -19.07022 -19.03507 -19.02487 -19.02351
  Beta  occ. eigenvalues --  -19.02239 -18.99057 -18.98544 -10.14974 -10.13857
  Beta  occ. eigenvalues --  -10.13494 -10.13480 -10.13394 -10.10663 -10.08805
  Beta  occ. eigenvalues --  -10.08753 -10.08483 -10.08464 -10.08410 -10.08373
  Beta  occ. eigenvalues --  -10.08311 -10.08234 -10.07827  -8.03838  -6.00229
  Beta  occ. eigenvalues --   -6.00043  -5.99888  -1.04510  -0.96268  -0.94875
  Beta  occ. eigenvalues --   -0.93948  -0.91594  -0.90429  -0.89849  -0.77167
  Beta  occ. eigenvalues --   -0.75777  -0.70397  -0.66530  -0.66203  -0.64550
  Beta  occ. eigenvalues --   -0.63271  -0.58579  -0.56277  -0.54258  -0.52132
  Beta  occ. eigenvalues --   -0.50161  -0.48169  -0.45639  -0.44694  -0.43325
  Beta  occ. eigenvalues --   -0.41838  -0.41262  -0.39860  -0.38689  -0.37986
  Beta  occ. eigenvalues --   -0.37228  -0.36363  -0.35193  -0.34031  -0.33690
  Beta  occ. eigenvalues --   -0.33498  -0.33032  -0.32316  -0.32011  -0.30889
  Beta  occ. eigenvalues --   -0.30071  -0.29652  -0.29306  -0.27919  -0.26944
  Beta  occ. eigenvalues --   -0.25988  -0.25724  -0.25181  -0.24874  -0.24451
  Beta  occ. eigenvalues --   -0.23510  -0.22503  -0.21683  -0.20986  -0.20067
  Beta  occ. eigenvalues --   -0.16193  -0.16050  -0.15997  -0.15643  -0.14615
  Beta  occ. eigenvalues --   -0.10757
  Beta virt. eigenvalues --    0.00279   0.04965   0.06753   0.06891   0.07647
  Beta virt. eigenvalues --    0.08765   0.09876   0.09998   0.10464   0.10791
  Beta virt. eigenvalues --    0.11506   0.11864   0.13105   0.13385   0.13634

 Mulliken charges and spin densities:
               1          2
     1  C   -0.017042   0.024500
     2  C   -0.451337   0.034747
     3  C   -0.414530   0.033625
     4  C    0.220629   0.022635
     5  C    0.262015   0.028870
     6  C   -0.006412   0.027422
     7  C   -0.356197   0.103442
     8  C    0.317729   0.005958
     9  C    0.695972   0.030212
    10  C   -0.434249   0.087995
    11  C   -0.085051   0.008125
    12  C   -0.988701   0.062743
    13  C   -0.369324   0.023684
    14  C   -0.173842   0.125153
    15  O   -0.410469   0.172088
    16  O   -0.407928   0.196938
    17  O   -0.405927   0.008800
    18  H    0.162738  -0.000521
    19  H    0.139414  -0.002981
    20  H    0.136823  -0.002820
    21  H    0.448169  -0.002612
    22  O   -0.352728   0.016145
    23  H    0.231889  -0.009856
    24  H    0.350934  -0.004145
    25  H    0.168817  -0.000800
    26  S    1.101429   0.004024
    27  O   -0.141072   0.000157
    28  O   -0.203185   0.002944
    29  O   -0.169517   0.002561
    30  C   -0.346920   0.000413
    31  H    0.204656  -0.000119
    32  H    0.167532   0.000558
    33  H    0.125686   0.000114
 Sum of Mulliken charges =  -1.00000   1.00000

 Dipole moment (field-independent basis, Debye):
    X=              0.9454    Y=             13.7754    Z=             -4.4812  Tot=             14.5168
 Quadrupole moment (field-independent basis, Debye-Ang):
   XX=           -182.7949   YY=           -209.4089   ZZ=           -154.3542
   XY=             -8.6483   XZ=              9.9045   YZ=             20.3023

  Exact polarizability: 374.736  27.993 239.351 -68.412 -79.251 189.649
 Approx polarizability: 578.804 -12.028 426.996 -69.454-128.070 295.113

                      1                      2                      3
                      A                      A                      A
 Frequencies --     35.7314                38.4567                72.3287
 Red. masses --      7.4214                 5.7188                 1.7007
 Frc consts  --      0.0056                 0.0050                 0.0052
 IR Inten    --      0.2194                 1.2496                 0.8809

                      4                      5                      6
                      A                      A                      A
 Frequencies --     85.2419                94.5574               109.9092
 Red. masses --      3.2382                 5.6593                 5.0096
 Frc consts  --      0.0139                 0.0298                 0.0357
 IR Inten    --      1.8856                 1.3476                 3.1894

                      7                      8                      9
                      A                      A                      A
 Frequencies --    130.0509               145.9160               157.0928
 Red. masses --      2.7474                 5.8892                 8.8858
 Frc consts  --      0.0274                 0.0739                 0.1292
 IR Inten    --      2.4419                 0.0704                 0.6265

                     10                     11                     12
                      A                      A                      A
 Frequencies --    179.1528               206.8849               233.5116
 Red. masses --      9.2039                 7.8045                 7.9239
 Frc consts  --      0.1740                 0.1968                 0.2546
 IR Inten    --      1.0922                 1.1564                 0.3958

                     13                     14                     15
                      A                      A                      A
 Frequencies --    241.3077               257.6013               280.3484
 Red. masses --      7.9110                 4.8844                 7.1833
 Frc consts  --      0.2714                 0.1910                 0.3326
 IR Inten    --      2.0166                 7.4495                 2.0002

                     16                     17                     18
                      A                      A                      A
 Frequencies --    297.2551               336.4751               361.8117
 Red. masses --      7.5982                 6.7796                 6.4724
 Frc consts  --      0.3956                 0.4522                 0.4992
 IR Inten    --      1.6627                 1.8976                 8.4014

                     19                     20                     21
                      A                      A                      A
 Frequencies --    383.7095               409.9259               414.1254
 Red. masses --     10.3426                11.5271                 7.7321
 Frc consts  --      0.8972                 1.1413                 0.7813
 IR Inten    --      2.3566                 3.1575                 2.9600

                     22                     23                     24
                      A                      A                      A
 Frequencies --    438.6737               439.2162               459.8352
 Red. masses --      7.1110                 3.9417                 9.7560
 Frc consts  --      0.8062                 0.4480                 1.2154
 IR Inten    --     38.4126                 4.7432                 6.2859

                     25                     26                     27
                      A                      A                      A
 Frequencies --    463.6456               486.3063               496.4508
 Red. masses --      7.9708                10.1145                 7.5000
 Frc consts  --      1.0095                 1.4093                 1.0891
 IR Inten    --      3.1786                18.6379                13.2795

                     28                     29                     30
                      A                      A                      A
 Frequencies --    512.3165               535.4719               554.3066
 Red. masses --      5.7200                 8.4742                 8.4282
 Frc consts  --      0.8846                 1.4316                 1.5257
 IR Inten    --      5.9683                27.2447                 4.4837

                     31                     32                     33
                      A                      A                      A
 Frequencies --    593.3483               617.3460               653.3397
 Red. masses --     10.6888                 4.5174                 6.8588
 Frc consts  --      2.2172                 1.0144                 1.7250
 IR Inten    --    143.6776                12.7544                63.7403

                     34                     35                     36
                      A                      A                      A
 Frequencies --    658.0145               678.9238               692.9049
 Red. masses --      6.6194                 9.7992                 7.1481
 Frc consts  --      1.6887                 2.6612                 2.0220
 IR Inten    --      0.9296               239.3177                91.7432

                     37                     38                     39
                      A                      A                      A
 Frequencies --    716.8014               735.0515               738.0358
 Red. masses --      3.7290                 3.9770                 6.4734
 Frc consts  --      1.1289                 1.2660                 2.0775
 IR Inten    --      7.2521                42.9112                 9.0421

                     40                     41                     42
                      A                      A                      A
 Frequencies --    782.1371               787.8201               799.1400
 Red. masses --      4.2037                 2.1803                 8.1376
 Frc consts  --      1.5151                 0.7973                 3.0619
 IR Inten    --      6.7400                22.2186                20.0296

                     43                     44                     45
                      A                      A                      A
 Frequencies --    862.1462               878.8376               894.5930
 Red. masses --      1.4168                 1.4308                 1.0638
 Frc consts  --      0.6205                 0.6511                 0.5016
 IR Inten    --     35.7863                 0.1244                61.3746

                     46                     47                     48
                      A                      A                      A
 Frequencies --    908.0073               921.2851               972.3041
 Red. masses --      8.0157                 8.8072                 1.0618
 Frc consts  --      3.8937                 4.4043                 0.5914
 IR Inten    --     58.0266                56.0253                70.1948

                     49                     50                     51
                      A                      A                      A
 Frequencies --    986.0536               990.9428              1008.3667
 Red. masses --      1.3626                 1.2748                 7.3367
 Frc consts  --      0.7806                 0.7375                 4.3953
 IR Inten    --      1.0367                 0.1540               250.9278

                     52                     53                     54
                      A                      A                      A
 Frequencies --   1009.9884              1039.2439              1100.9268
 Red. masses --      8.0274                 2.2508                 5.0139
 Frc consts  --      4.8245                 1.4323                 3.5805
 IR Inten    --     16.4061                21.0706               123.9444

                     55                     56                     57
                      A                      A                      A
 Frequencies --   1113.8156              1119.1310              1158.0317
 Red. masses --      2.2696                 6.7843                 1.2926
 Frc consts  --      1.6589                 5.0063                 1.0213
 IR Inten    --     41.3502               257.8023                11.2029

                     58                     59                     60
                      A                      A                      A
 Frequencies --   1170.0071              1186.1196              1188.7144
 Red. masses --      1.2438                 1.3290                 1.8099
 Frc consts  --      1.0032                 1.1016                 1.5068
 IR Inten    --      1.0277                 7.8517                31.0491

                     61                     62                     63
                      A                      A                      A
 Frequencies --   1224.3698              1252.2443              1279.0148
 Red. masses --      2.0217                 2.8656                 2.6253
 Frc consts  --      1.7856                 2.6475                 2.5304
 IR Inten    --      5.6588                 3.1552                50.0086

                     64                     65                     66
                      A                      A                      A
 Frequencies --   1288.0892              1297.1634              1310.7196
 Red. masses --      8.5700                 9.7832                 6.1073
 Frc consts  --      8.3777                 9.6989                 6.1819
 IR Inten    --     64.5758               129.8334                24.0748

                     67                     68                     69
                      A                      A                      A
 Frequencies --   1324.8622              1362.6436              1377.0285
 Red. masses --      3.4410                10.3424                 7.2254
 Frc consts  --      3.5585                11.3145                 8.0723
 IR Inten    --    227.3453                 1.9902                13.9866

                     70                     71                     72
                      A                      A                      A
 Frequencies --   1402.0253              1453.2044              1461.2038
 Red. masses --      3.0935                 6.2936                 1.1636
 Frc consts  --      3.5827                 7.8308                 1.4638
 IR Inten    --    139.1500                20.7700                37.5187

                     73                     74                     75
                      A                      A                      A
 Frequencies --   1478.2567              1481.5625              1487.0575
 Red. masses --      1.3523                 1.7448                 2.5274
 Frc consts  --      1.7411                 2.2566                 3.2929
 IR Inten    --    170.7010               214.8311               103.3509

                     76                     77                     78
                      A                      A                      A
 Frequencies --   1500.3511              1505.9595              1531.5226
 Red. masses --      1.3556                 1.9097                 6.1815
 Frc consts  --      1.7980                 2.5518                 8.5427
 IR Inten    --     53.7751               287.6494               351.5682

                     79                     80                     81
                      A                      A                      A
 Frequencies --   1569.3024              1590.1706              1630.1203
 Red. masses --      6.1259                 1.8929                 5.7371
 Frc consts  --      8.8885                 2.8202                 8.9822
 IR Inten    --     99.7231               103.3361                 0.3248

                     82                     83                     84
                      A                      A                      A
 Frequencies --   1642.3913              1647.9510              2752.4009
 Red. masses --      4.6442                 2.0113                 1.0794
 Frc consts  --      7.3809                 3.2182                 4.8179
 IR Inten    --      2.7804                76.2640               440.7139

                     85                     86                     87
                      A                      A                      A
 Frequencies --   3044.4868              3050.9300              3122.1383
 Red. masses --      1.0300                 1.0719                 1.1053
 Frc consts  --      5.6247                 5.8786                 6.3477
 IR Inten    --     97.1612               262.5445                19.7761

                     88                     89                     90
                      A                      A                      A
 Frequencies --   3145.5758              3151.9491              3163.4027
 Red. masses --      1.0854                 1.1063                 1.0915
 Frc consts  --      6.3276                 6.4758                 6.4355
 IR Inten    --     13.8837                 3.6277                40.5660

                     91                     92                     93
                      A                      A                      A
 Frequencies --   3191.7134              3193.9601              3218.9458
 Red. masses --      1.0917                 1.0932                 1.0900
 Frc consts  --      6.5525                 6.5709                 6.6542
 IR Inten    --      5.3263                24.6470                10.8185

 - Thermochemistry -
 -------------------
 Temperature   298.150 Kelvin.  Pressure   1.00000 Atm.
 Atom     1 has atomic number  6 and mass  12.00000

 Molecular mass:   334.01472 amu.
 Principal axes and moments of inertia in atomic units:
                           1         2         3
     Eigenvalues --  3447.76794********************
           X            0.79831  -0.57946   0.16413
           Y            0.41287   0.72497   0.55133
           Z           -0.43846  -0.37236   0.81798
 This molecule is an asymmetric top.
 Rotational symmetry number  1.
 Warning -- assumption of classical behavior for rotation
           may cause significant error
 Rotational temperatures (Kelvin)      0.02512     0.00723     0.00580
 Rotational constants (GHZ):           0.52345     0.15074     0.12086
 Zero-point vibrational energy     597844.0 (Joules/Mol)
                                  142.88815 (Kcal/Mol)
 Warning -- explicit consideration of  32 degrees of freedom as
           vibrations may cause significant error
 Vibrational temperatures:     51.41    55.33   104.06   122.64   136.05
          (Kelvin)            158.13   187.11   209.94   226.02   257.76
                              297.66   335.97   347.19   370.63   403.36
                              427.68   484.11   520.57   552.07   589.79
                              595.83   631.15   631.93   661.60   667.08
                              699.69   714.28   737.11   770.42   797.52
                              853.70   888.22   940.01   946.74   976.82
                              996.94  1031.32  1057.58  1061.87  1125.32
                             1133.50  1149.78  1240.44  1264.45  1287.12
                             1306.42  1325.52  1398.93  1418.71  1425.75
                             1450.81  1453.15  1495.24  1583.99  1602.53
                             1610.18  1666.15  1683.38  1706.56  1710.29
                             1761.60  1801.70  1840.22  1853.27  1866.33
                             1885.83  1906.18  1960.54  1981.24  2017.20
                             2090.84  2102.35  2126.88  2131.64  2139.54
                             2158.67  2166.74  2203.52  2257.88  2287.90
                             2345.38  2363.03  2371.03  3960.09  4380.34
                             4389.61  4492.06  4525.78  4534.95  4551.43
                             4592.16  4595.40  4631.34

 Zero-point correction=                           0.227707 (Hartree/Particle)
 Thermal correction to Energy=                    0.246671
 Thermal correction to Enthalpy=                  0.247616
 Thermal correction to Gibbs Free Energy=         0.179587
 Sum of electronic and zero-point Energies=          -1502.532350
 Sum of electronic and thermal Energies=             -1502.513385
 Sum of electronic and thermal Enthalpies=           -1502.512441
 Sum of electronic and thermal Free Energies=        -1502.580470

                     E (Thermal)             CV                S
                      KCal/Mol        Cal/Mol-Kelvin    Cal/Mol-Kelvin
 Total                  154.789             73.666            143.179
 Electronic               0.000              0.000              1.377
 Translational            0.889              2.981             43.313
 Rotational               0.889              2.981             34.776
 Vibrational            153.011             67.704             63.712
 Vibration     1          0.594              1.982              5.483
 Vibration     2          0.594              1.982              5.337
 Vibration     3          0.598              1.967              4.089
 Vibration     4          0.601              1.959              3.766
 Vibration     5          0.603              1.953              3.564
 Vibration     6          0.606              1.941              3.271
 Vibration     7          0.612              1.923              2.945
 Vibration     8          0.617              1.907              2.725
 Vibration     9          0.621              1.895              2.585
 Vibration    10          0.629              1.868              2.337
 Vibration    11          0.641              1.830              2.071
 Vibration    12          0.654              1.790              1.852
 Vibration    13          0.658              1.777              1.793
 Vibration    14          0.667              1.750              1.678
 Vibration    15          0.680              1.710              1.532
 Vibration    16          0.691              1.679              1.432
 Vibration    17          0.717              1.603              1.229
 Vibration    18          0.736              1.551              1.114
 Vibration    19          0.753              1.505              1.025
 Vibration    20          0.774              1.449              0.927
 Vibration    21          0.778              1.440              0.912
 Vibration    22          0.799              1.386              0.831
 Vibration    23          0.799              1.385              0.829
 Vibration    24          0.818              1.339              0.767
 Vibration    25          0.821              1.331              0.756
 Vibration    26          0.842              1.280              0.693
 Vibration    27          0.852              1.258              0.667
 Vibration    28          0.867              1.223              0.628
 Vibration    29          0.890              1.172              0.575
 Vibration    30          0.910              1.130              0.535
 Vibration    31          0.951              1.046              0.461
 Vibration    32          0.977              0.995              0.421

 Optimization completed.
    -- Stationary point found.
 Normal termination of Gaussian 16 at Fri Dec 22 00:41:51 2023.
