 Q-Chem 5.4, Q-Chem, Inc., Pleasanton, CA (2021)
 Q-Chem 5.4.0 for Intel X86 EM64T Linux

User input:
--------------------------------------------------------------
$molecule
-1 2
C                 -1.8525700000     -3.6688570000      1.3200340000
C                 -0.4588360000     -3.9001430000      1.0672240000
C                  0.3584190000     -2.8964670000      0.5890280000
C                 -0.1365610000     -1.5449930000      0.3112500000
C                 -1.5528400000     -1.3069270000      0.5669800000
C                 -2.3354660000     -2.3185440000      1.0396350000
O                 -2.6882490000     -4.5125710000      1.7561980000
O                  0.6048460000     -0.6354300000     -0.1221330000
O                 -3.6644620000     -2.1668040000      1.3006660000
C                 -2.0893130000      0.0701450000      0.2910710000
Br                 0.1659640000     -5.6763570000      1.4381710000
Br                 2.2212690000     -3.1761500000      0.2424130000
H                 -1.5624690000      0.8190660000      0.8916570000
H                 -3.1563330000      0.1224680000      0.5109120000
H                 -1.9238910000      0.3476790000     -0.7550810000
H                 -3.9177630000     -3.0612860000      1.6177270000
$end
$rem
MAX_SCF_CYCLES=200
BASIS  =  6-311++G(d,p)
GUI  =  2
JOB_TYPE  =  SP
METHOD  =  B3LYP
SOLVENT_METHOD = COSMO
$end
$solvent
dielectric 37.219
opticaldielectric 1.43
$end

--------------------------------------------------------------

             Standard Nuclear Orientation (Angstroms)
    I     Atom           X                Y                Z
 ----------------------------------------------------------------
    1      C       1.0182697784    -1.4914045390    -0.0000768621
    2      C      -0.1694965535    -0.6857298445    -0.0000863458
    3      C      -0.1000420309     0.6923553239    -0.0000999598
    4      C       1.1751445887     1.4152293604    -0.0001536246
    5      C       2.3841733927     0.5990377585     0.0001274493
    6      C       2.2837298206    -0.7608101158     0.0000425027
    7      O       1.0699999864    -2.7554360745    -0.0001275209
    8      O       1.2375020053     2.6645978183    -0.0003098610
    9      O       3.3700690780    -1.5837679493     0.0000166496
   10      C       3.7073063914     1.3128832517     0.0002972888
   11      Br     -1.8263810037    -1.6540514845     0.0000193765
   12      Br     -1.6677940751     1.7926862579     0.0000582308
   13      H       3.8001460322     1.9576779337    -0.8799137240
   14      H       4.5329901515     0.6003100772     0.0095299100
   15      H       3.7915792246     1.9718922978     0.8706011054
   16      H       2.9563314656    -2.4746149047     0.0001296198
 ----------------------------------------------------------------

   10   -5643.3201488561      7.66e-06  Convergence criterion met
 Total energy in the final basis set =    -5643.3201488561
    5   -5643.3979033188      3.68e-06  Convergence criterion met
 Total energy in the final basis set =    -5643.3979033188

                    Orbital Energies (a.u.)
 --------------------------------------------------------------

 Alpha MOs
 -- Occupied --
********-482.8318 -62.4861 -62.4846 -56.3065 -56.3050 -56.3028 -56.3024
-56.3014 -56.3009 -19.1514 -19.1042 -19.0925 -10.2454 -10.2443 -10.2343
-10.2341 -10.2333 -10.1766 -10.1591  -8.6948  -8.6933  -6.5262  -6.5246
 -6.5137  -6.5127  -6.5124  -6.5112  -2.6370  -2.6355  -2.6338  -2.6330
 -2.6324  -2.6315  -2.6230  -2.6229  -2.6216  -2.6215  -1.0743  -1.0216
 -1.0170  -0.8662  -0.8092  -0.7973  -0.7462  -0.6953  -0.6700  -0.5981
 -0.5787  -0.5411  -0.5006  -0.4574  -0.4535  -0.4396  -0.4197  -0.4122
 -0.4097  -0.4030  -0.3963  -0.3728  -0.3712  -0.3605  -0.3407  -0.3083
 -0.3080  -0.2845  -0.2760  -0.2742  -0.2562  -0.2324  -0.1770

 Beta MOs
 -- Occupied --
********-482.8318 -62.4860 -62.4845 -56.3066 -56.3050 -56.3027 -56.3024
-56.3012 -56.3009 -19.1511 -19.0977 -19.0866 -10.2432 -10.2431 -10.2337
-10.2333 -10.2305 -10.1764 -10.1592  -8.6948  -8.6933  -6.5262  -6.5247
 -6.5136  -6.5127  -6.5122  -6.5112  -2.6370  -2.6355  -2.6338  -2.6330
 -2.6323  -2.6315  -2.6229  -2.6228  -2.6215  -2.6214  -1.0721  -1.0113
 -1.0068  -0.8611  -0.8075  -0.7954  -0.7438  -0.6896  -0.6643  -0.5947
 -0.5751  -0.5378  -0.4987  -0.4537  -0.4416  -0.4346  -0.4164  -0.4077
 -0.4017  -0.4011  -0.3846  -0.3712  -0.3589  -0.3572  -0.3243  -0.3076
 -0.3037  -0.2829  -0.2710  -0.2543  -0.2510  -0.2264

          Ground-State Mulliken Net Atomic Charges

     Atom                 Charge (a.u.)    Spin (a.u.)
  --------------------------------------------------------
      1 C                    -0.684735       0.137620
      2 C                     0.940570       0.052686
      3 C                    -0.093198       0.185050
      4 C                    -0.714388       0.070841
      5 C                     2.050041       0.025517
      6 C                    -1.664616       0.040179
      7 O                    -0.468410       0.232298
      8 O                    -0.426351       0.217846
      9 O                    -0.306363       0.012530
     10 C                    -0.137861       0.005823
     11 Br                   -0.159949       0.006056
     12 Br                   -0.188479       0.013931
     13 H                     0.178312       0.001317
     14 H                     0.187026      -0.000160
     15 H                     0.177461       0.001286
     16 H                     0.310941      -0.002818
  --------------------------------------------------------
  Sum of atomic charges =    -1.000000

                    Cartesian Multipole Moments
 -----------------------------------------------------------------
    Charge (ESU x 10^10)
                -4.8032
    Dipole Moment (Debye)
         X      -2.9441      Y      -0.5975      Z      -0.0000
       Tot       3.0041
    Quadrupole Moments (Debye-Ang)
        XX    -108.2985     XY      -0.6175     YY    -131.8171
        XZ      -0.0016     YZ       0.0005     ZZ     -97.3908

 Total job time:  36.99s(wall), 274.58s(cpu)
        *  Thank you very much for using Q-Chem.  Have a nice day.  *
