 Gaussian 16, Revision A.03,
 Gaussian 16:  ES64L-G16RevA.03 25-Dec-2016

 --------------------------------------
 #P UB3LYP/6-311++G(d,p) nosym opt freq
 --------------------------------------

 -------
 Radical
 -------
 Symbolic Z-matrix:
 Charge = -1 Multiplicity = 2

 SCF Done:  E(UB3LYP) =  -5643.31381387     A.U. after   22 cycles
 SCF Done:  E(UB3LYP) =  -5643.32270432     A.U. after   18 cycles
 SCF Done:  E(UB3LYP) =  -5643.32357019     A.U. after   16 cycles
 SCF Done:  E(UB3LYP) =  -5643.32364295     A.U. after   15 cycles
 SCF Done:  E(UB3LYP) =  -5643.32365268     A.U. after   14 cycles
 SCF Done:  E(UB3LYP) =  -5643.32365811     A.U. after   13 cycles
 SCF Done:  E(UB3LYP) =  -5643.32365870     A.U. after   12 cycles
 SCF Done:  E(UB3LYP) =  -5643.32365896     A.U. after   11 cycles
 SCF Done:  E(UB3LYP) =  -5643.32365916     A.U. after   10 cycles
 SCF Done:  E(UB3LYP) =  -5643.32365950     A.U. after   11 cycles
 SCF Done:  E(UB3LYP) =  -5643.32365990     A.U. after   11 cycles
 SCF Done:  E(UB3LYP) =  -5643.32366037     A.U. after   11 cycles
 SCF Done:  E(UB3LYP) =  -5643.32366068     A.U. after   11 cycles
 SCF Done:  E(UB3LYP) =  -5643.32366085     A.U. after   11 cycles
 SCF Done:  E(UB3LYP) =  -5643.32366091     A.U. after   10 cycles
 Optimization completed.
    -- Stationary point found.
 Normal termination of Gaussian 16 at Thu Jan 25 06:04:59 2024.

 ----------------------------------------------------------------------
 #P Geom=AllCheck Guess=TCheck SCRF=Check GenChk UB3LYP/6-311++G(d,p) F
 req
 ----------------------------------------------------------------------

 Structure from the checkpoint file:  "109-rad.chk"
 -------
 Radical
 -------
 Charge = -1 Multiplicity = 2

                          Input orientation:
 ---------------------------------------------------------------------
 Center     Atomic      Atomic             Coordinates (Angstroms)
 Number     Number       Type             X           Y           Z
 ---------------------------------------------------------------------
      1          6           0       -1.852570   -3.668857    1.320034
      2          6           0       -0.458836   -3.900143    1.067224
      3          6           0        0.358419   -2.896467    0.589028
      4          6           0       -0.136561   -1.544993    0.311250
      5          6           0       -1.552840   -1.306927    0.566980
      6          6           0       -2.335466   -2.318544    1.039635
      7          8           0       -2.688249   -4.512571    1.756198
      8          8           0        0.604846   -0.635430   -0.122133
      9          8           0       -3.664462   -2.166804    1.300666
     10          6           0       -2.089313    0.070145    0.291071
     11         35           0        0.165964   -5.676357    1.438171
     12         35           0        2.221269   -3.176150    0.242413
     13          1           0       -1.562469    0.819066    0.891657
     14          1           0       -3.156333    0.122468    0.510912
     15          1           0       -1.923891    0.347679   -0.755081
     16          1           0       -3.917763   -3.061286    1.617727
 ---------------------------------------------------------------------

 SCF Done:  E(UB3LYP) =  -5643.32366091     A.U. after    1 cycles

 Alpha  occ. eigenvalues -- -482.70721-482.70467 -62.35997 -62.35740 -56.18029
 Alpha  occ. eigenvalues --  -56.17769 -56.17662 -56.17623 -56.17412 -56.17365
 Alpha  occ. eigenvalues --  -19.02635 -18.97004 -18.95606 -10.11316 -10.11083
 Alpha  occ. eigenvalues --  -10.10703 -10.10591 -10.10452 -10.05044 -10.04658
 Alpha  occ. eigenvalues --   -8.56962  -8.56708  -6.40093  -6.39830  -6.38860
 Alpha  occ. eigenvalues --   -6.38747  -6.38622  -6.38487  -2.51190  -2.50931
 Alpha  occ. eigenvalues --   -2.50857  -2.50771  -2.50608  -2.50506  -2.49788
 Alpha  occ. eigenvalues --   -2.49787  -2.49540  -2.49538  -0.94789  -0.88491
 Alpha  occ. eigenvalues --   -0.88350  -0.73726  -0.68343  -0.66990  -0.62243
 Alpha  occ. eigenvalues --   -0.56860  -0.54514  -0.47107  -0.45219  -0.41148
 Alpha  occ. eigenvalues --   -0.37271  -0.32842  -0.32548  -0.30566  -0.28919
 Alpha  occ. eigenvalues --   -0.28916  -0.28526  -0.27837  -0.26778  -0.24995
 Alpha  occ. eigenvalues --   -0.24349  -0.23438  -0.20908  -0.18090  -0.18006
 Alpha  occ. eigenvalues --   -0.15487  -0.14458  -0.14176  -0.11985  -0.10655
 Alpha  occ. eigenvalues --   -0.04383
 Alpha virt. eigenvalues --    0.07831   0.09387   0.11105   0.11435   0.11490
 Alpha virt. eigenvalues --    0.12230   0.13172   0.13552   0.14566   0.15004
 Alpha virt. eigenvalues --    0.15111   0.15410   0.15797   0.16327   0.17349

  Beta  occ. eigenvalues -- -482.70721-482.70464 -62.35996 -62.35738 -56.18030
  Beta  occ. eigenvalues --  -56.17771 -56.17658 -56.17623 -56.17400 -56.17364
  Beta  occ. eigenvalues --  -19.02608 -18.96324 -18.94958 -10.11106 -10.11012
  Beta  occ. eigenvalues --  -10.10643 -10.10509 -10.10152 -10.05012 -10.04662
  Beta  occ. eigenvalues --   -8.56961  -8.56702  -6.40096  -6.39835  -6.38853
  Beta  occ. eigenvalues --   -6.38747  -6.38600  -6.38485  -2.51191  -2.50932
  Beta  occ. eigenvalues --   -2.50853  -2.50772  -2.50597  -2.50509  -2.49784
  Beta  occ. eigenvalues --   -2.49783  -2.49528  -2.49526  -0.94605  -0.87404
  Beta  occ. eigenvalues --   -0.87238  -0.73217  -0.68176  -0.66807  -0.62001
  Beta  occ. eigenvalues --   -0.56469  -0.53798  -0.46792  -0.44856  -0.40827
  Beta  occ. eigenvalues --   -0.37106  -0.32498  -0.31631  -0.30169  -0.28633
  Beta  occ. eigenvalues --   -0.28351  -0.28145  -0.27481  -0.25504  -0.24769
  Beta  occ. eigenvalues --   -0.23262  -0.22598  -0.19334  -0.17964  -0.17602
  Beta  occ. eigenvalues --   -0.15386  -0.13604  -0.12216  -0.11386  -0.10006
  Beta virt. eigenvalues --    0.02756   0.07951   0.09399   0.11180   0.11515
  Beta virt. eigenvalues --    0.12262   0.12592   0.13513   0.13575   0.14727
  Beta virt. eigenvalues --    0.15142   0.15469   0.15808   0.16413   0.17282

 Mulliken charges and spin densities:
               1          2
     1  C   -0.814697   0.114046
     2  C    0.788887   0.054225
     3  C   -0.072474   0.198537
     4  C   -0.714333   0.037943
     5  C    2.086670   0.037706
     6  C   -1.502275   0.039076
     7  O   -0.385376   0.246783
     8  O   -0.316872   0.239805
     9  O   -0.268886   0.011024
    10  C   -0.186216   0.005174
    11  Br  -0.170234   0.004455
    12  Br  -0.184630   0.011941
    13  H    0.149971   0.001572
    14  H    0.173416  -0.000105
    15  H    0.150703   0.001537
    16  H    0.266345  -0.003719
 Sum of Mulliken charges =  -1.00000   1.00000

 Dipole moment (field-independent basis, Debye):
    X=              2.5934    Y=             13.7916    Z=             -3.7849  Tot=             14.5348
 Quadrupole moment (field-independent basis, Debye-Ang):
   XX=           -119.8127   YY=           -159.8803   ZZ=           -104.6987
   XY=            -13.8995   XZ=              8.6187   YZ=             18.8266

  Exact polarizability: 178.985   0.242 181.512 -22.217 -28.705  95.900
 Approx polarizability: 284.659  38.410 283.210 -47.069 -53.716 154.377

                      1                      2                      3
                      A                      A                      A
 Frequencies --     56.6811                58.5957                88.3326
 Red. masses --      1.0372                12.7871                 6.9634
 Frc consts  --      0.0020                 0.0259                 0.0320
 IR Inten    --      0.2586                 0.0083                 4.8995

                      4                      5                      6
                      A                      A                      A
 Frequencies --    129.4271               146.9500               179.0898
 Red. masses --     56.0513                 5.8692                12.4636
 Frc consts  --      0.5532                 0.0747                 0.2355
 IR Inten    --      0.7830                 0.1917                 1.2774

                      7                      8                      9
                      A                      A                      A
 Frequencies --    179.3257               254.9890               269.6555
 Red. masses --      9.5550                 8.0705                10.2653
 Frc consts  --      0.1810                 0.3092                 0.4398
 IR Inten    --      1.0870                 1.0978                 0.0569

                     10                     11                     12
                      A                      A                      A
 Frequencies --    297.2379               312.2985               352.0008
 Red. masses --      4.4313                 5.9414                 6.4819
 Frc consts  --      0.2307                 0.3414                 0.4732
 IR Inten    --      3.1980                 0.1081                13.0011

                     13                     14                     15
                      A                      A                      A
 Frequencies --    365.6543               412.2715               502.3116
 Red. masses --     10.8137                 9.3247                12.8319
 Frc consts  --      0.8519                 0.9338                 1.9076
 IR Inten    --      0.2268                19.4720                 5.9318

                     16                     17                     18
                      A                      A                      A
 Frequencies --    530.8835               540.3049               701.6442
 Red. masses --      8.2854                 7.0780                 8.2595
 Frc consts  --      1.3758                 1.2174                 2.3957
 IR Inten    --      4.3563                 0.6399                 4.7675

                     19                     20                     21
                      A                      A                      A
 Frequencies --    705.6997               721.1459               721.4377
 Red. masses --      2.9341                 5.4361                 1.5551
 Frc consts  --      0.8609                 1.6656                 0.4769
 IR Inten    --     10.4551                15.6266                80.1526

                     22                     23                     24
                      A                      A                      A
 Frequencies --    772.1434               820.4609               955.4910
 Red. masses --      8.5314                 9.8471                 2.4908
 Frc consts  --      2.9969                 3.9055                 1.3398
 IR Inten    --     47.2702                92.1719                10.5360

                     25                     26                     27
                      A                      A                      A
 Frequencies --   1048.7935              1050.1315              1118.4082
 Red. masses --      3.9025                 1.4413                 4.1282
 Frc consts  --      2.5291                 0.9365                 3.0424
 IR Inten    --     46.6881                 0.0306                 9.0520

                     28                     29                     30
                      A                      A                      A
 Frequencies --   1210.7556              1232.4726              1327.6875
 Red. masses --      6.9381                 8.7562                 2.3843
 Frc consts  --      5.9924                 7.8364                 2.4763
 IR Inten    --    136.4390                78.5105                73.2402

                     31                     32                     33
                      A                      A                      A
 Frequencies --   1399.6718              1436.4611              1442.8005
 Red. masses --      1.2950                 2.4880                11.0486
 Frc consts  --      1.4947                 3.0248                13.5510
 IR Inten    --     20.5213               342.4322                 0.1297

                     34                     35                     36
                      A                      A                      A
 Frequencies --   1477.3576              1486.4095              1537.5366
 Red. masses --      1.0455                 1.0947                 9.5470
 Frc consts  --      1.3445                 1.4250                13.2975
 IR Inten    --      5.6514                36.8382               404.7315

                     37                     38                     39
                      A                      A                      A
 Frequencies --   1565.2201              1675.9401              3017.0026
 Red. masses --      8.6105                 6.1960                 1.0374
 Frc consts  --     12.4288                10.2537                 5.5635
 IR Inten    --     16.2497                21.2632                66.2727

                     40                     41                     42
                      A                      A                      A
 Frequencies --   3054.7972              3112.2552              3493.7509
 Red. masses --      1.0992                 1.0992                 1.0636
 Frc consts  --      6.0434                 6.2732                 7.6491
 IR Inten    --     31.0986                14.6621               103.6757

 - Thermochemistry -
 -------------------
 Temperature   298.150 Kelvin.  Pressure   1.00000 Atm.
 Atom     1 has atomic number  6 and mass  12.00000

 Molecular mass:   293.85272 amu.
 Principal axes and moments of inertia in atomic units:
                           1         2         3
     Eigenvalues --  3050.176483877.193066916.34009
           X            0.77237   0.59759   0.21524
           Y           -0.63513   0.72305   0.27167
           Z            0.00672  -0.34653   0.93801
 This molecule is an asymmetric top.
 Rotational symmetry number  1.
 Warning -- assumption of classical behavior for rotation
           may cause significant error
 Rotational temperatures (Kelvin)      0.02840     0.02234     0.01252
 Rotational constants (GHZ):           0.59168     0.46548     0.26094
 Zero-point vibrational energy     249789.1 (Joules/Mol)
                                   59.70104 (Kcal/Mol)
 Warning -- explicit consideration of  17 degrees of freedom as
           vibrations may cause significant error
 Vibrational temperatures:     81.55    84.31   127.09   186.22   211.43
          (Kelvin)            257.67   258.01   366.87   387.97   427.66
                              449.33   506.45   526.10   593.17   722.71
                              763.82   777.38  1009.51  1015.34  1037.57
                             1037.99  1110.94  1180.46  1374.74  1508.98
                             1510.91  1609.14  1742.01  1773.25  1910.25
                             2013.82  2066.75  2075.87  2125.59  2138.61
                             2212.17  2252.00  2411.30  4340.79  4395.17
                             4477.84  5026.73

 Zero-point correction=                           0.095140 (Hartree/Particle)
 Thermal correction to Energy=                    0.107073
 Thermal correction to Enthalpy=                  0.108017
 Thermal correction to Gibbs Free Energy=         0.054161
 Sum of electronic and zero-point Energies=          -5643.228521
 Sum of electronic and thermal Energies=             -5643.216588
 Sum of electronic and thermal Enthalpies=           -5643.215643
 Sum of electronic and thermal Free Energies=        -5643.269500

                     E (Thermal)             CV                S
                      KCal/Mol        Cal/Mol-Kelvin    Cal/Mol-Kelvin
 Total                   67.189             41.408            113.351
 Electronic               0.000              0.000              1.377
 Translational            0.889              2.981             42.931
 Rotational               0.889              2.981             32.770
 Vibrational             65.412             35.446             36.273
 Vibration     1          0.596              1.975              4.570
 Vibration     2          0.596              1.974              4.504
 Vibration     3          0.601              1.957              3.697
 Vibration     4          0.612              1.924              2.955
 Vibration     5          0.617              1.906              2.711
 Vibration     6          0.629              1.868              2.338
 Vibration     7          0.629              1.868              2.335
 Vibration     8          0.665              1.754              1.696
 Vibration     9          0.674              1.729              1.598
 Vibration    10          0.691              1.679              1.432
 Vibration    11          0.701              1.650              1.350
 Vibration    12          0.729              1.571              1.157
 Vibration    13          0.739              1.543              1.098
 Vibration    14          0.776              1.444              0.919
 Vibration    15          0.858              1.245              0.652
 Vibration    16          0.886              1.182              0.585
 Vibration    17          0.895              1.161              0.565

 Optimization completed.
    -- Stationary point found.
 Normal termination of Gaussian 16 at Thu Jan 25 06:12:41 2024.
