 Gaussian 16, Revision A.03,
 Gaussian 16:  ES64L-G16RevA.03 25-Dec-2016

 ----------------------------------------------------------------
 #P UB3LYP/6-311++G(d,p) SCRF=(PCM,Solvent=n,n-DiMethylFormamide)
 ----------------------------------------------------------------

 -------
 Reduced
 -------
 Symbolic Z-matrix:
 Charge = -2 Multiplicity = 1

                         Standard orientation:
 ---------------------------------------------------------------------
 Center     Atomic      Atomic             Coordinates (Angstroms)
 Number     Number       Type             X           Y           Z
 ---------------------------------------------------------------------
      1          7           0       -4.598287   -0.205584   -0.097118
      2          6           0       -3.225169    0.207366   -0.043155
      3          6           0       -2.928735    1.592590   -0.007277
      4          6           0       -1.620664    2.019798    0.023600
      5          6           0       -0.534952    1.111226   -0.003159
      6          6           0        0.810103    1.659163    0.003921
      7          8           0        1.042865    2.918909    0.016040
      8          6           0        1.871442    0.675078   -0.001704
      9          6           0        3.221728    1.102425    0.004278
     10          6           0        4.276729    0.212081    0.004428
     11          6           0        4.009684   -1.186930   -0.002093
     12          6           0        2.705843   -1.635569   -0.005599
     13          6           0        1.597912   -0.745159   -0.004803
     14          6           0        0.261224   -1.283713   -0.010041
     15          8           0        0.067572   -2.574525   -0.000256
     16          6           0       -0.810455   -0.313856   -0.025373
     17          6           0       -2.194570   -0.727546   -0.022925
     18          7           0       -2.524664   -2.109245   -0.024696
     19          1           0       -5.102247   -0.024843    0.776118
     20          1           0       -4.653587   -1.199595   -0.293722
     21          1           0       -3.752567    2.301883   -0.042277
     22          1           0       -1.369174    3.074642    0.042972
     23          1           0        3.386781    2.175665    0.009620
     24          1           0        5.303649    0.573451    0.008525
     25          1           0        4.833486   -1.899105   -0.004163
     26          1           0        2.473296   -2.695573   -0.009737
     27          1           0       -1.629790   -2.634385    0.036985
     28          1           0       -3.153396   -2.345109    0.741514
 ---------------------------------------------------------------------

 SCF Done:  E(UB3LYP) =  -799.940268300     A.U. after   17 cycles

 The electronic state is 1-A.
 Alpha  occ. eigenvalues --  -19.02153 -19.01928 -14.29508 -14.27572 -10.17923
 Alpha  occ. eigenvalues --  -10.17311 -10.17260 -10.17158 -10.14757 -10.14662
 Alpha  occ. eigenvalues --  -10.14446 -10.14363 -10.14334 -10.14082 -10.13681
 Alpha  occ. eigenvalues --  -10.13330 -10.13221 -10.13185  -0.94141  -0.93774
 Alpha  occ. eigenvalues --   -0.90077  -0.85522  -0.82269  -0.80115  -0.74480
 Alpha  occ. eigenvalues --   -0.72077  -0.70011  -0.69274  -0.63085  -0.60435
 Alpha  occ. eigenvalues --   -0.58718  -0.55497  -0.52644  -0.51074  -0.50027
 Alpha  occ. eigenvalues --   -0.47879  -0.46320  -0.44193  -0.44035  -0.43115
 Alpha  occ. eigenvalues --   -0.41740  -0.40401  -0.39600  -0.38076  -0.38038
 Alpha  occ. eigenvalues --   -0.37046  -0.35877  -0.35433  -0.34684  -0.32830
 Alpha  occ. eigenvalues --   -0.32493  -0.31886  -0.30872  -0.30080  -0.28117
 Alpha  occ. eigenvalues --   -0.26752  -0.22803  -0.22311  -0.20828  -0.20270
 Alpha  occ. eigenvalues --   -0.19469  -0.18366  -0.10228
 Alpha virt. eigenvalues --   -0.02023  -0.00300   0.00419   0.00659   0.01264
 Alpha virt. eigenvalues --    0.02216   0.02439   0.02887   0.04004   0.04287
 Alpha virt. eigenvalues --    0.04491   0.04865   0.05550   0.06261   0.06790

  Beta  occ. eigenvalues --  -19.02153 -19.01928 -14.29508 -14.27572 -10.17923
  Beta  occ. eigenvalues --  -10.17311 -10.17260 -10.17158 -10.14757 -10.14662
  Beta  occ. eigenvalues --  -10.14446 -10.14363 -10.14334 -10.14082 -10.13681
  Beta  occ. eigenvalues --  -10.13330 -10.13221 -10.13185  -0.94141  -0.93774
  Beta  occ. eigenvalues --   -0.90077  -0.85522  -0.82269  -0.80115  -0.74480
  Beta  occ. eigenvalues --   -0.72077  -0.70011  -0.69274  -0.63085  -0.60435
  Beta  occ. eigenvalues --   -0.58718  -0.55497  -0.52644  -0.51074  -0.50027
  Beta  occ. eigenvalues --   -0.47879  -0.46320  -0.44193  -0.44035  -0.43115
  Beta  occ. eigenvalues --   -0.41740  -0.40401  -0.39600  -0.38076  -0.38038
  Beta  occ. eigenvalues --   -0.37046  -0.35877  -0.35433  -0.34684  -0.32830
  Beta  occ. eigenvalues --   -0.32493  -0.31886  -0.30872  -0.30080  -0.28117
  Beta  occ. eigenvalues --   -0.26752  -0.22803  -0.22311  -0.20828  -0.20270
  Beta  occ. eigenvalues --   -0.19469  -0.18366  -0.10228
  Beta virt. eigenvalues --   -0.02023  -0.00300   0.00419   0.00659   0.01264
  Beta virt. eigenvalues --    0.02216   0.02439   0.02887   0.04004   0.04287
  Beta virt. eigenvalues --    0.04491   0.04865   0.05550   0.06261   0.06790

 Mulliken charges and spin densities:
               1          2
     1  N   -0.490785   0.000000
     2  C   -0.163738  -0.000000
     3  C   -0.355040   0.000000
     4  C   -0.102089  -0.000000
     5  C    0.379372  -0.000000
     6  C   -0.501494   0.000000
     7  O   -0.646504  -0.000000
     8  C    0.039802   0.000000
     9  C   -0.015383  -0.000000
    10  C   -0.466174   0.000000
    11  C   -0.532117   0.000000
    12  C    0.025368   0.000000
    13  C    0.169007  -0.000000
    14  C   -0.479588  -0.000000
    15  O   -0.639331   0.000000
    16  C    0.236147  -0.000000
    17  C    0.102457  -0.000000
    18  N   -0.540470   0.000000
    19  H    0.264187   0.000000
    20  H    0.252686  -0.000000
    21  H    0.171505   0.000000
    22  H    0.141904  -0.000000
    23  H    0.139988  -0.000000
    24  H    0.154961   0.000000
    25  H    0.154566   0.000000
    26  H    0.145876  -0.000000
    27  H    0.320843  -0.000000
    28  H    0.234043  -0.000000
 Sum of Mulliken charges =  -2.00000  -0.00000

 Dipole moment (field-independent basis, Debye):
    X=             -4.3231    Y=             -3.0616    Z=              2.6653  Tot=              5.9301
 Quadrupole moment (field-independent basis, Debye-Ang):
   XX=           -141.8041   YY=           -164.6168   ZZ=           -117.9894
   XY=             -3.5113   XZ=            -11.6549   YZ=             -3.1721

 Normal termination of Gaussian 16 at Sun Jan 14 01:31:27 2024.
