 Gaussian 16, Revision A.03,
 Gaussian 16:  ES64L-G16RevA.03 25-Dec-2016

 ----------------------------------------------------------------
 #P UB3LYP/6-311++G(d,p) SCRF=(PCM,Solvent=n,n-DiMethylFormamide)
 ----------------------------------------------------------------

 ------------------
 Quinone PCM in DMF
 ------------------
 Symbolic Z-matrix:
 Charge =  0 Multiplicity = 1

                         Standard orientation:
 ---------------------------------------------------------------------
 Center     Atomic      Atomic             Coordinates (Angstroms)
 Number     Number       Type             X           Y           Z
 ---------------------------------------------------------------------
      1          6           0       -1.412701   -1.384997    0.000303
      2          6           0       -2.631196   -0.707166    0.000395
      3          6           0       -2.631244    0.707163   -0.000456
      4          6           0       -0.197211   -0.699292   -0.000105
      5          6           0       -0.197260    0.699436   -0.000511
      6          6           0       -1.412785    1.385075   -0.000888
      7          6           0        1.084196   -1.453888   -0.000387
      8          6           0        2.363631   -0.677983   -0.000011
      9          6           0        2.363553    0.677898    0.001057
     10          6           0        1.084188    1.453911    0.000031
     11          8           0        1.097651   -2.676497   -0.000885
     12          8           0        1.097854    2.676539   -0.000242
     13          6           0        3.636927   -1.477371   -0.000912
     14          6           0        3.636821    1.477295    0.001538
     15          1           0       -1.388637   -2.468567    0.000492
     16          6           0       -3.925720   -1.480125    0.001539
     17          6           0       -3.925828    1.480041   -0.000835
     18          1           0        3.417318   -2.543244   -0.006513
     19          1           0        4.243520   -1.247785    0.881115
     20          1           0        4.247939   -1.238867   -0.877432
     21          1           0        4.242762    1.248320   -0.881136
     22          1           0        4.248524    1.238341    0.877539
     23          1           0        3.417365    2.543198    0.008056
     24          1           0       -1.388785    2.468649   -0.001299
     25          1           0       -3.740365   -2.554932   -0.003220
     26          1           0       -4.537051   -1.238839   -0.874123
     27          1           0       -4.530548   -1.245800    0.883715
     28          1           0       -4.532953    1.243360   -0.880733
     29          1           0       -3.740529    2.554868    0.000876
     30          1           0       -4.534827    1.240986    0.877129
 ---------------------------------------------------------------------

 SCF Done:  E(UB3LYP) =  -692.583120224     A.U. after   14 cycles

 The electronic state is 1-A.
 Alpha  occ. eigenvalues --  -19.13107 -19.13106 -10.27929 -10.27929 -10.21093
 Alpha  occ. eigenvalues --  -10.21021 -10.20328 -10.20281 -10.20071 -10.20018
 Alpha  occ. eigenvalues --  -10.19095 -10.19094 -10.17337 -10.17336 -10.17239
 Alpha  occ. eigenvalues --  -10.17239  -1.06505  -1.06324  -0.89034  -0.85263
 Alpha  occ. eigenvalues --   -0.80690  -0.78576  -0.74816  -0.72361  -0.72224
 Alpha  occ. eigenvalues --   -0.67616  -0.65904  -0.62053  -0.59536  -0.58073
 Alpha  occ. eigenvalues --   -0.54080  -0.50337  -0.50099  -0.47081  -0.46399
 Alpha  occ. eigenvalues --   -0.45677  -0.44785  -0.44715  -0.44511  -0.42385
 Alpha  occ. eigenvalues --   -0.42024  -0.41493  -0.41200  -0.40819  -0.39908
 Alpha  occ. eigenvalues --   -0.39858  -0.39719  -0.38622  -0.38251  -0.36189
 Alpha  occ. eigenvalues --   -0.35952  -0.35743  -0.28820  -0.28416  -0.27140
 Alpha  occ. eigenvalues --   -0.27053  -0.25957
 Alpha virt. eigenvalues --   -0.12078  -0.04991  -0.02582  -0.01010  -0.00275
 Alpha virt. eigenvalues --    0.00874   0.01890   0.01985   0.02303   0.03312
 Alpha virt. eigenvalues --    0.03374   0.03502   0.04083   0.04388   0.04814

  Beta  occ. eigenvalues --  -19.13107 -19.13106 -10.27929 -10.27929 -10.21093
  Beta  occ. eigenvalues --  -10.21021 -10.20328 -10.20281 -10.20071 -10.20018
  Beta  occ. eigenvalues --  -10.19095 -10.19094 -10.17337 -10.17336 -10.17239
  Beta  occ. eigenvalues --  -10.17239  -1.06505  -1.06324  -0.89034  -0.85263
  Beta  occ. eigenvalues --   -0.80690  -0.78576  -0.74816  -0.72361  -0.72224
  Beta  occ. eigenvalues --   -0.67616  -0.65904  -0.62053  -0.59536  -0.58073
  Beta  occ. eigenvalues --   -0.54080  -0.50337  -0.50099  -0.47081  -0.46399
  Beta  occ. eigenvalues --   -0.45677  -0.44785  -0.44715  -0.44511  -0.42385
  Beta  occ. eigenvalues --   -0.42024  -0.41493  -0.41200  -0.40819  -0.39908
  Beta  occ. eigenvalues --   -0.39858  -0.39719  -0.38622  -0.38251  -0.36189
  Beta  occ. eigenvalues --   -0.35952  -0.35743  -0.28820  -0.28416  -0.27140
  Beta  occ. eigenvalues --   -0.27053  -0.25957
  Beta virt. eigenvalues --   -0.12078  -0.04991  -0.02582  -0.01010  -0.00275
  Beta virt. eigenvalues --    0.00874   0.01890   0.01985   0.02303   0.03312
  Beta virt. eigenvalues --    0.03374   0.03502   0.04083   0.04388   0.04814

 Mulliken charges and spin densities:
               1          2
     1  C   -0.224349  -0.000000
     2  C    0.285536  -0.000000
     3  C    0.285362   0.000000
     4  C    0.129592  -0.000000
     5  C    0.129481   0.000000
     6  C   -0.224510   0.000000
     7  C   -0.666186  -0.000000
     8  C    0.440748   0.000000
     9  C    0.440821   0.000000
    10  C   -0.666162  -0.000000
    11  O   -0.288981   0.000000
    12  O   -0.288994   0.000000
    13  C   -0.409371   0.000000
    14  C   -0.409593  -0.000000
    15  H    0.144872   0.000000
    16  C   -0.478442  -0.000000
    17  C   -0.478468  -0.000000
    18  H    0.197564   0.000000
    19  H    0.174484  -0.000000
    20  H    0.173590  -0.000000
    21  H    0.174579  -0.000000
    22  H    0.173500   0.000000
    23  H    0.197571   0.000000
    24  H    0.144871   0.000000
    25  H    0.184617   0.000000
    26  H    0.167843  -0.000000
    27  H    0.168784  -0.000000
    28  H    0.168517   0.000000
    29  H    0.184614  -0.000000
    30  H    0.168108   0.000000
 Sum of Mulliken charges =  -0.00000   0.00000

 Dipole moment (field-independent basis, Debye):
    X=             -2.0429    Y=             -0.0003    Z=              0.0028  Tot=              2.0429
 Quadrupole moment (field-independent basis, Debye-Ang):
   XX=            -68.3873   YY=           -112.0190   ZZ=            -95.1415
   XY=             -0.0011   XZ=             -0.0024   YZ=             -0.0076

 Normal termination of Gaussian 16 at Sun Jan 21 08:00:21 2024.
