 Gaussian 16, Revision A.03,
 Gaussian 16:  ES64L-G16RevA.03 25-Dec-2016

 --------------------------------------
 #P UB3LYP/6-311++G(d,p) nosym opt freq
 --------------------------------------

 --------
 Oxidized
 --------
 Symbolic Z-matrix:
 Charge =  0 Multiplicity = 1

 SCF Done:  E(UB3LYP) =  -692.574233313     A.U. after   15 cycles
 SCF Done:  E(UB3LYP) =  -692.574287460     A.U. after   11 cycles
 SCF Done:  E(UB3LYP) =  -692.574253486     A.U. after   11 cycles
 SCF Done:  E(UB3LYP) =  -692.574289081     A.U. after   11 cycles
 SCF Done:  E(UB3LYP) =  -692.574290983     A.U. after    9 cycles
 SCF Done:  E(UB3LYP) =  -692.574291121     A.U. after    8 cycles
 SCF Done:  E(UB3LYP) =  -692.574292118     A.U. after   10 cycles
 SCF Done:  E(UB3LYP) =  -692.574294108     A.U. after   11 cycles
 SCF Done:  E(UB3LYP) =  -692.574300189     A.U. after   12 cycles
 SCF Done:  E(UB3LYP) =  -692.574304503     A.U. after   12 cycles
 SCF Done:  E(UB3LYP) =  -692.574455338     A.U. after    9 cycles
 SCF Done:  E(UB3LYP) =  -692.574458028     A.U. after   11 cycles
 SCF Done:  E(UB3LYP) =  -692.574460999     A.U. after   11 cycles
 SCF Done:  E(UB3LYP) =  -692.574400405     A.U. after   10 cycles
 SCF Done:  E(UB3LYP) =  -692.574403452     A.U. after   10 cycles
 SCF Done:  E(UB3LYP) =  -692.574405807     A.U. after   10 cycles
 SCF Done:  E(UB3LYP) =  -692.574406496     A.U. after   10 cycles
 SCF Done:  E(UB3LYP) =  -692.574407099     A.U. after    9 cycles
 SCF Done:  E(UB3LYP) =  -692.574407067     A.U. after    7 cycles
 Optimization completed.
    -- Stationary point found.
 Normal termination of Gaussian 16 at Fri Jan 19 22:32:40 2024.

 ----------------------------------------------------------------------
 #P Geom=AllCheck Guess=TCheck SCRF=Check GenChk UB3LYP/6-311++G(d,p) F
 req
 ----------------------------------------------------------------------

 Structure from the checkpoint file:  "256.chk"
 --------
 Oxidized
 --------
 Charge =  0 Multiplicity = 1

                          Input orientation:
 ---------------------------------------------------------------------
 Center     Atomic      Atomic             Coordinates (Angstroms)
 Number     Number       Type             X           Y           Z
 ---------------------------------------------------------------------
      1          6           0       -1.552187    2.789359   -0.057792
      2          6           0       -2.817961    2.205458   -0.025224
      3          6           0       -2.923791    0.796818    0.044490
      4          6           0       -0.391395    2.015407   -0.023654
      5          6           0       -0.496060    0.622284    0.044857
      6          6           0       -1.759455    0.030406    0.078274
      7          6           0        0.942857    2.671066   -0.059752
      8          6           0        2.160665    1.802447   -0.021987
      9          6           0        2.059171    0.451931    0.042965
     10          6           0        0.725358   -0.225149    0.081413
     11          8           0        1.047721    3.887813   -0.118780
     12          8           0        0.647540   -1.443908    0.141220
     13          6           0        3.490181    2.503357   -0.059649
     14          6           0        3.269072   -0.439629    0.081767
     15          1           0       -1.447146    3.866795   -0.110733
     16          6           0       -4.051042    3.072198   -0.064368
     17          6           0       -4.272548    0.123968    0.082135
     18          1           0        3.350929    3.581691   -0.106015
     19          1           0        4.074932    2.186427   -0.929280
     20          1           0        4.084588    2.262635    0.827616
     21          1           0        3.893408   -0.214059    0.952417
     22          1           0        3.893984   -0.289979   -0.804656
     23          1           0        2.970486   -1.485165    0.127095
     24          1           0       -1.816567   -1.050621    0.131451
     25          1           0       -3.785801    4.129070   -0.111895
     26          1           0       -4.675758    2.920181    0.821831
     27          1           0       -4.674666    2.841240   -0.934259
     28          1           0       -4.857306    0.447901    0.949294
     29          1           0       -4.168166   -0.960526    0.132812
     30          1           0       -4.864911    0.365018   -0.806600
 ---------------------------------------------------------------------

 SCF Done:  E(UB3LYP) =  -692.574407067     A.U. after    1 cycles

 Alpha  occ. eigenvalues --  -19.12365 -19.12365 -10.27269 -10.27268 -10.20925
 Alpha  occ. eigenvalues --  -10.20853 -10.20437 -10.20389 -10.19877 -10.19824
 Alpha  occ. eigenvalues --  -10.19004 -10.19002 -10.18231 -10.18231 -10.17456
 Alpha  occ. eigenvalues --  -10.17455  -1.05707  -1.05513  -0.88951  -0.85197
 Alpha  occ. eigenvalues --   -0.80824  -0.78671  -0.74818  -0.72686  -0.72456
 Alpha  occ. eigenvalues --   -0.67883  -0.65811  -0.62140  -0.59525  -0.57827
 Alpha  occ. eigenvalues --   -0.53858  -0.50160  -0.50058  -0.46721  -0.46318
 Alpha  occ. eigenvalues --   -0.45177  -0.44985  -0.44884  -0.44428  -0.42109
 Alpha  occ. eigenvalues --   -0.41973  -0.41701  -0.41505  -0.41162  -0.40407
 Alpha  occ. eigenvalues --   -0.40398  -0.39696  -0.38899  -0.38240  -0.36329
 Alpha  occ. eigenvalues --   -0.35814  -0.35788  -0.28152  -0.27994  -0.26892
 Alpha  occ. eigenvalues --   -0.26443  -0.26045
 Alpha virt. eigenvalues --   -0.11569  -0.04815  -0.02617  -0.01519  -0.00902
 Alpha virt. eigenvalues --    0.00709   0.01755   0.01998   0.02016   0.02546
 Alpha virt. eigenvalues --    0.03086   0.03566   0.03987   0.04487   0.04527

  Beta  occ. eigenvalues --  -19.12365 -19.12365 -10.27269 -10.27268 -10.20925
  Beta  occ. eigenvalues --  -10.20853 -10.20437 -10.20389 -10.19877 -10.19824
  Beta  occ. eigenvalues --  -10.19004 -10.19002 -10.18231 -10.18231 -10.17456
  Beta  occ. eigenvalues --  -10.17455  -1.05707  -1.05513  -0.88951  -0.85197
  Beta  occ. eigenvalues --   -0.80824  -0.78671  -0.74818  -0.72686  -0.72456
  Beta  occ. eigenvalues --   -0.67883  -0.65811  -0.62140  -0.59525  -0.57827
  Beta  occ. eigenvalues --   -0.53858  -0.50160  -0.50058  -0.46721  -0.46318
  Beta  occ. eigenvalues --   -0.45177  -0.44985  -0.44884  -0.44428  -0.42109
  Beta  occ. eigenvalues --   -0.41973  -0.41701  -0.41505  -0.41162  -0.40407
  Beta  occ. eigenvalues --   -0.40398  -0.39696  -0.38899  -0.38240  -0.36329
  Beta  occ. eigenvalues --   -0.35814  -0.35788  -0.28152  -0.27994  -0.26892
  Beta  occ. eigenvalues --   -0.26443  -0.26045
  Beta virt. eigenvalues --   -0.11569  -0.04815  -0.02617  -0.01519  -0.00902
  Beta virt. eigenvalues --    0.00709   0.01755   0.01998   0.02016   0.02546
  Beta virt. eigenvalues --    0.03086   0.03566   0.03987   0.04487   0.04527

 Mulliken charges and spin densities:
               1          2
     1  C   -0.228663  -0.000000
     2  C    0.315953   0.000000
     3  C    0.315856   0.000000
     4  C    0.136347  -0.000000
     5  C    0.136139   0.000000
     6  C   -0.228841  -0.000000
     7  C   -0.746680   0.000000
     8  C    0.429604   0.000000
     9  C    0.429624   0.000000
    10  C   -0.746642   0.000000
    11  O   -0.226871  -0.000000
    12  O   -0.226876  -0.000000
    13  C   -0.387951  -0.000000
    14  C   -0.388113  -0.000000
    15  H    0.142889  -0.000000
    16  C   -0.448344  -0.000000
    17  C   -0.448372   0.000000
    18  H    0.213213  -0.000000
    19  H    0.156939   0.000000
    20  H    0.156131   0.000000
    21  H    0.157015  -0.000000
    22  H    0.156056  -0.000000
    23  H    0.213217  -0.000000
    24  H    0.142883  -0.000000
    25  H    0.177658  -0.000000
    26  H    0.154586  -0.000000
    27  H    0.155501  -0.000000
    28  H    0.155225  -0.000000
    29  H    0.177657   0.000000
    30  H    0.154860  -0.000000
 Sum of Mulliken charges =  -0.00000   0.00000

 Dipole moment (field-independent basis, Debye):
    X=             -1.5613    Y=              0.1173    Z=             -0.0026  Tot=              1.5657
 Quadrupole moment (field-independent basis, Debye-Ang):
   XX=            -74.0220   YY=           -108.3493   ZZ=            -95.4474
   XY=             -4.6211   XZ=              0.0406   YZ=              0.6449

  Exact polarizability: 236.719  -3.119 195.408  -0.314  -4.851  96.100
 Approx polarizability: 311.395   4.804 375.066  -0.746 -10.748 155.751

                      1                      2                      3
                      A                      A                      A
 Frequencies --     32.9534                46.9874                74.5133
 Red. masses --      1.0423                 4.6134                 3.5018
 Frc consts  --      0.0007                 0.0060                 0.0115
 IR Inten    --      0.0015                 7.4188                 0.0000

                      4                      5                      6
                      A                      A                      A
 Frequencies --     91.2020               105.7568               118.5173
 Red. masses --      1.0730                 3.6456                 3.8731
 Frc consts  --      0.0053                 0.0240                 0.0321
 IR Inten    --      0.0048                 0.0000                 0.6023

                      7                      8                      9
                      A                      A                      A
 Frequencies --    122.6498               165.9605               183.6509
 Red. masses --      1.0383                 1.1312                 4.0681
 Frc consts  --      0.0092                 0.0184                 0.0808
 IR Inten    --      0.0005                 0.8437                 0.7923

                     10                     11                     12
                      A                      A                      A
 Frequencies --    218.7584               242.4265               292.6309
 Red. masses --      3.5613                 3.3030                 2.7119
 Frc consts  --      0.1004                 0.1144                 0.1368
 IR Inten    --      0.0000                 0.9396                 0.5298

                     13                     14                     15
                      A                      A                      A
 Frequencies --    311.9851               329.3157               342.5160
 Red. masses --      2.6060                 3.8305                 4.2841
 Frc consts  --      0.1494                 0.2448                 0.2961
 IR Inten    --      0.0369                 0.8988                 2.9849

                     16                     17                     18
                      A                      A                      A
 Frequencies --    353.0200               378.1249               426.3546
 Red. masses --      5.3393                 5.2994                 8.0966
 Frc consts  --      0.3920                 0.4464                 0.8672
 IR Inten    --      1.7385                 0.0106                32.6558

                     19                     20                     21
                      A                      A                      A
 Frequencies --    446.1096               459.7057               461.0909
 Red. masses --      2.9093                 4.2851                 3.7254
 Frc consts  --      0.3411                 0.5335                 0.4667
 IR Inten    --      3.6455                 0.0007                 0.0721

                     22                     23                     24
                      A                      A                      A
 Frequencies --    497.3317               570.4923               582.1156
 Red. masses --      9.9917                 4.3013                 4.3803
 Frc consts  --      1.4561                 0.8248                 0.8745
 IR Inten    --      0.2427                 1.7330                 0.0001

                     25                     26                     27
                      A                      A                      A
 Frequencies --    670.6888               675.2014               706.1916
 Red. masses --      4.5839                 5.9768                 3.6896
 Frc consts  --      1.2149                 1.6054                 1.0841
 IR Inten    --      1.7623                 4.2110                 0.0000

                     28                     29                     30
                      A                      A                      A
 Frequencies --    737.8050               744.0446               760.9890
 Red. masses --      5.3548                 3.8336                 4.5843
 Frc consts  --      1.7174                 1.2504                 1.5642
 IR Inten    --     20.7531                 0.2413                 2.5588

                     31                     32                     33
                      A                      A                      A
 Frequencies --    785.0050               906.3914               930.5899
 Red. masses --      6.2782                 3.4310                 2.7487
 Frc consts  --      2.2795                 1.6607                 1.4025
 IR Inten    --      0.0002                 2.9745                21.4115

                     34                     35                     36
                      A                      A                      A
 Frequencies --    930.8934               932.6194              1009.3286
 Red. masses --      1.3491                 1.3272                 1.3945
 Frc consts  --      0.6888                 0.6801                 0.8370
 IR Inten    --     11.4880                 0.0196                41.4334

                     37                     38                     39
                      A                      A                      A
 Frequencies --   1022.2211              1033.5710              1038.4857
 Red. masses --      1.4564                 1.5409                 1.6362
 Frc consts  --      0.8966                 0.9699                 1.0396
 IR Inten    --      0.1428                 0.1295                63.7501

                     40                     41                     42
                      A                      A                      A
 Frequencies --   1048.2327              1056.7270              1068.2790
 Red. masses --      1.4651                 1.5436                 1.6341
 Frc consts  --      0.9485                 1.0156                 1.0987
 IR Inten    --      6.6873                 0.0006                 0.0010

                     43                     44                     45
                      A                      A                      A
 Frequencies --   1103.4027              1126.0552              1163.1559
 Red. masses --      6.1840                 2.2748                 2.1913
 Frc consts  --      4.4360                 1.6995                 1.7468
 IR Inten    --      6.3280                 0.0461                 8.0782

                     46                     47                     48
                      A                      A                      A
 Frequencies --   1207.7540              1233.3039              1274.7738
 Red. masses --      5.0942                 2.9068                 1.3033
 Frc consts  --      4.3780                 2.6050                 1.2478
 IR Inten    --      2.3016                29.1470                 2.0272

                     49                     50                     51
                      A                      A                      A
 Frequencies --   1309.9339              1322.2972              1351.6774
 Red. masses --      4.3879                 8.6495                 7.0818
 Frc consts  --      4.4361                 8.9104                 7.6232
 IR Inten    --     44.3592               420.0005                 8.2483

                     52                     53                     54
                      A                      A                      A
 Frequencies --   1400.3998              1406.9645              1410.2092
 Red. masses --      1.3231                 1.2096                 1.2851
 Frc consts  --      1.5288                 1.4108                 1.5057
 IR Inten    --     16.8478                23.3255                 0.8599

                     55                     56                     57
                      A                      A                      A
 Frequencies --   1421.9960              1429.2409              1478.4019
 Red. masses --      1.2442                 3.3725                 1.0449
 Frc consts  --      1.4823                 4.0590                 1.3456
 IR Inten    --      5.3133                 0.5392                 0.0011

                     58                     59                     60
                      A                      A                      A
 Frequencies --   1478.4947              1480.4942              1488.3294
 Red. masses --      1.0654                 1.1034                 1.0449
 Frc consts  --      1.3722                 1.4250                 1.3638
 IR Inten    --      0.4547                30.6579                 0.0020

                     61                     62                     63
                      A                      A                      A
 Frequencies --   1492.5065              1493.7550              1495.0407
 Red. masses --      1.0433                 1.2514                 1.1719
 Frc consts  --      1.3693                 1.6451                 1.5434
 IR Inten    --     19.5297                15.8337                 0.3040

                     64                     65                     66
                      A                      A                      A
 Frequencies --   1502.7076              1521.5170              1599.8597
 Red. masses --      1.0451                 2.7440                 8.2440
 Frc consts  --      1.3904                 3.7428                12.4323
 IR Inten    --     22.9079                 0.1300                 6.9730

                     67                     68                     69
                      A                      A                      A
 Frequencies --   1634.2050              1657.1599              1703.6328
 Red. masses --      6.3130                 9.1282                12.5376
 Frc consts  --      9.9335                14.7695                21.4396
 IR Inten    --    147.1993                45.6001                21.7161

                     70                     71                     72
                      A                      A                      A
 Frequencies --   1711.2698              3020.9959              3021.4195
 Red. masses --     11.9305                 1.0391                 1.0382
 Frc consts  --     20.5847                 5.5874                 5.5839
 IR Inten    --    350.9210                 4.6169                60.8307

                     73                     74                     75
                      A                      A                      A
 Frequencies --   3022.2572              3025.2425              3063.4780
 Red. masses --      1.0399                 1.0410                 1.0990
 Frc consts  --      5.5964                 5.6135                 6.0770
 IR Inten    --     24.6013                 0.6236                24.3022

                     76                     77                     78
                      A                      A                      A
 Frequencies --   3064.6277              3066.6708              3070.7097
 Red. masses --      1.0994                 1.0994                 1.0992
 Frc consts  --      6.0835                 6.0920                 6.1069
 IR Inten    --     29.3084                 0.0093                 0.0345

                     79                     80                     81
                      A                      A                      A
 Frequencies --   3111.0438              3112.1541              3140.4725
 Red. masses --      1.0994                 1.0991                 1.0964
 Frc consts  --      6.2695                 6.2722                 6.3713
 IR Inten    --     28.3217                 0.6660                 3.5396

                     82                     83                     84
                      A                      A                      A
 Frequencies --   3141.0502              3185.2460              3186.9014
 Red. masses --      1.0969                 1.0902                 1.0906
 Frc consts  --      6.3761                 6.5168                 6.5259
 IR Inten    --      5.0177                 1.4796                 4.5768

 - Thermochemistry -
 -------------------
 Temperature   298.150 Kelvin.  Pressure   1.00000 Atm.
 Atom     1 has atomic number  6 and mass  12.00000

 Molecular mass:   214.09938 amu.
 Principal axes and moments of inertia in atomic units:
                           1         2         3
     Eigenvalues --  1867.051484715.428806537.97455
           X            0.99719   0.07479   0.00337
           Y           -0.07487   0.99601   0.04856
           Z            0.00028  -0.04868   0.99881
 This molecule is an asymmetric top.
 Rotational symmetry number  1.
 Warning -- assumption of classical behavior for rotation
           may cause significant error
 Rotational temperatures (Kelvin)      0.04639     0.01837     0.01325
 Rotational constants (GHZ):           0.96663     0.38273     0.27604
 Zero-point vibrational energy     634273.5 (Joules/Mol)
                                  151.59500 (Kcal/Mol)
 Warning -- explicit consideration of  24 degrees of freedom as
           vibrations may cause significant error
 Vibrational temperatures:     47.41    67.60   107.21   131.22   152.16
          (Kelvin)            170.52   176.47   238.78   264.23   314.74
                              348.80   421.03   448.88   473.81   492.80
                              507.92   544.04   613.43   641.85   661.41
                              663.41   715.55   820.81   837.53   964.97
                              971.46  1016.05  1061.54  1070.51  1094.89
                             1129.45  1304.09  1338.91  1339.35  1341.83
                             1452.20  1470.75  1487.08  1494.15  1508.17
                             1520.39  1537.02  1587.55  1620.14  1673.52
                             1737.69  1774.45  1834.12  1884.70  1902.49
                             1944.76  2014.86  2024.31  2028.98  2045.94
                             2056.36  2127.09  2127.22  2130.10  2141.37
                             2147.38  2149.18  2151.03  2162.06  2189.12
                             2301.84  2351.26  2384.28  2451.15  2462.14
                             4346.54  4347.15  4348.35  4352.65  4407.66
                             4409.32  4412.26  4418.07  4476.10  4477.70
                             4518.44  4519.27  4582.86  4585.24

 Zero-point correction=                           0.241582 (Hartree/Particle)
 Thermal correction to Energy=                    0.257302
 Thermal correction to Enthalpy=                  0.258246
 Thermal correction to Gibbs Free Energy=         0.198076
 Sum of electronic and zero-point Energies=           -692.332825
 Sum of electronic and thermal Energies=              -692.317105
 Sum of electronic and thermal Enthalpies=            -692.316161
 Sum of electronic and thermal Free Energies=         -692.376331

                     E (Thermal)             CV                S
                      KCal/Mol        Cal/Mol-Kelvin    Cal/Mol-Kelvin
 Total                  161.459             58.329            126.638
 Electronic               0.000              0.000              0.000
 Translational            0.889              2.981             41.987
 Rotational               0.889              2.981             32.420
 Vibrational            159.682             52.367             52.231
 Vibration     1          0.594              1.983              5.643
 Vibration     2          0.595              1.979              4.940
 Vibration     3          0.599              1.966              4.030
 Vibration     4          0.602              1.955              3.634
 Vibration     5          0.605              1.945              3.345
 Vibration     6          0.609              1.934              3.124
 Vibration     7          0.610              1.930              3.058
 Vibration     8          0.624              1.884              2.481
 Vibration     9          0.631              1.862              2.291
 Vibration    10          0.647              1.813              1.969
 Vibration    11          0.659              1.775              1.785
 Vibration    12          0.688              1.687              1.459
 Vibration    13          0.700              1.651              1.352
 Vibration    14          0.712              1.617              1.263
 Vibration    15          0.722              1.590              1.200
 Vibration    16          0.729              1.569              1.153
 Vibration    17          0.748              1.517              1.047
 Vibration    18          0.788              1.413              0.871
 Vibration    19          0.805              1.369              0.808
 Vibration    20          0.818              1.339              0.767
 Vibration    21          0.819              1.336              0.763
 Vibration    22          0.853              1.256              0.665
 Vibration    23          0.927              1.095              0.503
 Vibration    24          0.939              1.070              0.481

                           ! Non-Optimized Parameters !
 Normal termination of Gaussian 16 at Fri Jan 19 22:57:57 2024.
