 Gaussian 16, Revision A.03,
 Gaussian 16:  ES64L-G16RevA.03 25-Dec-2016

 ----------------------------------------------------------------
 #P UB3LYP/6-311++G(d,p) SCRF=(PCM,Solvent=n,n-DiMethylFormamide)
 ----------------------------------------------------------------

 ------------------
 Radical PCM in DMF
 ------------------
 Symbolic Z-matrix:
 Charge = -1 Multiplicity = 2

                         Standard orientation:
 ---------------------------------------------------------------------
 Center     Atomic      Atomic             Coordinates (Angstroms)
 Number     Number       Type             X           Y           Z
 ---------------------------------------------------------------------
      1          7           0       -4.585374   -0.218554   -0.110777
      2          6           0       -3.231886    0.199637   -0.017406
      3          6           0       -2.937607    1.574842    0.005263
      4          6           0       -1.630709    2.011490    0.022512
      5          6           0       -0.560006    1.098571   -0.003779
      6          6           0        0.801791    1.641647   -0.000920
      7          8           0        1.023803    2.876950    0.008999
      8          6           0        1.889710    0.665545   -0.004090
      9          6           0        3.227810    1.114334   -0.000434
     10          6           0        4.281451    0.222141    0.003312
     11          6           0        4.023042   -1.167268    0.003381
     12          6           0        2.722329   -1.628190   -0.000134
     13          6           0        1.626966   -0.732903   -0.003936
     14          6           0        0.270389   -1.270697   -0.010637
     15          8           0        0.090011   -2.531267   -0.006134
     16          6           0       -0.829362   -0.307804   -0.020454
     17          6           0       -2.195242   -0.740911   -0.006584
     18          7           0       -2.531865   -2.111935   -0.029479
     19          1           0       -5.191700    0.156433    0.606811
     20          1           0       -4.689563   -1.219675   -0.198235
     21          1           0       -3.759535    2.285040   -0.020376
     22          1           0       -1.387106    3.066638    0.035976
     23          1           0        3.391731    2.185917    0.000179
     24          1           0        5.305251    0.584568    0.005839
     25          1           0        4.849580   -1.872095    0.005309
     26          1           0        2.498548   -2.688348   -0.001419
     27          1           0       -1.671075   -2.668749    0.025799
     28          1           0       -3.188030   -2.364365    0.702429
 ---------------------------------------------------------------------

 SCF Done:  E(UB3LYP) =  -799.848924012     A.U. after   19 cycles

 The electronic state is 2-A.
 Alpha  occ. eigenvalues --  -19.07606 -19.07206 -14.31245 -14.29877 -10.22428
 Alpha  occ. eigenvalues --  -10.22159 -10.20690 -10.20380 -10.17427 -10.17129
 Alpha  occ. eigenvalues --  -10.17071 -10.17041 -10.16893 -10.16826 -10.16781
 Alpha  occ. eigenvalues --  -10.16683 -10.16580 -10.16142  -1.00196  -0.99897
 Alpha  occ. eigenvalues --   -0.92765  -0.88064  -0.85609  -0.83222  -0.77668
 Alpha  occ. eigenvalues --   -0.74893  -0.73208  -0.72254  -0.66231  -0.63420
 Alpha  occ. eigenvalues --   -0.61757  -0.58471  -0.55797  -0.53986  -0.53011
 Alpha  occ. eigenvalues --   -0.50606  -0.48787  -0.47260  -0.46762  -0.46207
 Alpha  occ. eigenvalues --   -0.44603  -0.43406  -0.42248  -0.42055  -0.41350
 Alpha  occ. eigenvalues --   -0.41030  -0.39610  -0.38333  -0.37925  -0.37603
 Alpha  occ. eigenvalues --   -0.35601  -0.34994  -0.34528  -0.33446  -0.30710
 Alpha  occ. eigenvalues --   -0.29896  -0.26223  -0.25545  -0.24575  -0.23796
 Alpha  occ. eigenvalues --   -0.23170  -0.20531  -0.13649
 Alpha virt. eigenvalues --   -0.04744  -0.01726  -0.00618   0.00159   0.00571
 Alpha virt. eigenvalues --    0.00990   0.01900   0.02148   0.03689   0.03893
 Alpha virt. eigenvalues --    0.04217   0.04338   0.04902   0.05589   0.06138

  Beta  occ. eigenvalues --  -19.07065 -19.06725 -14.31227 -14.29850 -10.22196
  Beta  occ. eigenvalues --  -10.21998 -10.20642 -10.20299 -10.17413 -10.17086
  Beta  occ. eigenvalues --  -10.17010 -10.16968 -10.16853 -10.16778 -10.16767
  Beta  occ. eigenvalues --  -10.16663 -10.16532 -10.16118  -0.99285  -0.99003
  Beta  occ. eigenvalues --   -0.92641  -0.87996  -0.85369  -0.83092  -0.77307
  Beta  occ. eigenvalues --   -0.74666  -0.73053  -0.72023  -0.65528  -0.63252
  Beta  occ. eigenvalues --   -0.61521  -0.58381  -0.55566  -0.53798  -0.52883
  Beta  occ. eigenvalues --   -0.50508  -0.48672  -0.47009  -0.46641  -0.46051
  Beta  occ. eigenvalues --   -0.44523  -0.43271  -0.42173  -0.41211  -0.40951
  Beta  occ. eigenvalues --   -0.40547  -0.39346  -0.38019  -0.37430  -0.35731
  Beta  occ. eigenvalues --   -0.35454  -0.34822  -0.33662  -0.33282  -0.30354
  Beta  occ. eigenvalues --   -0.29155  -0.24870  -0.24540  -0.24103  -0.23331
  Beta  occ. eigenvalues --   -0.22731  -0.19734
  Beta virt. eigenvalues --   -0.08024  -0.03752  -0.00824  -0.00581   0.00172
  Beta virt. eigenvalues --    0.00916   0.01021   0.01917   0.02146   0.03757
  Beta virt. eigenvalues --    0.03908   0.04228   0.04358   0.05194   0.05921

 Mulliken charges and spin densities:
               1          2
     1  N   -0.427394   0.009250
     2  C   -0.284944   0.057629
     3  C   -0.326057   0.016705
     4  C   -0.035904   0.039272
     5  C    0.450125   0.015945
     6  C   -0.470979   0.089534
     7  O   -0.465581   0.179320
     8  C    0.043873   0.036573
     9  C    0.066825   0.014654
    10  C   -0.477153   0.050165
    11  C   -0.500534   0.031400
    12  C    0.139524   0.040325
    13  C    0.152857   0.036848
    14  C   -0.551837   0.120914
    15  O   -0.456783   0.199080
    16  C    0.409289  -0.004767
    17  C    0.099860   0.069067
    18  N   -0.489832   0.012892
    19  H    0.266403   0.001581
    20  H    0.262470  -0.000045
    21  H    0.194164  -0.001791
    22  H    0.159751  -0.002704
    23  H    0.160506  -0.000614
    24  H    0.178134  -0.004031
    25  H    0.179675  -0.002744
    26  H    0.164729  -0.001663
    27  H    0.318211  -0.003372
    28  H    0.240603   0.000577
 Sum of Mulliken charges =  -1.00000   1.00000

 Dipole moment (field-independent basis, Debye):
    X=             -3.5003    Y=             -2.3367    Z=              2.5516  Tot=              4.9217
 Quadrupole moment (field-independent basis, Debye-Ang):
   XX=           -102.3378   YY=           -137.7032   ZZ=           -112.7240
   XY=             -3.7665   XZ=            -11.0624   YZ=             -2.9951

 Normal termination of Gaussian 16 at Sun Jan 14 01:22:33 2024.
