 Gaussian 16, Revision A.03,
 Gaussian 16:  ES64L-G16RevA.03 25-Dec-2016

 ----------------------------------------------------------------
 #P UB3LYP/6-311++G(d,p) SCRF=(PCM,Solvent=n,n-DiMethylFormamide)
 ----------------------------------------------------------------

 ------------------
 Quinone PCM in DMF
 ------------------
 Symbolic Z-matrix:
 Charge =  0 Multiplicity = 1

                         Standard orientation:
 ---------------------------------------------------------------------
 Center     Atomic      Atomic             Coordinates (Angstroms)
 Number     Number       Type             X           Y           Z
 ---------------------------------------------------------------------
      1          6           0        1.696827    1.694917   -0.000002
      2          6           0        2.884365    0.969078   -0.000027
      3          6           0        2.851331   -0.417518   -0.000031
      4          6           0        1.632858   -1.110166   -0.000002
      5          6           0        0.416183   -0.391777    0.000082
      6          6           0        0.480207    1.020151    0.000068
      7          6           0       -0.775498    1.836892   -0.000006
      8          6           0       -2.057952    1.119258   -0.000197
      9          6           0       -2.147001   -0.221994   -0.000121
     10          6           0       -0.907482   -1.075893    0.000197
     11          8           0       -0.741985    3.058626    0.000122
     12          8           0       -1.033287   -2.288283    0.000122
     13          1           0        1.691173    2.776948   -0.000090
     14          1           0        3.777754   -0.984990   -0.000101
     15          8           0        1.615838   -2.463737   -0.000072
     16          6           0       -3.452376   -0.956811   -0.000053
     17          1           0        3.839052    1.482395   -0.000100
     18          1           0       -2.941553    1.749643   -0.000319
     19          1           0        2.522268   -2.792162   -0.000271
     20          1           0       -4.292345   -0.261284   -0.000887
     21          1           0       -3.525132   -1.609389    0.874141
     22          1           0       -3.524516   -1.610842   -0.873195
 ---------------------------------------------------------------------

 SCF Done:  E(UB3LYP) =  -649.844911392     A.U. after   14 cycles

 The electronic state is 1-A.
 Alpha  occ. eigenvalues --  -19.17622 -19.13265 -19.13128 -10.28369 -10.28172
 Alpha  occ. eigenvalues --  -10.27090 -10.22024 -10.21095 -10.21042 -10.20292
 Alpha  occ. eigenvalues --  -10.20072 -10.20002 -10.19364 -10.17753  -1.09355
 Alpha  occ. eigenvalues --   -1.06626  -1.06462  -0.88963  -0.84671  -0.79036
 Alpha  occ. eigenvalues --   -0.77415  -0.73131  -0.68502  -0.66161  -0.62728
 Alpha  occ. eigenvalues --   -0.60601  -0.55707  -0.54549  -0.50938  -0.50762
 Alpha  occ. eigenvalues --   -0.48104  -0.47228  -0.46445  -0.45968  -0.43433
 Alpha  occ. eigenvalues --   -0.43236  -0.42526  -0.42210  -0.40586  -0.39971
 Alpha  occ. eigenvalues --   -0.39885  -0.38552  -0.38130  -0.36086  -0.29889
 Alpha  occ. eigenvalues --   -0.28587  -0.28190  -0.27170  -0.25512
 Alpha virt. eigenvalues --   -0.12372  -0.04883  -0.03465  -0.00834   0.00119
 Alpha virt. eigenvalues --    0.00709   0.02075   0.02403   0.02771   0.03305
 Alpha virt. eigenvalues --    0.03788   0.04917   0.05131   0.05267   0.06048

  Beta  occ. eigenvalues --  -19.17622 -19.13265 -19.13128 -10.28369 -10.28172
  Beta  occ. eigenvalues --  -10.27090 -10.22024 -10.21095 -10.21042 -10.20292
  Beta  occ. eigenvalues --  -10.20072 -10.20002 -10.19364 -10.17753  -1.09355
  Beta  occ. eigenvalues --   -1.06626  -1.06462  -0.88963  -0.84671  -0.79036
  Beta  occ. eigenvalues --   -0.77415  -0.73131  -0.68502  -0.66161  -0.62728
  Beta  occ. eigenvalues --   -0.60601  -0.55707  -0.54549  -0.50938  -0.50762
  Beta  occ. eigenvalues --   -0.48104  -0.47228  -0.46445  -0.45968  -0.43433
  Beta  occ. eigenvalues --   -0.43236  -0.42526  -0.42210  -0.40586  -0.39971
  Beta  occ. eigenvalues --   -0.39885  -0.38552  -0.38130  -0.36086  -0.29889
  Beta  occ. eigenvalues --   -0.28587  -0.28190  -0.27170  -0.25512
  Beta virt. eigenvalues --   -0.12372  -0.04883  -0.03465  -0.00834   0.00119
  Beta virt. eigenvalues --    0.00709   0.02075   0.02403   0.02771   0.03305
  Beta virt. eigenvalues --    0.03788   0.04917   0.05131   0.05267   0.06048

 Mulliken charges and spin densities:
               1          2
     1  C   -0.041823   0.000000
     2  C   -0.300154  -0.000000
     3  C   -0.171671  -0.000000
     4  C    0.246244  -0.000000
     5  C   -0.158070   0.000000
     6  C    0.880176  -0.000000
     7  C   -0.940134  -0.000000
     8  C   -0.358858   0.000000
     9  C    0.663298   0.000000
    10  C   -0.392878  -0.000000
    11  O   -0.297264   0.000000
    12  O   -0.268377   0.000000
    13  H    0.176877   0.000000
    14  H    0.182555   0.000000
    15  O   -0.209650   0.000000
    16  C   -0.295211   0.000000
    17  H    0.222380  -0.000000
    18  H    0.196984   0.000000
    19  H    0.306312  -0.000000
    20  H    0.177719   0.000000
    21  H    0.190815  -0.000000
    22  H    0.190731  -0.000000
 Sum of Mulliken charges =  -0.00000  -0.00000

 Dipole moment (field-independent basis, Debye):
    X=              3.4874    Y=             -1.1646    Z=             -0.0007  Tot=              3.6767
 Quadrupole moment (field-independent basis, Debye-Ang):
   XX=            -53.1407   YY=            -98.6467   ZZ=            -81.8052
   XY=             -4.5418   XZ=             -0.0019   YZ=              0.0000

 Normal termination of Gaussian 16 at Thu Jan 25 05:44:40 2024.
