 Q-Chem 5.4, Q-Chem, Inc., Pleasanton, CA (2021)
 Q-Chem 5.4.0 for Intel X86 EM64T Linux

User input:
--------------------------------------------------------------
$molecule
-2 1
O                  4.6107690000      1.5369120000     -1.4456830000
C                  3.4761890000      0.9818780000     -0.8527360000
C                  2.2186440000      1.2256160000     -1.3494790000
C                  1.0829390000      0.6336010000     -0.7066140000
C                 -0.2282790000      0.8497020000     -1.1733110000
O                 -0.4167630000      1.6487740000     -2.2734800000
C                 -1.3383540000      0.2620780000     -0.5327440000
C                 -2.6829190000      0.4926960000     -1.0234790000
O                 -2.9483690000      1.2431920000     -2.0682230000
C                 -3.7591710000     -0.1098950000     -0.3577810000
O                 -5.0185270000      0.1509160000     -0.8776180000
C                 -3.5587260000     -0.9254450000      0.7660170000
O                 -4.6872030000     -1.4867740000      1.3692320000
C                 -2.2905060000     -1.1635370000      1.2564240000
C                 -1.1511870000     -0.5795490000      0.6241810000
C                  0.1573060000     -0.7970200000      1.0926390000
O                  0.3413980000     -1.5990920000      2.1956820000
C                  1.2655400000     -0.2113010000      0.4536060000
C                  2.6081610000     -0.4468440000      0.9507280000
O                  2.8847460000     -1.1961740000      1.9959160000
C                  3.6591680000      0.1618040000      0.2732670000
O                  4.9491030000     -0.0720780000      0.7619670000
H                  5.3546760000      1.2210560000     -0.9180450000
H                  2.0769850000      1.8565840000     -2.2162300000
H                 -1.4080560000      1.6551600000     -2.4155210000
H                 -4.7792020000      0.7333760000     -1.6286510000
H                 -4.3569000000     -2.0052760000      2.1095220000
H                 -2.1409320000     -1.7953380000      2.1263830000
H                  1.3308530000     -1.6082640000      2.3413840000
H                  4.7486180000     -0.6567590000      1.5226490000
$end

$rem
BASIS  =  6-311++G(d,p)
GUI  =  2
JOB_TYPE  =  SP
METHOD  =  B3LYP
SCF_CONVERGENCE  = 8
SOLVENT_METHOD = sm12
$end

$smx
solvent dimethylformamide
charges CM5
$end

--------------------------------------------------------------

             Standard Nuclear Orientation (Angstroms)
    I     Atom           X                Y                Z
 ----------------------------------------------------------------
    1      O       4.6107690000     1.5369120000    -1.4456830000
    2      C       3.4761890000     0.9818780000    -0.8527360000
    3      C       2.2186440000     1.2256160000    -1.3494790000
    4      C       1.0829390000     0.6336010000    -0.7066140000
    5      C      -0.2282790000     0.8497020000    -1.1733110000
    6      O      -0.4167630000     1.6487740000    -2.2734800000
    7      C      -1.3383540000     0.2620780000    -0.5327440000
    8      C      -2.6829190000     0.4926960000    -1.0234790000
    9      O      -2.9483690000     1.2431920000    -2.0682230000
   10      C      -3.7591710000    -0.1098950000    -0.3577810000
   11      O      -5.0185270000     0.1509160000    -0.8776180000
   12      C      -3.5587260000    -0.9254450000     0.7660170000
   13      O      -4.6872030000    -1.4867740000     1.3692320000
   14      C      -2.2905060000    -1.1635370000     1.2564240000
   15      C      -1.1511870000    -0.5795490000     0.6241810000
   16      C       0.1573060000    -0.7970200000     1.0926390000
   17      O       0.3413980000    -1.5990920000     2.1956820000
   18      C       1.2655400000    -0.2113010000     0.4536060000
   19      C       2.6081610000    -0.4468440000     0.9507280000
   20      O       2.8847460000    -1.1961740000     1.9959160000
   21      C       3.6591680000     0.1618040000     0.2732670000
   22      O       4.9491030000    -0.0720780000     0.7619670000
   23      H       5.3546760000     1.2210560000    -0.9180450000
   24      H       2.0769850000     1.8565840000    -2.2162300000
   25      H      -1.4080560000     1.6551600000    -2.4155210000
   26      H      -4.7792020000     0.7333760000    -1.6286510000
   27      H      -4.3569000000    -2.0052760000     2.1095220000
   28      H      -2.1409320000    -1.7953380000     2.1263830000
   29      H       1.3308530000    -1.6082640000     2.3413840000
   30      H       4.7486180000    -0.6567590000     1.5226490000
 ----------------------------------------------------------------

   15   -1140.4998718892      6.16e-09  Convergence criterion met
 Total energy in the final basis set =    -1140.7595182881

                    Orbital Energies (a.u.)
 --------------------------------------------------------------

 Alpha MOs
 -- Occupied --
-19.1473 -19.1470 -19.1366 -19.1244 -19.1118 -19.1106 -19.0617 -19.0613
-10.2215 -10.2204 -10.2067 -10.2062 -10.2052 -10.2045 -10.1933 -10.1929
-10.1637 -10.1633 -10.1601 -10.1594 -10.1488 -10.1461  -1.0588  -1.0531
 -1.0342  -1.0333  -1.0244  -1.0233  -0.9602  -0.9596  -0.8454  -0.8184
 -0.7703  -0.7339  -0.7169  -0.7090  -0.6659  -0.6316  -0.6155  -0.5933
 -0.5741  -0.5510  -0.5317  -0.5266  -0.5160  -0.5080  -0.4962  -0.4730
 -0.4579  -0.4454  -0.4303  -0.4280  -0.4169  -0.4163  -0.4083  -0.4037
 -0.4012  -0.3917  -0.3824  -0.3776  -0.3735  -0.3625  -0.3616  -0.3601
 -0.3556  -0.3476  -0.3401  -0.3272  -0.3247  -0.3160  -0.2968  -0.2833
 -0.2455  -0.2376  -0.2355  -0.2133  -0.1980  -0.1786  -0.1317

          Ground-State Mulliken Net Atomic Charges

     Atom                 Charge (a.u.)
  ----------------------------------------
      1 O                    -0.144200
      2 C                     1.062708
      3 C                    -0.704501
      4 C                    -0.760496
      5 C                    -1.480145
      6 O                    -0.294605
      7 C                    -0.838123
      8 C                    -0.712715
      9 O                    -0.480737
     10 C                     0.631349
     11 O                    -0.242233
     12 C                     1.555784
     13 O                    -0.140622
     14 C                     0.436609
     15 C                    -0.622057
     16 C                    -1.302286
     17 O                    -0.264243
     18 C                    -0.974766
     19 C                    -0.499473
     20 O                    -0.464836
     21 C                     1.949728
     22 O                    -0.211203
     23 H                     0.370395
     24 H                     0.101088
     25 H                     0.409561
     26 H                     0.334437
     27 H                     0.379641
     28 H                     0.147334
     29 H                     0.398276
     30 H                     0.360331
  ----------------------------------------
  Sum of atomic charges =    -2.000000

                    Cartesian Multipole Moments
 -----------------------------------------------------------------
    Charge (ESU x 10^10)
                -9.6064
    Dipole Moment (Debye)
         X       1.9355      Y      -1.6531      Z       2.4912
       Tot       3.5616
    Quadrupole Moments (Debye-Ang)
        XX    -233.3464     XY       0.1036     YY    -149.6048
        XZ     -13.0078     YZ      16.6961     ZZ    -161.4051

 Total job time:  871.56s(wall), 6662.19s(cpu)
        *  Thank you very much for using Q-Chem.  Have a nice day.  *
