 Gaussian 16, Revision A.03,
 Gaussian 16:  ES64L-G16RevA.03 25-Dec-2016

 --------------------------------------
 #P UB3LYP/6-311++G(d,p) nosym opt freq
 --------------------------------------

 -------
 Radical
 -------
 Symbolic Z-matrix:
 Charge = -1 Multiplicity = 2

 SCF Done:  E(UB3LYP) =  -846.276135906     A.U. after   24 cycles
 SCF Done:  E(UB3LYP) =  -846.303316906     A.U. after   17 cycles
 SCF Done:  E(UB3LYP) =  -846.309779442     A.U. after   17 cycles
 SCF Done:  E(UB3LYP) =  -846.312074974     A.U. after   15 cycles
 SCF Done:  E(UB3LYP) =  -846.314204626     A.U. after   16 cycles
 SCF Done:  E(UB3LYP) =  -846.315058132     A.U. after   15 cycles
 SCF Done:  E(UB3LYP) =  -846.315257397     A.U. after   14 cycles
 SCF Done:  E(UB3LYP) =  -846.315277404     A.U. after   12 cycles
 SCF Done:  E(UB3LYP) =  -846.315283999     A.U. after   11 cycles
 SCF Done:  E(UB3LYP) =  -846.315286413     A.U. after   11 cycles
 SCF Done:  E(UB3LYP) =  -846.315287192     A.U. after   10 cycles
 SCF Done:  E(UB3LYP) =  -846.315288097     A.U. after   11 cycles
 SCF Done:  E(UB3LYP) =  -846.315288280     A.U. after   10 cycles
 Optimization completed.
    -- Stationary point found.
 Normal termination of Gaussian 16 at Thu Dec 21 08:12:34 2023.

 ----------------------------------------------------------------------
 #P Geom=AllCheck Guess=TCheck SCRF=Check GenChk UB3LYP/6-311++G(d,p) F
 req
 ----------------------------------------------------------------------

 Structure from the checkpoint file:  "126-rad.chk"
 -------
 Radical
 -------
 Charge = -1 Multiplicity = 2

                          Input orientation:
 ---------------------------------------------------------------------
 Center     Atomic      Atomic             Coordinates (Angstroms)
 Number     Number       Type             X           Y           Z
 ---------------------------------------------------------------------
      1          6           0       -3.943577    0.954445    0.929983
      2          6           0       -3.277039   -0.075863   -0.012411
      3          6           0       -3.472897   -1.475154    0.598830
      4          6           0       -3.996900   -0.047799   -1.381733
      5          6           0       -1.791863    0.278718   -0.200357
      6          6           0       -1.436554    1.540406   -0.753535
      7          6           0       -0.118018    1.895188   -0.937219
      8          6           0        0.935655    1.023987   -0.585512
      9          6           0        2.321212    1.441397   -0.797408
     10          8           0        2.613114    2.561463   -1.287108
     11          6           0        3.348217    0.473867   -0.403865
     12          6           0        4.710234    0.804799   -0.577844
     13          6           0        5.712722   -0.075046   -0.221726
     14          6           0        5.381672   -1.333617    0.328298
     15          6           0        4.057390   -1.679481    0.507934
     16          6           0        3.013773   -0.796398    0.151439
     17          6           0        1.624745   -1.209927    0.361977
     18          8           0        1.330912   -2.330367    0.851869
     19          6           0        0.600240   -0.241794   -0.031660
     20          6           0       -0.762371   -0.578220    0.145393
     21          1           0       -5.006057    0.721103    1.067262
     22          1           0       -3.461268    0.945576    1.911532
     23          1           0       -3.870637    1.970172    0.533829
     24          1           0       -3.045391   -2.255641   -0.035736
     25          1           0       -4.542287   -1.682262    0.713794
     26          1           0       -3.007185   -1.553212    1.584552
     27          1           0       -3.925573    0.934421   -1.855130
     28          1           0       -5.059849   -0.289455   -1.263877
     29          1           0       -3.553097   -0.778232   -2.064099
     30          1           0       -2.211921    2.244440   -1.039664
     31          1           0        0.149978    2.857445   -1.358821
     32          1           0        4.934297    1.776955   -1.002019
     33          1           0        6.754345    0.198130   -0.363430
     34          1           0        6.169267   -2.026957    0.608905
     35          1           0        3.774520   -2.638095    0.927661
     36          1           0       -0.949810   -1.554991    0.571385
 ---------------------------------------------------------------------

 SCF Done:  E(UB3LYP) =  -846.315288280     A.U. after    1 cycles

 Alpha  occ. eigenvalues --  -18.94553 -18.94535 -10.09841 -10.09536 -10.09477
 Alpha  occ. eigenvalues --  -10.07311 -10.07311 -10.06884 -10.06664 -10.05808
 Alpha  occ. eigenvalues --  -10.05760 -10.05690 -10.05157 -10.05098 -10.05088
 Alpha  occ. eigenvalues --  -10.04947 -10.04903 -10.04902 -10.04855 -10.04756
 Alpha  occ. eigenvalues --   -0.87201  -0.86928  -0.75157  -0.73580  -0.71525
 Alpha  occ. eigenvalues --   -0.66048  -0.63121  -0.62941  -0.61766  -0.60064
 Alpha  occ. eigenvalues --   -0.59784  -0.54459  -0.52327  -0.50197  -0.47245
 Alpha  occ. eigenvalues --   -0.45555  -0.43463  -0.41310  -0.40148  -0.36886
 Alpha  occ. eigenvalues --   -0.35847  -0.35230  -0.34702  -0.33839  -0.33218
 Alpha  occ. eigenvalues --   -0.31347  -0.31034  -0.30645  -0.30300  -0.29387
 Alpha  occ. eigenvalues --   -0.28763  -0.28180  -0.28115  -0.28056  -0.27147
 Alpha  occ. eigenvalues --   -0.25252  -0.25191  -0.24899  -0.24223  -0.23982
 Alpha  occ. eigenvalues --   -0.22262  -0.21936  -0.21244  -0.20778  -0.14156
 Alpha  occ. eigenvalues --   -0.13784  -0.13317  -0.12576  -0.11524  -0.10665
 Alpha  occ. eigenvalues --   -0.01481
 Alpha virt. eigenvalues --    0.06301   0.06835   0.08276   0.08594   0.08816
 Alpha virt. eigenvalues --    0.09564   0.09601   0.10236   0.10780   0.11333
 Alpha virt. eigenvalues --    0.11728   0.12082   0.12156   0.12773   0.13559

  Beta  occ. eigenvalues --  -18.93960 -18.93932 -10.09845 -10.09405 -10.09338
  Beta  occ. eigenvalues --  -10.07308 -10.07308 -10.06883 -10.06610 -10.05757
  Beta  occ. eigenvalues --  -10.05707 -10.05639 -10.05173 -10.05111 -10.05097
  Beta  occ. eigenvalues --  -10.04891 -10.04857 -10.04809 -10.04778 -10.04664
  Beta  occ. eigenvalues --   -0.86185  -0.85878  -0.75043  -0.73380  -0.71410
  Beta  occ. eigenvalues --   -0.65671  -0.62903  -0.62814  -0.61581  -0.60057
  Beta  occ. eigenvalues --   -0.59756  -0.53767  -0.52163  -0.49975  -0.47155
  Beta  occ. eigenvalues --   -0.45469  -0.43248  -0.41140  -0.40023  -0.36766
  Beta  occ. eigenvalues --   -0.35792  -0.35206  -0.34452  -0.33710  -0.33160
  Beta  occ. eigenvalues --   -0.31290  -0.30992  -0.30581  -0.30255  -0.28617
  Beta  occ. eigenvalues --   -0.28231  -0.28043  -0.28021  -0.27726  -0.26757
  Beta  occ. eigenvalues --   -0.25122  -0.25084  -0.24147  -0.23712  -0.22557
  Beta  occ. eigenvalues --   -0.22211  -0.21826  -0.20607  -0.20114  -0.13475
  Beta  occ. eigenvalues --   -0.12391  -0.12090  -0.11690  -0.10969  -0.10108
  Beta virt. eigenvalues --    0.04470   0.06298   0.07621   0.08268   0.08588
  Beta virt. eigenvalues --    0.08840   0.09599   0.10228   0.10597   0.10775
  Beta virt. eigenvalues --    0.11461   0.11727   0.12133   0.12150   0.12831

 Mulliken charges and spin densities:
               1          2
     1  C   -0.670666  -0.001143
     2  C    0.545947   0.002314
     3  C   -0.508171  -0.000810
     4  C   -0.670994  -0.001143
     5  C    0.264319   0.025601
     6  C   -0.557072   0.046232
     7  C   -0.097020   0.010707
     8  C    0.271365   0.053450
     9  C   -1.002139   0.061887
    10  O   -0.361060   0.220860
    11  C    0.232551   0.046863
    12  C    0.078280   0.018212
    13  C   -0.406209   0.044542
    14  C   -0.437771   0.037620
    15  C    0.073495   0.016006
    16  C    0.470373   0.048521
    17  C   -0.752966   0.071994
    18  O   -0.364413   0.225823
    19  C    0.578265   0.075118
    20  C    0.086166   0.011067
    21  H    0.132827  -0.000222
    22  H    0.140806   0.000066
    23  H    0.137499  -0.000352
    24  H    0.141085   0.000924
    25  H    0.139735  -0.000128
    26  H    0.141091   0.000932
    27  H    0.137701  -0.000352
    28  H    0.132830  -0.000216
    29  H    0.140776   0.000066
    30  H    0.103327  -0.003346
    31  H    0.175871  -0.001132
    32  H    0.156300  -0.001070
    33  H    0.123985  -0.003602
    34  H    0.124251  -0.003368
    35  H    0.156999  -0.001471
    36  H    0.142634  -0.000454
 Sum of Mulliken charges =  -1.00000   1.00000

 Dipole moment (field-independent basis, Debye):
    X=             -8.8211    Y=             -0.5167    Z=              1.0135  Tot=              8.8942
 Quadrupole moment (field-independent basis, Debye-Ang):
   XX=           -157.9670   YY=           -148.5898   ZZ=           -131.5792
   XY=             -5.4937   XZ=              4.1566   YZ=              9.3585

  Exact polarizability: 407.329 -18.326 237.329   1.632 -42.965 155.205
 Approx polarizability: 555.805 -15.768 438.599  -1.116 -96.691 255.264

                      1                      2                      3
                      A                      A                      A
 Frequencies --     34.3953                43.1146                78.1695
 Red. masses --      3.4925                 4.4802                 5.1404
 Frc consts  --      0.0024                 0.0049                 0.0185
 IR Inten    --      1.3188                 2.0804                 2.8642

                      4                      5                      6
                      A                      A                      A
 Frequencies --    124.3620               128.5427               160.6439
 Red. masses --      4.4090                 4.2101                 5.3623
 Frc consts  --      0.0402                 0.0410                 0.0815
 IR Inten    --      1.5138                 0.0855                 0.9222

                      7                      8                      9
                      A                      A                      A
 Frequencies --    176.8306               222.8260               237.2408
 Red. masses --      4.3609                 1.6164                 4.1525
 Frc consts  --      0.0803                 0.0473                 0.1377
 IR Inten    --      2.1571                 0.0760                 2.1038

                     10                     11                     12
                      A                      A                      A
 Frequencies --    242.0966               245.6262               271.5269
 Red. masses --      1.8906                 2.4854                 1.3041
 Frc consts  --      0.0653                 0.0883                 0.0566
 IR Inten    --      0.1071                 1.6298                 0.9743

                     13                     14                     15
                      A                      A                      A
 Frequencies --    299.2187               313.7251               344.5448
 Red. masses --      3.9259                 1.0452                 2.9787
 Frc consts  --      0.2071                 0.0606                 0.2083
 IR Inten    --      0.1391                 0.0024                 0.1160

                     16                     17                     18
                      A                      A                      A
 Frequencies --    354.0307               378.7038               399.8578
 Red. masses --      2.7969                10.4945                 2.9836
 Frc consts  --      0.2065                 0.8868                 0.2811
 IR Inten    --      0.2579                 4.7699                 0.0516

                     19                     20                     21
                      A                      A                      A
 Frequencies --    409.8024               419.3793               442.4640
 Red. masses --      5.1441                 3.8268                 4.2951
 Frc consts  --      0.5090                 0.3965                 0.4954
 IR Inten    --      2.0649                 0.8838                 0.4581

                     22                     23                     24
                      A                      A                      A
 Frequencies --    455.1990               470.5679               472.7926
 Red. masses --      4.2264                 3.2062                 3.7074
 Frc consts  --      0.5160                 0.4183                 0.4883
 IR Inten    --      1.1968                 0.0003                 0.5550

                     25                     26                     27
                      A                      A                      A
 Frequencies --    494.3246               563.9263               567.0336
 Red. masses --      8.0712                 3.6097                 4.4075
 Frc consts  --      1.1620                 0.6763                 0.8350
 IR Inten    --      0.1864                 4.5748                 6.8510

                     28                     29                     30
                      A                      A                      A
 Frequencies --    641.7676               659.3142               667.0966
 Red. masses --      6.9628                 5.9817                 3.4139
 Frc consts  --      1.6896                 1.5320                 0.8951
 IR Inten    --      7.1788                 6.3724                20.3459

                     31                     32                     33
                      A                      A                      A
 Frequencies --    700.6939               706.5306               712.2726
 Red. masses --      6.6426                 2.5208                 6.4798
 Frc consts  --      1.9215                 0.7414                 1.9369
 IR Inten    --      1.1027                53.5310                 1.5690

                     34                     35                     36
                      A                      A                      A
 Frequencies --    742.0420               778.4833               806.2706
 Red. masses --      3.9505                 1.8593                 3.0603
 Frc consts  --      1.2816                 0.6639                 1.1721
 IR Inten    --      0.2288                15.3099                 1.8115

                     37                     38                     39
                      A                      A                      A
 Frequencies --    808.5901               835.4557               856.7878
 Red. masses --      3.9333                 1.7351                 3.6071
 Frc consts  --      1.5152                 0.7136                 1.5601
 IR Inten    --      0.0519                16.8129                13.5903

                     40                     41                     42
                      A                      A                      A
 Frequencies --    868.7931               918.7938               935.0014
 Red. masses --      1.5578                 1.8327                 1.7165
 Frc consts  --      0.6928                 0.9115                 0.8841
 IR Inten    --      0.1460                 0.1541                 0.9278

                     43                     44                     45
                      A                      A                      A
 Frequencies --    938.4450               944.3027               956.2037
 Red. masses --      6.9895                 1.3995                 1.1987
 Frc consts  --      3.6267                 0.7353                 0.6458
 IR Inten    --     20.2679                 6.3307                 0.1951

                     46                     47                     48
                      A                      A                      A
 Frequencies --    979.6494               981.5261               983.1327
 Red. masses --      4.1816                 1.3394                 1.2749
 Frc consts  --      2.3644                 0.7603                 0.7260
 IR Inten    --      3.2694                 1.4481                 0.4285

                     49                     50                     51
                      A                      A                      A
 Frequencies --    988.1122              1036.6306              1041.3110
 Red. masses --      1.3260                 1.9424                 1.4725
 Frc consts  --      0.7628                 1.2298                 0.9407
 IR Inten    --      2.1241                25.9376                 5.6489

                     52                     53                     54
                      A                      A                      A
 Frequencies --   1044.5854              1096.8553              1110.5906
 Red. masses --      1.3941                 2.3392                 1.9912
 Frc consts  --      0.8963                 1.6581                 1.4470
 IR Inten    --      0.0161                 5.3376                11.0123

                     55                     56                     57
                      A                      A                      A
 Frequencies --   1133.5490              1148.3022              1181.4838
 Red. masses --      1.7381                 1.4472                 3.1459
 Frc consts  --      1.3159                 1.1244                 2.5873
 IR Inten    --     24.6592                13.9150                 1.0426

                     58                     59                     60
                      A                      A                      A
 Frequencies --   1201.4108              1211.4117              1217.2246
 Red. masses --      2.0888                 2.4115                 2.6985
 Frc consts  --      1.7764                 2.0851                 2.3557
 IR Inten    --      1.4201                29.3430                 5.7255

                     61                     62                     63
                      A                      A                      A
 Frequencies --   1229.4557              1233.8395              1265.4277
 Red. masses --      1.8039                 2.4275                 1.9087
 Frc consts  --      1.6065                 2.1773                 1.8007
 IR Inten    --      4.7567                 7.1113                66.3146

                     64                     65                     66
                      A                      A                      A
 Frequencies --   1285.0870              1334.0929              1358.5541
 Red. masses --      2.8347                 2.1836                10.7030
 Frc consts  --      2.7582                 2.2898                11.6388
 IR Inten    --     60.0249                10.6472                20.3491

                     67                     68                     69
                      A                      A                      A
 Frequencies --   1366.7582              1388.9379              1392.4458
 Red. masses --      7.7323                 1.2120                 1.2909
 Frc consts  --      8.5102                 1.3776                 1.4747
 IR Inten    --     28.3181                 9.1030                36.6946

                     70                     71                     72
                      A                      A                      A
 Frequencies --   1411.0696              1423.2960              1462.8661
 Red. masses --      2.7019                 1.2421                 2.9615
 Frc consts  --      3.1697                 1.4826                 3.7340
 IR Inten    --    209.8377                 4.0122               116.3376

                     73                     74                     75
                      A                      A                      A
 Frequencies --   1474.4288              1478.2986              1487.3281
 Red. masses --      2.8679                 1.0490                 1.0458
 Frc consts  --      3.6733                 1.3507                 1.3631
 IR Inten    --     58.2294                 0.0008                 0.0859

                     76                     77                     78
                      A                      A                      A
 Frequencies --   1490.3232              1496.4650              1502.7799
 Red. masses --      1.1340                 1.6293                 1.3783
 Frc consts  --      1.4839                 2.1497                 1.8340
 IR Inten    --      0.4994                31.2458                12.0731

                     79                     80                     81
                      A                      A                      A
 Frequencies --   1503.6674              1520.5105              1521.2487
 Red. masses --      1.0512                 1.0946                 5.8026
 Frc consts  --      1.4003                 1.4911                 7.9118
 IR Inten    --      6.1063                12.3760               415.7053

                     82                     83                     84
                      A                      A                      A
 Frequencies --   1532.5232              1553.9070              1614.5402
 Red. masses --      6.1336                 5.4483                 8.7948
 Frc consts  --      8.4875                 7.7511                13.5075
 IR Inten    --     82.0470                94.6206                 2.4707

                     85                     86                     87
                      A                      A                      A
 Frequencies --   1622.7812              1634.6926              3004.0971
 Red. masses --      5.8142                 6.5860                 1.0396
 Frc consts  --      9.0211                10.3691                 5.5276
 IR Inten    --     10.0675                14.8611                32.6239

                     88                     89                     90
                      A                      A                      A
 Frequencies --   3007.9321              3018.9930              3067.5249
 Red. masses --      1.0391                 1.0380                 1.0953
 Frc consts  --      5.5393                 5.5740                 6.0726
 IR Inten    --     63.9059               107.1130                13.4228

                     91                     92                     93
                      A                      A                      A
 Frequencies --   3069.3964              3077.5028              3089.5793
 Red. masses --      1.0965                 1.0971                 1.1022
 Frc consts  --      6.0863                 6.1221                 6.1989
 IR Inten    --     17.9655               127.2045                 1.1553

                     94                     95                     96
                      A                      A                      A
 Frequencies --   3092.9456              3094.8976              3132.9233
 Red. masses --      1.1006                 1.1015                 1.0846
 Frc consts  --      6.2033                 6.2164                 6.2721
 IR Inten    --     39.6072                36.2932                18.4924

                     97                     98                     99
                      A                      A                      A
 Frequencies --   3144.1450              3152.0957              3180.5771
 Red. masses --      1.0864                 1.0910                 1.0919
 Frc consts  --      6.3275                 6.3869                 6.5078
 IR Inten    --     30.6525                53.4077                17.3303

                    100                    101                    102
                      A                      A                      A
 Frequencies --   3181.1218              3183.6272              3202.5856
 Red. masses --      1.0914                 1.0929                 1.0881
 Frc consts  --      6.5072                 6.5264                 6.5752
 IR Inten    --     15.1061                31.1678                 7.1117

 - Thermochemistry -
 -------------------
 Temperature   298.150 Kelvin.  Pressure   1.00000 Atm.
 Atom     1 has atomic number  6 and mass  12.00000

 Molecular mass:   264.11503 amu.
 Principal axes and moments of inertia in atomic units:
                           1         2         3
     Eigenvalues --  2187.776319279.93943**********
           X            0.99921   0.03364   0.02137
           Y           -0.03935   0.91743   0.39594
           Z           -0.00628  -0.39647   0.91803
 This molecule is an asymmetric top.
 Rotational symmetry number  1.
 Warning -- assumption of classical behavior for rotation
           may cause significant error
 Rotational temperatures (Kelvin)      0.03959     0.00933     0.00782
 Rotational constants (GHZ):           0.82492     0.19448     0.16304
 Zero-point vibrational energy     756451.6 (Joules/Mol)
                                  180.79628 (Kcal/Mol)
 Warning -- explicit consideration of  27 degrees of freedom as
           vibrations may cause significant error
 Vibrational temperatures:     49.49    62.03   112.47   178.93   184.94
          (Kelvin)            231.13   254.42   320.60   341.34   348.32
                              353.40   390.67   430.51   451.38   495.72
                              509.37   544.87   575.31   589.61   603.39
                              636.61   654.93   677.04   680.24   711.22
                              811.36   815.83   923.36   948.61   959.80
                             1008.14  1016.54  1024.80  1067.63  1120.06
                             1160.04  1163.38  1202.03  1232.73  1250.00
                             1321.94  1345.26  1350.21  1358.64  1375.76
                             1409.50  1412.20  1414.51  1421.67  1491.48
                             1498.21  1502.93  1578.13  1597.89  1630.92
                             1652.15  1699.89  1728.56  1742.95  1751.31
                             1768.91  1775.22  1820.67  1848.95  1919.46
                             1954.66  1966.46  1998.37  2003.42  2030.21
                             2047.81  2104.74  2121.37  2126.94  2139.93
                             2144.24  2153.08  2162.17  2163.44  2187.68
                             2188.74  2204.96  2235.73  2322.96  2334.82
                             2351.96  4322.23  4327.74  4343.66  4413.48
                             4416.18  4427.84  4445.22  4450.06  4452.87
                             4507.58  4523.72  4535.16  4576.14  4576.92
                             4580.53  4607.81

 Zero-point correction=                           0.288117 (Hartree/Particle)
 Thermal correction to Energy=                    0.304979
 Thermal correction to Enthalpy=                  0.305923
 Thermal correction to Gibbs Free Energy=         0.243538
 Sum of electronic and zero-point Energies=           -846.027171
 Sum of electronic and thermal Energies=              -846.010309
 Sum of electronic and thermal Enthalpies=            -846.009365
 Sum of electronic and thermal Free Energies=         -846.071750

                     E (Thermal)             CV                S
                      KCal/Mol        Cal/Mol-Kelvin    Cal/Mol-Kelvin
 Total                  191.377             68.365            131.301
 Electronic               0.000              0.000              1.377
 Translational            0.889              2.981             42.613
 Rotational               0.889              2.981             33.774
 Vibrational            189.600             62.403             53.537
 Vibration     1          0.594              1.983              5.558
 Vibration     2          0.595              1.980              5.111
 Vibration     3          0.599              1.964              3.936
 Vibration     4          0.610              1.929              3.031
 Vibration     5          0.611              1.925              2.968
 Vibration     6          0.622              1.891              2.542
 Vibration     7          0.628              1.871              2.362
 Vibration     8          0.649              1.806              1.936
 Vibration     9          0.656              1.784              1.823
 Vibration    10          0.658              1.776              1.787
 Vibration    11          0.660              1.770              1.762
 Vibration    12          0.675              1.726              1.586
 Vibration    13          0.692              1.675              1.421
 Vibration    14          0.702              1.647              1.343
 Vibration    15          0.723              1.586              1.191
 Vibration    16          0.730              1.567              1.148
 Vibration    17          0.749              1.516              1.044
 Vibration    18          0.766              1.470              0.963
 Vibration    19          0.774              1.449              0.927
 Vibration    20          0.782              1.428              0.894
 Vibration    21          0.802              1.378              0.819
 Vibration    22          0.814              1.349              0.780
 Vibration    23          0.828              1.315              0.736
 Vibration    24          0.830              1.310              0.730
 Vibration    25          0.850              1.263              0.672
 Vibration    26          0.920              1.109              0.516
 Vibration    27          0.923              1.103              0.510

 Optimization completed.
    -- Stationary point found.
 Normal termination of Gaussian 16 at Thu Dec 21 10:09:39 2023.
