 Q-Chem 5.4, Q-Chem, Inc., Pleasanton, CA (2021)
 Q-Chem 5.4.0 for Intel X86 EM64T Linux

User input:
--------------------------------------------------------------
$molecule
0 1
N                 -4.5250980000      1.0190300000     -0.5046900000
C                 -3.2994860000      0.4424730000     -0.4037560000
C                 -3.1613840000     -0.9638270000     -0.4177580000
Cl                -4.6034730000     -1.9510390000     -0.6085540000
C                 -1.9389620000     -1.5775300000     -0.2901160000
C                 -0.7792080000     -0.8167560000     -0.1389950000
C                  0.4962620000     -1.5699090000     -0.0112990000
O                  0.5136880000     -2.7922130000     -0.0322690000
C                  1.7473310000     -0.7851460000      0.1390390000
C                  2.9705410000     -1.4531160000      0.2518670000
C                  4.1476010000     -0.7288260000      0.3922900000
C                  4.1096830000      0.6683980000      0.4220570000
C                  2.8968050000      1.3372210000      0.3118270000
C                  1.7062440000      0.6157580000      0.1686560000
C                  0.4240410000      1.3785140000      0.0557610000
O                  0.4440690000      2.5941600000      0.1092790000
C                 -0.8497940000      0.5971460000     -0.1179390000
C                 -2.1085260000      1.2022730000     -0.2543780000
Br                -2.3685500000      3.1042600000     -0.2672750000
H                 -4.5910170000      2.0182480000     -0.6120190000
H                 -5.3207480000      0.4484990000     -0.7363020000
H                 -1.8530170000     -2.6558380000     -0.3044860000
H                  2.9716660000     -2.5356640000      0.2266450000
H                  5.0955040000     -1.2476290000      0.4790940000
H                  5.0285300000      1.2331170000      0.5318060000
H                  2.8472970000      2.4183960000      0.3341040000
$end
$rem
MAX_SCF_CYCLES=200
BASIS  =  6-311++G(d,p)
GUI  =  2
JOB_TYPE  =  SP
METHOD  =  B3LYP
SOLVENT_METHOD = COSMO
$end
$solvent
dielectric 37.219
opticaldielectric 1.43
$end

--------------------------------------------------------------

             Standard Nuclear Orientation (Angstroms)
    I     Atom           X                Y                Z
 ----------------------------------------------------------------
    1      N       3.7282971720    -0.1346673523     0.0328234739
    2      C       2.4373396150     0.2865540494     0.0057765174
    3      C       2.1293075270     1.6657047384     0.0030345631
    4      Cl      3.4508597781     2.8250347616    -0.0050199593
    5      C       0.8339884124     2.1232935111     0.0035866975
    6      C      -0.2326609672     1.2239159439     0.0083896943
    7      C      -1.5974973617     1.8134781630     0.0056626593
    8      O      -1.7630614984     3.0248240209     0.0061143755
    9      C      -2.7511672719     0.8793322898    -0.0010715277
   10      C      -4.0523287358     1.3911533779    -0.0142927644
   11      C      -5.1393712938     0.5262411457    -0.0213761486
   12      C      -4.9329978263    -0.8564793105    -0.0141037959
   13      C      -3.6422065092    -1.3704753482     0.0005163990
   14      C      -2.5411981421    -0.5066530523     0.0063393671
   15      C      -1.1701602894    -1.1054163225     0.0243472095
   16      O      -1.0459267796    -2.3157281090     0.0521304603
   17      C       0.0089439774    -0.1711352042     0.0103769275
   18      C       1.3399829640    -0.6155566662     0.0053455341
   19      Br      1.8323204651    -2.4709679188    -0.0143072106
   20      H       3.9282584431    -1.1146404631    -0.0853697257
   21      H       4.4681106557     0.5347527703    -0.0966422428
   22      H       0.6178712945     3.1833041673     0.0001250767
   23      H      -4.1841209271     2.4659358320    -0.0188842704
   24      H      -6.1477567463     0.9240509789    -0.0322251335
   25      H      -5.7816731068    -1.5309816856    -0.0194904089
   26      H      -3.4625406896    -2.4379751112     0.0076673889
 ----------------------------------------------------------------

    9   -3777.4846907744      4.17e-06  Convergence criterion met
 Total energy in the final basis set =    -3777.4846907744
    5   -3777.5011741567      2.89e-06  Convergence criterion met
 Total energy in the final basis set =    -3777.5011741567

                    Orbital Energies (a.u.)
 --------------------------------------------------------------

 Alpha MOs
 -- Occupied --
********-101.5755 -62.4986 -56.3192 -56.3153 -56.3149 -19.1340 -19.1281
-14.3469 -10.2905 -10.2819 -10.2671 -10.2592 -10.2591 -10.2277 -10.2093
-10.2083 -10.2072 -10.2065 -10.1961 -10.1957 -10.1952 -10.1951  -9.4900
 -8.7075  -7.2546  -7.2449  -7.2444  -6.5392  -6.5263  -6.5252  -2.6501
 -2.6465  -2.6459  -2.6355  -2.6355  -1.0729  -1.0641  -0.9696  -0.9001
 -0.8889  -0.8752  -0.8258  -0.8014  -0.7773  -0.7615  -0.7572  -0.6895
 -0.6672  -0.6461  -0.6236  -0.5924  -0.5745  -0.5625  -0.5440  -0.5241
 -0.5012  -0.4882  -0.4848  -0.4635  -0.4631  -0.4572  -0.4505  -0.4474
 -0.4414  -0.4338  -0.4302  -0.4230  -0.3906  -0.3819  -0.3812  -0.3694
 -0.3671  -0.3425  -0.3418  -0.3244  -0.3199  -0.2856  -0.2853  -0.2775
 -0.2706  -0.2676  -0.2365

          Ground-State Mulliken Net Atomic Charges

     Atom                 Charge (a.u.)
  ----------------------------------------
      1 N                    -0.218590
      2 C                    -0.782553
      3 C                     0.909755
      4 Cl                    0.459089
      5 C                    -0.120344
      6 C                    -0.250386
      7 C                    -0.643036
      8 O                    -0.309253
      9 C                    -0.051906
     10 C                     0.128417
     11 C                    -0.427883
     12 C                    -0.488242
     13 C                     0.228847
     14 C                     0.179888
     15 C                    -1.130338
     16 O                    -0.189363
     17 C                     0.842699
     18 C                     0.307936
     19 Br                   -0.109492
     20 H                     0.294089
     21 H                     0.283422
     22 H                     0.237828
     23 H                     0.195622
     24 H                     0.228623
     25 H                     0.225949
     26 H                     0.199222
  ----------------------------------------
  Sum of atomic charges =     0.000000

                    Cartesian Multipole Moments
 -----------------------------------------------------------------
    Charge (ESU x 10^10)
                -0.0000
    Dipole Moment (Debye)
         X       1.1131      Y      -1.0784      Z      -0.5464
       Tot       1.6433
    Quadrupole Moments (Debye-Ang)
        XX     -87.0167     XY       2.6932     YY    -143.4866
        XZ      -1.7647     YZ       0.3106     ZZ    -131.1174

 Total job time:  76.13s(wall), 585.50s(cpu)
        *  Thank you very much for using Q-Chem.  Have a nice day.  *
