 Q-Chem 5.4, Q-Chem, Inc., Pleasanton, CA (2021)
 Q-Chem 5.4.0 for Intel X86 EM64T Linux

User input:
--------------------------------------------------------------
$molecule
-1 2
C                 -1.5376510000      2.7865880000     -0.0587490000
C                 -2.7976480000      2.2108830000     -0.0250230000
C                 -2.9056640000      0.7936780000      0.0468690000
C                 -0.3571680000      2.0203130000     -0.0245820000
C                 -0.4644870000      0.6121780000      0.0468390000
C                 -1.7474720000      0.0336620000      0.0809180000
C                  0.9531950000      2.6852440000     -0.0632110000
C                  2.1146760000      1.8205620000     -0.0243610000
C                  2.0091010000      0.4351550000      0.0457710000
C                  0.7300320000     -0.2435770000      0.0852630000
O                  1.0422430000      3.9444490000     -0.1269450000
O                  0.6273280000     -1.5017350000      0.1492080000
C                  3.4658190000      2.4918130000     -0.0635980000
C                  3.2429460000     -0.4330730000      0.0843850000
H                 -1.4239480000      3.8644040000     -0.1135070000
C                 -4.0344820000      3.0789010000     -0.0642900000
C                 -4.2597720000      0.1230940000      0.0856280000
H                  3.3297620000      3.5722650000     -0.1166590000
H                  4.0555340000      2.1687050000     -0.9311390000
H                  4.0632600000      2.2557840000      0.8264020000
H                  3.8749790000     -0.2034170000      0.9519130000
H                  3.8690960000     -0.2899460000     -0.8056760000
H                  2.9447300000     -1.4804520000      0.1370570000
H                 -1.7984880000     -1.0489320000      0.1357430000
H                 -3.7614270000      4.1352030000     -0.1184340000
H                 -4.6617720000      2.9412740000      0.8254060000
H                 -4.6679940000      2.8528380000     -0.9312080000
H                 -4.8521200000      0.4425830000      0.9522550000
H                 -4.1499470000     -0.9623830000      0.1398750000
H                 -4.8585350000      0.3541680000     -0.8043590000
$end
$rem
MAX_SCF_CYCLES=200
BASIS  =  6-311++G(d,p)
GUI  =  2
JOB_TYPE  =  SP
METHOD  =  B3LYP
SOLVENT_METHOD = COSMO
$end
$solvent
dielectric 37.219
opticaldielectric 1.43
$end

--------------------------------------------------------------

             Standard Nuclear Orientation (Angstroms)
    I     Atom           X                Y                Z
 ----------------------------------------------------------------
    1      C       1.3991114460    -1.3821986449     0.0001392003
    2      C       2.6117235375    -0.7115735496    -0.0000259254
    3      C       2.6117467547     0.7115588846     0.0000208371
    4      C       0.1638186251    -0.7069679389     0.0002538494
    5      C       0.1638360038     0.7070555770     0.0002894517
    6      C       1.3991560644     1.3822422155     0.0002465393
    7      C      -1.0922344045    -1.4705171585     0.0002081385
    8      C      -2.3160572195    -0.6956106744    -0.0000270143
    9      C      -2.3160519090     0.6955820238    -0.0001279967
   10      C      -1.0922510213     1.4705436540     0.0002058729
   11      O      -1.0853494348    -2.7344559991     0.0002826146
   12      O      -1.0854399086     2.7344867769     0.0003420524
   13      C      -3.6122921697    -1.4685788342    -0.0002042236
   14      C      -3.6122989716     1.4685165624    -0.0004976710
   15      H       1.3676305815    -2.4669212343     0.0001431602
   16      C       3.9109349841    -1.4841051109    -0.0003305407
   17      C       3.9109887999     1.4840636855    -0.0002572291
   18      H      -3.3945347117    -2.5368879844     0.0006619995
   19      H      -4.2248780496    -1.2353624832    -0.8806237945
   20      H      -4.2259143211    -1.2339377759     0.8790891668
   21      H      -4.2250299196     1.2356514249     0.8799266786
   22      H      -4.2257895314     1.2335367293    -0.8797994142
   23      H      -3.3945258894     2.5368251171    -0.0017659961
   24      H       1.3677681051     2.4669693580     0.0003112588
   25      H       3.7189281136    -2.5594645207    -0.0001804332
   26      H       4.5259801408    -1.2545343047     0.8788791089
   27      H       4.5254136789    -1.2546749910    -0.8799705276
   28      H       4.5259250615     1.2546049319     0.8790571663
   29      H       3.7190057323     2.5594273847    -0.0002932817
   30      H       4.5255526373     1.2544579786    -0.8797921590
 ----------------------------------------------------------------

    9    -692.6382808023      8.54e-06  Convergence criterion met
 Total energy in the final basis set =     -692.6382808023
    4    -692.7233015508      9.78e-06  Convergence criterion met
 Total energy in the final basis set =     -692.7233015508

                    Orbital Energies (a.u.)
 --------------------------------------------------------------

 Alpha MOs
 -- Occupied --
-19.0739 -19.0739 -10.2170 -10.2170 -10.1770 -10.1766 -10.1651 -10.1648
-10.1647 -10.1642 -10.1616 -10.1615 -10.1595 -10.1595 -10.1495 -10.1495
 -0.9986  -0.9962  -0.8589  -0.8169  -0.7748  -0.7604  -0.7213  -0.6994
 -0.6966  -0.6482  -0.6357  -0.5905  -0.5669  -0.5456  -0.5022  -0.4721
 -0.4700  -0.4370  -0.4349  -0.4263  -0.4214  -0.4179  -0.4104  -0.3944
 -0.3925  -0.3898  -0.3826  -0.3822  -0.3785  -0.3732  -0.3661  -0.3641
 -0.3507  -0.3317  -0.3310  -0.3273  -0.2612  -0.2482  -0.2462  -0.2335
 -0.2297  -0.1486

 Beta MOs
 -- Occupied --
-19.0680 -19.0679 -10.2152 -10.2152 -10.1767 -10.1763 -10.1647 -10.1642
-10.1634 -10.1628 -10.1614 -10.1614 -10.1595 -10.1595 -10.1496 -10.1496
 -0.9881  -0.9854  -0.8572  -0.8123  -0.7736  -0.7592  -0.7175  -0.6980
 -0.6948  -0.6469  -0.6291  -0.5900  -0.5639  -0.5420  -0.5006  -0.4701
 -0.4676  -0.4347  -0.4299  -0.4230  -0.4206  -0.4162  -0.4046  -0.3932
 -0.3870  -0.3820  -0.3812  -0.3800  -0.3782  -0.3726  -0.3628  -0.3494
 -0.3445  -0.3302  -0.3262  -0.3203  -0.2416  -0.2406  -0.2375  -0.2281
 -0.2236

          Ground-State Mulliken Net Atomic Charges

     Atom                 Charge (a.u.)    Spin (a.u.)
  --------------------------------------------------------
      1 C                    -0.155876       0.030419
      2 C                     0.363877       0.028519
      3 C                     0.364033       0.028559
      4 C                     0.115963       0.017207
      5 C                     0.116398       0.017212
      6 C                    -0.155146       0.030392
      7 C                    -0.772925       0.112757
      8 C                     0.296769       0.089274
      9 C                     0.295805       0.089236
     10 C                    -0.772683       0.112743
     11 O                    -0.515071       0.216497
     12 O                    -0.515110       0.216481
     13 C                    -0.465465      -0.001481
     14 C                    -0.465270      -0.001480
     15 H                     0.133516      -0.002704
     16 C                    -0.515803      -0.001561
     17 C                    -0.515413      -0.001562
     18 H                     0.183715      -0.001656
     19 H                     0.158748       0.004962
     20 H                     0.158581       0.004949
     21 H                     0.158730       0.004965
     22 H                     0.158483       0.004944
     23 H                     0.183730      -0.001656
     24 H                     0.133549      -0.002702
     25 H                     0.182691       0.000113
     26 H                     0.165398       0.001365
     27 H                     0.165428       0.001364
     28 H                     0.165431       0.001366
     29 H                     0.182576       0.000113
     30 H                     0.165340       0.001366
  --------------------------------------------------------
  Sum of atomic charges =    -1.000000

                    Cartesian Multipole Moments
 -----------------------------------------------------------------
    Charge (ESU x 10^10)
                -4.8032
    Dipole Moment (Debye)
         X       5.5362      Y       0.0011      Z      -0.0024
       Tot       5.5362
    Quadrupole Moments (Debye-Ang)
        XX     -93.4061     XY       0.0038     YY    -138.2813
        XZ       0.0007     YZ      -0.0020     ZZ    -100.5001

 Total job time:  80.03s(wall), 608.11s(cpu)
        *  Thank you very much for using Q-Chem.  Have a nice day.  *
