 Gaussian 16, Revision A.03,
 Gaussian 16:  ES64L-G16RevA.03 25-Dec-2016

 ----------------------------------------------------------------------
 #P UB3LYP/6-311++G(d,p) nosym opt freq SCRF=(PCM,Solvent=n,n-DiMethylF
 ormamide)
 ----------------------------------------------------------------------

 --------
 Oxidized
 --------
 Symbolic Z-matrix:
 Charge =  0 Multiplicity = 1

 SCF Done:  E(UB3LYP) =  -649.819586865     A.U. after   15 cycles
 SCF Done:  E(UB3LYP) =  -649.819759581     A.U. after   13 cycles
 SCF Done:  E(UB3LYP) =  -649.819799813     A.U. after   11 cycles
 SCF Done:  E(UB3LYP) =  -649.819804873     A.U. after   10 cycles
 SCF Done:  E(UB3LYP) =  -649.819802938     A.U. after    9 cycles
 SCF Done:  E(UB3LYP) =  -649.819805871     A.U. after    9 cycles
 Optimization completed.
    -- Stationary point found.
 Normal termination of Gaussian 16 at Sun Feb 11 00:04:37 2024.

 ----------------------------------------------------------------------
 #P Geom=AllCheck Guess=TCheck SCRF=Check GenChk UB3LYP/6-311++G(d,p) F
 req
 ----------------------------------------------------------------------

 Structure from the checkpoint file:  "258.chk"
 --------
 Oxidized
 --------
 Charge =  0 Multiplicity = 1

                          Input orientation:
 ---------------------------------------------------------------------
 Center     Atomic      Atomic             Coordinates (Angstroms)
 Number     Number       Type             X           Y           Z
 ---------------------------------------------------------------------
      1          6           0        3.335531   -0.948399   -0.102486
      2          8           0        1.927232   -1.140407    0.093111
      3          6           0        1.085167   -0.106611   -0.085128
      4          6           0        1.536322    1.170542   -0.460081
      5          6           0        0.640320    2.215006   -0.635183
      6          6           0       -0.723508    2.016857   -0.442976
      7          6           0       -1.190872    0.759973   -0.071832
      8          6           0       -2.665203    0.598680    0.121395
      9          8           0       -3.443397    1.531998   -0.039386
     10          6           0       -3.164676   -0.729283    0.515980
     11          6           0       -2.326446   -1.756373    0.692857
     12          6           0       -0.854212   -1.649743    0.513029
     13          8           0       -0.179641   -2.656288    0.702796
     14          6           0       -0.303384   -0.329318    0.116029
     15          1           0        3.785769   -1.917084    0.101307
     16          1           0        3.552437   -0.652065   -1.131574
     17          1           0        3.731298   -0.205898    0.594542
     18          1           0        2.590639    1.348270   -0.615369
     19          1           0        1.012549    3.190798   -0.924371
     20          1           0       -1.431151    2.823869   -0.576974
     21          1           0       -4.236106   -0.824315    0.651746
     22          1           0       -2.678668   -2.740211    0.982567
 ---------------------------------------------------------------------

 SCF Done:  E(UB3LYP) =  -649.819805871     A.U. after    1 cycles

 Alpha  occ. eigenvalues --  -19.17508 -19.13665 -19.13070 -10.28567 -10.28417
 Alpha  occ. eigenvalues --  -10.27019 -10.23065 -10.21297 -10.21191 -10.21173
 Alpha  occ. eigenvalues --  -10.20922 -10.20260 -10.19832 -10.19384  -1.09379
 Alpha  occ. eigenvalues --   -1.06706  -1.06035  -0.89021  -0.84156  -0.78728
 Alpha  occ. eigenvalues --   -0.78017  -0.72150  -0.70102  -0.65072  -0.64409
 Alpha  occ. eigenvalues --   -0.58788  -0.54931  -0.54274  -0.51954  -0.50706
 Alpha  occ. eigenvalues --   -0.48942  -0.48697  -0.47151  -0.46236  -0.45053
 Alpha  occ. eigenvalues --   -0.44118  -0.42987  -0.42545  -0.41822  -0.39681
 Alpha  occ. eigenvalues --   -0.39289  -0.38692  -0.35603  -0.34635  -0.30896
 Alpha  occ. eigenvalues --   -0.28714  -0.28542  -0.27210  -0.25145
 Alpha virt. eigenvalues --   -0.12809  -0.04981  -0.03772  -0.00622   0.00405
 Alpha virt. eigenvalues --    0.00840   0.02014   0.02508   0.02572   0.03229
 Alpha virt. eigenvalues --    0.03258   0.04483   0.05383   0.05670   0.05749

  Beta  occ. eigenvalues --  -19.17508 -19.13665 -19.13070 -10.28567 -10.28417
  Beta  occ. eigenvalues --  -10.27019 -10.23065 -10.21297 -10.21191 -10.21173
  Beta  occ. eigenvalues --  -10.20922 -10.20260 -10.19832 -10.19384  -1.09379
  Beta  occ. eigenvalues --   -1.06706  -1.06035  -0.89021  -0.84156  -0.78728
  Beta  occ. eigenvalues --   -0.78017  -0.72150  -0.70102  -0.65072  -0.64409
  Beta  occ. eigenvalues --   -0.58788  -0.54931  -0.54274  -0.51954  -0.50706
  Beta  occ. eigenvalues --   -0.48942  -0.48697  -0.47151  -0.46236  -0.45053
  Beta  occ. eigenvalues --   -0.44118  -0.42987  -0.42545  -0.41822  -0.39681
  Beta  occ. eigenvalues --   -0.39289  -0.38692  -0.35603  -0.34635  -0.30896
  Beta  occ. eigenvalues --   -0.28714  -0.28542  -0.27210  -0.25145
  Beta virt. eigenvalues --   -0.12809  -0.04981  -0.03772  -0.00622   0.00405
  Beta virt. eigenvalues --    0.00840   0.02014   0.02508   0.02572   0.03229
  Beta virt. eigenvalues --    0.03258   0.04483   0.05383   0.05670   0.05749

 Mulliken charges and spin densities:
               1          2
     1  C   -0.282445   0.000000
     2  O   -0.145512  -0.000000
     3  C    0.317757   0.000000
     4  C    0.044696  -0.000000
     5  C   -0.388609  -0.000000
     6  C    0.066992   0.000000
     7  C   -0.048761  -0.000000
     8  C   -0.307517  -0.000000
     9  O   -0.304087   0.000000
    10  C   -0.176135   0.000000
    11  C    0.010820   0.000000
    12  C   -0.365176   0.000000
    13  O   -0.308046  -0.000000
    14  C    0.257144  -0.000000
    15  H    0.204262   0.000000
    16  H    0.173207  -0.000000
    17  H    0.172770  -0.000000
    18  H    0.209714  -0.000000
    19  H    0.223081  -0.000000
    20  H    0.179208   0.000000
    21  H    0.234988   0.000000
    22  H    0.231650   0.000000
 Sum of Mulliken charges =  -0.00000  -0.00000

 Dipole moment (field-independent basis, Debye):
    X=              4.2592    Y=              1.8538    Z=             -0.9176  Tot=              4.7349
 Quadrupole moment (field-independent basis, Debye-Ang):
   XX=            -70.8169   YY=            -87.7579   ZZ=            -81.1890
   XY=             14.1107   XZ=             -4.7752   YZ=              0.1254

  Exact polarizability: 251.725 -17.067 235.642 -11.748 -34.159 106.063
 Approx polarizability: 287.802 -39.344 297.187  -8.060 -43.527 124.155

                      1                      2                      3
                      A                      A                      A
 Frequencies --     48.8758                59.0783               112.3487
 Red. masses --      5.2775                 6.2290                 4.2484
 Frc consts  --      0.0074                 0.0128                 0.0316
 IR Inten    --     14.4884                 9.6930                 3.5151

                      4                      5                      6
                      A                      A                      A
 Frequencies --    169.0948               198.3508               231.0675
 Red. masses --      3.3747                 4.6381                 2.1569
 Frc consts  --      0.0569                 0.1075                 0.0679
 IR Inten    --      0.0224                 4.1365                 0.0918

                      7                      8                      9
                      A                      A                      A
 Frequencies --    248.4607               279.0161               321.0256
 Red. masses --      2.8896                 2.0587                 4.2967
 Frc consts  --      0.1051                 0.0944                 0.2609
 IR Inten    --      0.0400                 0.5155                 1.4323

                     10                     11                     12
                      A                      A                      A
 Frequencies --    344.7545               385.7444               445.6100
 Red. masses --      7.4734                10.1374                11.4475
 Frc consts  --      0.5233                 0.8887                 1.3393
 IR Inten    --      6.6174                14.9926                30.3737

                     13                     14                     15
                      A                      A                      A
 Frequencies --    467.9932               498.3982               525.2747
 Red. masses --      4.0988                 6.0253                 7.2919
 Frc consts  --      0.5289                 0.8818                 1.1854
 IR Inten    --      0.1588                 0.1194                20.0268

                     16                     17                     18
                      A                      A                      A
 Frequencies --    532.6077               618.8121               632.6681
 Red. masses --      3.7920                 4.9398                 2.4073
 Frc consts  --      0.6338                 1.1145                 0.5677
 IR Inten    --      0.4823                 5.1547                 0.0007

                     19                     20                     21
                      A                      A                      A
 Frequencies --    650.5783               712.6703               763.1452
 Red. masses --      5.4046                 3.1804                 6.4135
 Frc consts  --      1.3478                 0.9517                 2.2007
 IR Inten    --     32.1760                12.5877                 3.0941

                     22                     23                     24
                      A                      A                      A
 Frequencies --    776.0044               777.3483               823.6419
 Red. masses --      2.2237                 5.5807                 2.9538
 Frc consts  --      0.7889                 1.9869                 1.1806
 IR Inten    --     58.1032                 1.4847                54.2657

                     25                     26                     27
                      A                      A                      A
 Frequencies --    869.8801               893.3354               922.9796
 Red. masses --      2.0252                 6.7865                 1.4408
 Frc consts  --      0.9029                 3.1910                 0.7231
 IR Inten    --     47.6777                11.4169                 2.0548

                     28                     29                     30
                      A                      A                      A
 Frequencies --   1005.8646              1016.8719              1031.2249
 Red. masses --      1.3238                 1.2620                 5.4742
 Frc consts  --      0.7892                 0.7689                 3.4299
 IR Inten    --      0.3879                 0.0005               178.4672

                     31                     32                     33
                      A                      A                      A
 Frequencies --   1061.9875              1112.7630              1128.4291
 Red. masses --      5.4002                 1.8477                 1.9393
 Frc consts  --      3.5884                 1.3480                 1.4549
 IR Inten    --     36.2383                22.7179               105.9063

                     34                     35                     36
                      A                      A                      A
 Frequencies --   1162.7413              1182.6680              1195.3924
 Red. masses --      1.2703                 1.5242                 1.4655
 Frc consts  --      1.0119                 1.2561                 1.2338
 IR Inten    --      1.2723               126.3780                50.2926

                     37                     38                     39
                      A                      A                      A
 Frequencies --   1213.7479              1266.1098              1297.3757
 Red. masses --      1.3033                 2.6362                 2.7127
 Frc consts  --      1.1313                 2.4898                 2.6902
 IR Inten    --      7.2279               349.5812               195.3217

                     40                     41                     42
                      A                      A                      A
 Frequencies --   1309.0097              1361.0915              1395.7061
 Red. masses --      4.3800                 7.4821                 1.8669
 Frc consts  --      4.4219                 8.1668                 2.1427
 IR Inten    --    445.1849                35.7528                10.9217

                     43                     44                     45
                      A                      A                      A
 Frequencies --   1458.6617              1467.5970              1488.3102
 Red. masses --      2.7014                 1.5560                 1.0478
 Frc consts  --      3.3865                 1.9746                 1.3675
 IR Inten    --     64.8290                29.7547                16.5682

                     46                     47                     48
                      A                      A                      A
 Frequencies --   1494.7811              1498.3457              1596.4543
 Red. masses --      1.4721                 1.2716                 6.0770
 Frc consts  --      1.9380                 1.6820                 9.1253
 IR Inten    --     67.4912                11.7236               119.9437

                     49                     50                     51
                      A                      A                      A
 Frequencies --   1614.3020              1662.1217              1686.5977
 Red. masses --      5.6648                10.0807                10.5443
 Frc consts  --      8.6977                16.4084                17.6723
 IR Inten    --    358.3920               142.3581               922.8183

                     52                     53                     54
                      A                      A                      A
 Frequencies --   1700.5748              3029.3449              3100.6383
 Red. masses --      8.7040                 1.0324                 1.1078
 Frc consts  --     14.8307                 5.5820                 6.2747
 IR Inten    --     93.7413                73.3827                35.6805

                     55                     56                     57
                      A                      A                      A
 Frequencies --   3151.6563              3178.2171              3184.7285
 Red. masses --      1.1022                 1.0874                 1.0897
 Frc consts  --      6.4506                 6.4713                 6.5115
 IR Inten    --     21.2965                 4.0666                10.0168

                     58                     59                     60
                      A                      A                      A
 Frequencies --   3195.0874              3211.8845              3223.3735
 Red. masses --      1.0992                 1.0924                 1.0923
 Frc consts  --      6.6117                 6.6400                 6.6864
 IR Inten    --      9.4859                 3.5625                 3.7736

 - Thermochemistry -
 -------------------
 Temperature   298.150 Kelvin.  Pressure   1.00000 Atm.
 Atom     1 has atomic number  6 and mass  12.00000

 Molecular mass:   188.04734 amu.
 Principal axes and moments of inertia in atomic units:
                           1         2         3
     Eigenvalues --  1583.959412845.855444418.25927
           X            0.98355   0.15056   0.09979
           Y           -0.17113   0.95355   0.24792
           Z           -0.05783  -0.26092   0.96363
 This molecule is an asymmetric top.
 Rotational symmetry number  1.
 Warning -- assumption of classical behavior for rotation
           may cause significant error
 Rotational temperatures (Kelvin)      0.05468     0.03044     0.01960
 Rotational constants (GHZ):           1.13939     0.63416     0.40847
 Zero-point vibrational energy     430610.3 (Joules/Mol)
                                  102.91834 (Kcal/Mol)
 Warning -- explicit consideration of  17 degrees of freedom as
           vibrations may cause significant error
 Vibrational temperatures:     70.32    85.00   161.64   243.29   285.38
          (Kelvin)            332.45   357.48   401.44   461.88   496.02
                              555.00   641.13   673.34   717.08   755.75
                              766.30   890.33   910.27   936.04  1025.37
                             1098.00  1116.50  1118.43  1185.04  1251.56
                             1285.31  1327.96  1447.21  1463.05  1483.70
                             1527.96  1601.02  1623.56  1672.93  1701.60
                             1719.90  1746.31  1821.65  1866.63  1883.37
                             1958.31  2008.11  2098.69  2111.54  2141.35
                             2150.66  2155.79  2296.94  2322.62  2391.42
                             2426.64  2446.75  4358.55  4461.13  4534.53
                             4572.75  4582.11  4597.02  4621.19  4637.72

 Zero-point correction=                           0.164011 (Hartree/Particle)
 Thermal correction to Energy=                    0.175437
 Thermal correction to Enthalpy=                  0.176381
 Thermal correction to Gibbs Free Energy=         0.126100
 Sum of electronic and zero-point Energies=           -649.655795
 Sum of electronic and thermal Energies=              -649.644369
 Sum of electronic and thermal Enthalpies=            -649.643425
 Sum of electronic and thermal Free Energies=         -649.693706

                     E (Thermal)             CV                S
                      KCal/Mol        Cal/Mol-Kelvin    Cal/Mol-Kelvin
 Total                  110.088             43.871            105.826
 Electronic               0.000              0.000              0.000
 Translational            0.889              2.981             41.600
 Rotational               0.889              2.981             31.366
 Vibrational            108.311             37.909             32.859
 Vibration     1          0.595              1.978              4.862
 Vibration     2          0.596              1.974              4.488
 Vibration     3          0.607              1.939              3.228
 Vibration     4          0.625              1.881              2.446
 Vibration     5          0.637              1.842              2.148
 Vibration     6          0.653              1.793              1.871
 Vibration     7          0.662              1.765              1.741
 Vibration     8          0.679              1.712              1.540
 Vibration     9          0.706              1.633              1.305
 Vibration    10          0.723              1.586              1.190
 Vibration    11          0.754              1.501              1.017
 Vibration    12          0.805              1.371              0.809
 Vibration    13          0.825              1.321              0.743
 Vibration    14          0.854              1.254              0.662
 Vibration    15          0.880              1.194              0.598
 Vibration    16          0.888              1.178              0.581
 Vibration    17          0.979              0.992              0.418

 Optimization completed.
    -- Stationary point found.
 Normal termination of Gaussian 16 at Sun Feb 11 00:20:07 2024.
