 Q-Chem 5.4, Q-Chem, Inc., Pleasanton, CA (2021)
 Q-Chem 5.4.0 for Intel X86 EM64T Linux

User input:
--------------------------------------------------------------
$molecule
-1 2
I                 -2.7979160000     -2.0528820000      0.0039920000
C                 -1.1199340000     -0.7442720000      0.0007270000
C                 -1.3190510000      0.6057140000     -0.0163020000
C                 -0.2050890000      1.5362930000     -0.0191900000
O                 -0.3714510000      2.7839410000     -0.0348410000
C                  1.1137200000      0.9305440000     -0.0029220000
C                  1.2760040000     -0.4245960000      0.0139190000
I                  3.2384270000     -1.2464600000      0.0372550000
C                  0.1864610000     -1.3959120000      0.0175190000
O                  0.3509680000     -2.6322970000      0.0329200000
H                 -2.3132210000      1.0349790000     -0.0282860000
H                  1.9610800000      1.6049480000     -0.0047900000
$end
$rem
MAX_SCF_CYCLES=200
BASIS  =  6-311++G(d,p)
GUI  =  2
JOB_TYPE  =  SP
METHOD  =  B3LYP
SOLVENT_METHOD = COSMO
$end
$solvent
dielectric 37.219
opticaldielectric 1.43
$end

--------------------------------------------------------------

             Standard Nuclear Orientation (Angstroms)
    I     Atom           X                Y                Z
 ----------------------------------------------------------------
    1      I       3.0450315085    -0.6052229306     0.0000069246
    2      C       1.2085749842     0.4697290767    -0.0000243750
    3      C       1.2272528416     1.8342989372    -0.0000132734
    4      C      -0.0000999818     2.6092195784    -0.0000286997
    5      O      -0.0003432936     3.8680073839     0.0000190661
    6      C      -1.2271448952     1.8340973585     0.0000133092
    7      C      -1.2086311482     0.4692965026    -0.0000100427
    8      I      -3.0450308621    -0.6052941752     0.0000041648
    9      C      -0.0000910751    -0.3492403443    -0.0000631931
   10      O       0.0005007040    -1.5966164938    -0.0000043168
   11      H       2.1558708037     2.3914835797    -0.0000078297
   12      H      -2.1563287000     2.3903892505     0.0000597449
 ----------------------------------------------------------------

   11  -14219.4891007899      5.79e-06  Convergence criterion met
 Total energy in the final basis set =   -14219.4891007899
    5  -14219.5661699345      5.32e-06  Convergence criterion met
 Total energy in the final basis set =   -14219.5661699345

                    Orbital Energies (a.u.)
 --------------------------------------------------------------

 Alpha MOs
 -- Occupied --
*****************-176.2944-176.2943-165.6980-165.6979-165.6961-165.6961
********-165.6959 -35.7908 -35.7908 -31.2837 -31.2836 -31.2783 -31.2783
-31.2780 -31.2780 -22.9343 -22.9342 -22.9330 -22.9330 -22.9329 -22.9328
-22.9291 -22.9291 -22.9291 -22.9291 -19.0995 -19.0965 -10.2517 -10.2401
-10.2232 -10.2232 -10.1831 -10.1831  -6.3403  -6.3402  -4.7517  -4.7516
 -4.7387  -4.7386  -4.7380  -4.7379  -2.0175  -2.0175  -2.0137  -2.0137
 -2.0131  -2.0131  -2.0019  -2.0019  -2.0017  -2.0016  -1.0293  -1.0189
 -0.8495  -0.7772  -0.7110  -0.6607  -0.6512  -0.5759  -0.5695  -0.5004
 -0.4864  -0.4378  -0.4335  -0.4179  -0.4133  -0.3973  -0.3776  -0.3499
 -0.3176  -0.3152  -0.2755  -0.2674  -0.2633  -0.2623  -0.2494  -0.2441
 -0.1812

 Beta MOs
 -- Occupied --
*****************-176.2944-176.2943-165.6980-165.6980-165.6961-165.6961
********-165.6959 -35.7908 -35.7908 -31.2837 -31.2836 -31.2783 -31.2783
-31.2780 -31.2780 -22.9343 -22.9342 -22.9330 -22.9330 -22.9329 -22.9328
-22.9291 -22.9291 -22.9291 -22.9290 -19.0928 -19.0892 -10.2503 -10.2389
-10.2222 -10.2222 -10.1818 -10.1818  -6.3403  -6.3402  -4.7517  -4.7517
 -4.7386  -4.7386  -4.7380  -4.7379  -2.0176  -2.0175  -2.0137  -2.0137
 -2.0131  -2.0131  -2.0019  -2.0018  -2.0017  -2.0016  -1.0177  -1.0062
 -0.8432  -0.7744  -0.7012  -0.6584  -0.6487  -0.5730  -0.5652  -0.4981
 -0.4819  -0.4305  -0.4145  -0.4134  -0.4119  -0.3752  -0.3682  -0.3478
 -0.3128  -0.2901  -0.2726  -0.2672  -0.2564  -0.2518  -0.2456  -0.2395

          Ground-State Mulliken Net Atomic Charges

     Atom                 Charge (a.u.)    Spin (a.u.)
  --------------------------------------------------------
      1 I                    -0.041090       0.000297
      2 C                     1.276639       0.088109
      3 C                    -0.527411       0.082507
      4 C                    -0.132825       0.127389
      5 O                    -0.510643       0.249021
      6 C                    -0.526659       0.082923
      7 C                     1.276159       0.088131
      8 I                    -0.040956       0.000312
      9 C                    -1.819822       0.055542
     10 O                    -0.358033       0.240539
     11 H                     0.202333      -0.007375
     12 H                     0.202309      -0.007396
  --------------------------------------------------------
  Sum of atomic charges =    -1.000000

                    Cartesian Multipole Moments
 -----------------------------------------------------------------
    Charge (ESU x 10^10)
                -4.8032
    Dipole Moment (Debye)
         X      -0.0004      Y      -3.4712      Z      -0.0004
       Tot       3.4712
    Quadrupole Moments (Debye-Ang)
        XX    -110.8012     XY       0.0115     YY    -147.8751
        XZ       0.0009     YZ      -0.0005     ZZ    -106.7785

 Total job time:  26.12s(wall), 190.17s(cpu)
        *  Thank you very much for using Q-Chem.  Have a nice day.  *
