 Gaussian 16, Revision A.03,
 Gaussian 16:  ES64L-G16RevA.03 25-Dec-2016

 --------------------------------------
 #P UB3LYP/6-311++G(d,p) nosym opt freq
 --------------------------------------

 --------
 Oxidized
 --------
 Symbolic Z-matrix:
 Charge =  0 Multiplicity = 1

 SCF Done:  E(UB3LYP) =  -1608.14078019     A.U. after   17 cycles
 SCF Done:  E(UB3LYP) =  -1608.16685531     A.U. after   16 cycles
 SCF Done:  E(UB3LYP) =  -1608.17294141     A.U. after   14 cycles
 SCF Done:  E(UB3LYP) =  -1608.17343309     A.U. after   13 cycles
 SCF Done:  E(UB3LYP) =  -1608.17348236     A.U. after   12 cycles
 SCF Done:  E(UB3LYP) =  -1608.17348705     A.U. after   11 cycles
 SCF Done:  E(UB3LYP) =  -1608.17348978     A.U. after   10 cycles
 Optimization completed.
    -- Stationary point found.
 Normal termination of Gaussian 16 at Thu Dec 21 06:07:40 2023.

 ----------------------------------------------------------------------
 #P Geom=AllCheck Guess=TCheck SCRF=Check GenChk UB3LYP/6-311++G(d,p) F
 req
 ----------------------------------------------------------------------

 Structure from the checkpoint file:  "122.chk"
 --------
 Oxidized
 --------
 Charge =  0 Multiplicity = 1

                          Input orientation:
 ---------------------------------------------------------------------
 Center     Atomic      Atomic             Coordinates (Angstroms)
 Number     Number       Type             X           Y           Z
 ---------------------------------------------------------------------
      1         17           0       -2.522275    2.766223    1.799648
      2          6           0       -2.414446    1.195340    1.037302
      3          6           0       -3.622380    0.502494    0.946709
      4          6           0       -3.677314   -0.756927    0.363208
      5          6           0       -2.518727   -1.333379   -0.135574
      6          6           0       -1.307209   -0.647840   -0.049232
      7          6           0       -0.104609   -1.328316   -0.606105
      8          8           0       -0.191774   -2.435292   -1.111843
      9          6           0        1.206914   -0.625770   -0.531804
     10          6           0        2.311814   -1.290849   -1.062738
     11          6           0        3.562870   -0.693348   -1.026054
     12          6           0        3.706531    0.566612   -0.459126
     13          6           0        2.606265    1.239150    0.074407
     14         17           0        2.962086    2.813884    0.748329
     15          6           0        1.320654    0.656122    0.051281
     16          6           0        0.106036    1.343427    0.614160
     17          8           0        0.192883    2.443887    1.116952
     18          6           0       -1.218871    0.633922    0.538443
     19          1           0       -4.516936    0.967190    1.340987
     20          1           0       -4.624237   -1.280324    0.301543
     21          1           0       -2.522603   -2.312202   -0.596801
     22          1           0        2.161413   -2.270885   -1.496077
     23          1           0        4.428455   -1.200774   -1.435564
     24          1           0        4.675460    1.047655   -0.422051
 ---------------------------------------------------------------------

 SCF Done:  E(UB3LYP) =  -1608.17348978     A.U. after    1 cycles

 Alpha  occ. eigenvalues -- -101.56198-101.56197 -19.13527 -19.13086 -10.29231
 Alpha  occ. eigenvalues --  -10.28874 -10.26932 -10.26931 -10.23045 -10.23044
 Alpha  occ. eigenvalues --  -10.22198 -10.22196 -10.21483 -10.21483 -10.21359
 Alpha  occ. eigenvalues --  -10.21358 -10.20757 -10.20757  -9.47673  -9.47672
 Alpha  occ. eigenvalues --   -7.24163  -7.24162  -7.23182  -7.23181  -7.23052
 Alpha  occ. eigenvalues --   -7.23051  -1.07276  -1.07053  -0.92100  -0.91757
 Alpha  occ. eigenvalues --   -0.86941  -0.86135  -0.82461  -0.78842  -0.77083
 Alpha  occ. eigenvalues --   -0.76549  -0.69962  -0.67916  -0.66279  -0.61853
 Alpha  occ. eigenvalues --   -0.59059  -0.57341  -0.56767  -0.51518  -0.50760
 Alpha  occ. eigenvalues --   -0.50709  -0.50424  -0.46777  -0.46435  -0.46398
 Alpha  occ. eigenvalues --   -0.45956  -0.45657  -0.45157  -0.42690  -0.42258
 Alpha  occ. eigenvalues --   -0.41658  -0.40043  -0.39253  -0.39243  -0.38678
 Alpha  occ. eigenvalues --   -0.35445  -0.34921  -0.34043  -0.31954  -0.30089
 Alpha  occ. eigenvalues --   -0.29290  -0.28980  -0.27291  -0.27246  -0.26212
 Alpha virt. eigenvalues --   -0.12423  -0.08525  -0.05261  -0.04158  -0.01355
 Alpha virt. eigenvalues --   -0.00898   0.00131   0.00965   0.01116   0.01902
 Alpha virt. eigenvalues --    0.01917   0.01974   0.02806   0.03878   0.03901

  Beta  occ. eigenvalues -- -101.56198-101.56197 -19.13527 -19.13086 -10.29231
  Beta  occ. eigenvalues --  -10.28874 -10.26932 -10.26931 -10.23045 -10.23044
  Beta  occ. eigenvalues --  -10.22198 -10.22196 -10.21483 -10.21483 -10.21359
  Beta  occ. eigenvalues --  -10.21358 -10.20757 -10.20757  -9.47673  -9.47672
  Beta  occ. eigenvalues --   -7.24163  -7.24162  -7.23182  -7.23181  -7.23052
  Beta  occ. eigenvalues --   -7.23051  -1.07276  -1.07053  -0.92100  -0.91757
  Beta  occ. eigenvalues --   -0.86941  -0.86135  -0.82461  -0.78842  -0.77083
  Beta  occ. eigenvalues --   -0.76549  -0.69962  -0.67916  -0.66279  -0.61853
  Beta  occ. eigenvalues --   -0.59059  -0.57341  -0.56767  -0.51518  -0.50760
  Beta  occ. eigenvalues --   -0.50709  -0.50424  -0.46777  -0.46435  -0.46398
  Beta  occ. eigenvalues --   -0.45956  -0.45657  -0.45157  -0.42690  -0.42258
  Beta  occ. eigenvalues --   -0.41658  -0.40043  -0.39253  -0.39243  -0.38678
  Beta  occ. eigenvalues --   -0.35445  -0.34921  -0.34043  -0.31954  -0.30089
  Beta  occ. eigenvalues --   -0.29290  -0.28980  -0.27291  -0.27246  -0.26212
  Beta virt. eigenvalues --   -0.12423  -0.08525  -0.05261  -0.04158  -0.01355
  Beta virt. eigenvalues --   -0.00898   0.00131   0.00965   0.01116   0.01902
  Beta virt. eigenvalues --    0.01917   0.01974   0.02806   0.03878   0.03901

 Mulliken charges and spin densities:
               1          2
     1  Cl   0.454009  -0.000000
     2  C    1.089754   0.000000
     3  C   -0.017935  -0.000000
     4  C   -0.575232   0.000000
     5  C    0.406664  -0.000000
     6  C    0.081424  -0.000000
     7  C   -1.206019   0.000000
     8  O   -0.193998  -0.000000
     9  C    0.080993  -0.000000
    10  C    0.406828  -0.000000
    11  C   -0.575374   0.000000
    12  C   -0.017753  -0.000000
    13  C    1.090121  -0.000000
    14  Cl   0.453996  -0.000000
    15  C   -0.138705   0.000000
    16  C   -2.367171   0.000000
    17  O    0.003613   0.000000
    18  C   -0.138684   0.000000
    19  H    0.208104  -0.000000
    20  H    0.179628   0.000000
    21  H    0.194005  -0.000000
    22  H    0.194010  -0.000000
    23  H    0.179620   0.000000
    24  H    0.208101  -0.000000
 Sum of Mulliken charges =  -0.00000   0.00000

 Dipole moment (field-independent basis, Debye):
    X=             -0.1736    Y=             -2.1938    Z=             -1.0029  Tot=              2.4184
 Quadrupole moment (field-independent basis, Debye-Ang):
   XX=            -91.9452   YY=           -128.6992   ZZ=           -119.1123
   XY=             -0.6335   XZ=             -5.3654   YZ=             -5.0283

  Exact polarizability: 260.607  10.699 208.530 -28.085  53.150 122.104
 Approx polarizability: 379.347  20.844 388.222 -35.249 108.741 207.502

 ******    1 imaginary frequencies (negative Signs) ******

                      1                      2                      3
                      A                      A                      A
 Frequencies --    -43.8262                35.5045                55.4072
 Red. masses --     13.1646                10.0500                 8.6828
 Frc consts  --      0.0149                 0.0075                 0.0157
 IR Inten    --      2.7466                 0.0000                 3.6915

                      4                      5                      6
                      A                      A                      A
 Frequencies --    147.5107               153.9647               183.6324
 Red. masses --     18.7661                 6.7360                 4.4131
 Frc consts  --      0.2406                 0.0941                 0.0877
 IR Inten    --      0.6414                 0.6434                 0.0000

                      7                      8                      9
                      A                      A                      A
 Frequencies --    198.9170               235.1276               251.1377
 Red. masses --      5.4399                17.0315                 6.4572
 Frc consts  --      0.1268                 0.5548                 0.2399
 IR Inten    --      0.1829                 0.7058                 0.0000

                     10                     11                     12
                      A                      A                      A
 Frequencies --    303.1412               342.9254               380.2713
 Red. masses --      7.6807                15.0313                10.0787
 Frc consts  --      0.4159                 1.0415                 0.8587
 IR Inten    --      0.0626                 0.1635                 0.6157

                     13                     14                     15
                      A                      A                      A
 Frequencies --    383.0827               413.3866               417.8698
 Red. masses --      6.7178                13.1801                 9.1728
 Frc consts  --      0.5809                 1.3270                 0.9437
 IR Inten    --      1.6537                23.7238                 5.1139

                     16                     17                     18
                      A                      A                      A
 Frequencies --    429.9370               484.4689               492.2843
 Red. masses --      5.1399                 9.5761                 3.9161
 Frc consts  --      0.5598                 1.3243                 0.5592
 IR Inten    --      0.0650                 1.2660                 0.0017

                     19                     20                     21
                      A                      A                      A
 Frequencies --    492.4819               494.8643               541.3651
 Red. masses --     11.6693                 4.9715                 5.4815
 Frc consts  --      1.6675                 0.7173                 0.9465
 IR Inten    --      1.4842                 4.7502                 0.0000

                     22                     23                     24
                      A                      A                      A
 Frequencies --    629.6784               657.9054               694.1924
 Red. masses --      6.6590                 4.5819                 7.4953
 Frc consts  --      1.5556                 1.1685                 2.1281
 IR Inten    --      3.1027                 5.4100                18.4107

                     25                     26                     27
                      A                      A                      A
 Frequencies --    719.0200               741.7223               756.9251
 Red. masses --      4.0404                 9.2208                 2.6849
 Frc consts  --      1.2307                 2.9888                 0.9063
 IR Inten    --      0.0000                44.6275                63.5350

                     28                     29                     30
                      A                      A                      A
 Frequencies --    765.9959               799.1915               811.0887
 Red. masses --      6.6076                 5.1946                 1.3709
 Frc consts  --      2.2843                 1.9548                 0.5314
 IR Inten    --     14.3107                 6.6756                 0.0000

                     31                     32                     33
                      A                      A                      A
 Frequencies --    837.9715               856.6828               920.3645
 Red. masses --      2.1724                 9.1912                 6.8136
 Frc consts  --      0.8988                 3.9743                 3.4005
 IR Inten    --     31.1174                55.8178                15.4605

                     34                     35                     36
                      A                      A                      A
 Frequencies --    949.3386               953.5211               997.8010
 Red. masses --      1.3486                 1.3931                 7.6959
 Frc consts  --      0.7161                 0.7463                 4.5144
 IR Inten    --      0.0000                 0.1343                41.2836

                     37                     38                     39
                      A                      A                      A
 Frequencies --   1013.2099              1014.3463              1089.1714
 Red. masses --      1.3347                 1.3431                 2.9957
 Frc consts  --      0.8073                 0.8142                 2.0938
 IR Inten    --      0.0016                 1.2399                 0.0870

                     40                     41                     42
                      A                      A                      A
 Frequencies --   1105.9827              1148.5306              1152.7797
 Red. masses --      1.8892                 4.8586                 2.4898
 Frc consts  --      1.3615                 3.7761                 1.9495
 IR Inten    --      0.0107                86.5316                39.3684

                     43                     44                     45
                      A                      A                      A
 Frequencies --   1172.4979              1196.7938              1201.0408
 Red. masses --      1.9404                 1.4500                 1.3026
 Frc consts  --      1.5717                 1.2237                 1.1071
 IR Inten    --      1.1327                15.6550                 0.1446

                     46                     47                     48
                      A                      A                      A
 Frequencies --   1238.0397              1249.6415              1319.4178
 Red. masses --      1.9189                 3.8244                 3.3259
 Frc consts  --      1.7329                 3.5187                 3.4114
 IR Inten    --      0.4198               396.6527               227.3840

                     49                     50                     51
                      A                      A                      A
 Frequencies --   1330.9753              1334.3267              1442.7225
 Red. masses --      9.6082                 9.6203                 3.4864
 Frc consts  --     10.0284                10.0917                 4.2755
 IR Inten    --    137.2014                 0.0427                22.3279

                     52                     53                     54
                      A                      A                      A
 Frequencies --   1452.2030              1474.4357              1475.8582
 Red. masses --      3.1219                 2.4168                 2.5001
 Frc consts  --      3.8791                 3.0956                 3.2085
 IR Inten    --      5.2795                 9.7252                 2.8032

                     55                     56                     57
                      A                      A                      A
 Frequencies --   1595.2246              1604.2711              1613.8492
 Red. masses --      6.1371                 6.2620                 6.3049
 Frc consts  --      9.2014                 9.4955                 9.6751
 IR Inten    --      3.3626                 1.9426               145.3030

                     58                     59                     60
                      A                      A                      A
 Frequencies --   1615.8739              1720.5048              1740.5135
 Red. masses --      5.7497                12.3622                12.8807
 Frc consts  --      8.8453                21.5605                22.9904
 IR Inten    --      1.3067                84.7025               219.7212

                     61                     62                     63
                      A                      A                      A
 Frequencies --   3181.2724              3181.3226              3202.4274
 Red. masses --      1.0886                 1.0886                 1.0932
 Frc consts  --      6.4913                 6.4915                 6.6055
 IR Inten    --      5.9007                 4.0162                 1.5783

                     64                     65                     66
                      A                      A                      A
 Frequencies --   3202.5521              3210.4620              3210.9275
 Red. masses --      1.0932                 1.0942                 1.0943
 Frc consts  --      6.6058                 6.6445                 6.6472
 IR Inten    --      0.7231                 8.5684                 0.2498

 - Thermochemistry -
 -------------------
 Temperature   298.150 Kelvin.  Pressure   1.00000 Atm.
 Atom     1 has atomic number 17 and mass  34.96885

 Molecular mass:   275.97448 amu.
 Principal axes and moments of inertia in atomic units:
                           1         2         3
     Eigenvalues --  3414.659226018.766469433.42538
           X            0.98206   0.07157   0.17446
           Y            0.00856   0.90732  -0.42036
           Z           -0.18838   0.41431   0.89043
 This molecule is an asymmetric top.
 Rotational symmetry number  1.
 Warning -- assumption of classical behavior for rotation
           may cause significant error
 Rotational temperatures (Kelvin)      0.02537     0.01439     0.00918
 Rotational constants (GHZ):           0.52853     0.29985     0.19131
    1 imaginary frequencies ignored.
 Zero-point vibrational energy     418811.7 (Joules/Mol)
                                  100.09841 (Kcal/Mol)
 Warning -- explicit consideration of  20 degrees of freedom as
           vibrations may cause significant error
 Vibrational temperatures:     51.08    79.72   212.24   221.52   264.21
          (Kelvin)            286.20   338.30   361.33   436.15   493.39
                              547.13   551.17   594.77   601.22   618.58
                              697.04   708.29   708.57   712.00   778.90
                              905.97   946.58   998.79  1034.51  1067.17
                             1089.05  1102.10  1149.86  1166.98  1205.65
                             1232.58  1324.20  1365.89  1371.90  1435.61
                             1457.78  1459.42  1567.07  1591.26  1652.48
                             1658.59  1686.96  1721.92  1728.03  1781.26
                             1797.96  1898.35  1914.98  1919.80  2075.76
                             2089.40  2121.38  2123.43  2295.17  2308.19
                             2321.97  2324.88  2475.42  2504.21  4577.14
                             4577.21  4607.58  4607.76  4619.14  4619.81

 Zero-point correction=                           0.159517 (Hartree/Particle)
 Thermal correction to Energy=                    0.172440
 Thermal correction to Enthalpy=                  0.173384
 Thermal correction to Gibbs Free Energy=         0.118982
 Sum of electronic and zero-point Energies=          -1608.013973
 Sum of electronic and thermal Energies=             -1608.001050
 Sum of electronic and thermal Enthalpies=           -1608.000106
 Sum of electronic and thermal Free Energies=        -1608.054508

                     E (Thermal)             CV                S
                      KCal/Mol        Cal/Mol-Kelvin    Cal/Mol-Kelvin
 Total                  108.207             51.399            114.499
 Electronic               0.000              0.000              0.000
 Translational            0.889              2.981             42.744
 Rotational               0.889              2.981             33.627
 Vibrational            106.430             45.437             38.127
 Vibration     1          0.594              1.982              5.495
 Vibration     2          0.596              1.975              4.614
 Vibration     3          0.617              1.905              2.704
 Vibration     4          0.619              1.898              2.623
 Vibration     5          0.631              1.862              2.291
 Vibration     6          0.637              1.841              2.143
 Vibration     7          0.655              1.787              1.839
 Vibration     8          0.663              1.761              1.723
 Vibration     9          0.695              1.668              1.399
 Vibration    10          0.722              1.590              1.199
 Vibration    11          0.750              1.512              1.038
 Vibration    12          0.752              1.506              1.027
 Vibration    13          0.777              1.441              0.915
 Vibration    14          0.781              1.431              0.899
 Vibration    15          0.791              1.405              0.859
 Vibration    16          0.841              1.284              0.698
 Vibration    17          0.848              1.267              0.678
 Vibration    18          0.848              1.267              0.677
 Vibration    19          0.850              1.261              0.671
 Vibration    20          0.896              1.159              0.562

                           ! Non-Optimized Parameters !
 Normal termination of Gaussian 16 at Thu Dec 21 06:51:39 2023.
