 Gaussian 16, Revision A.03,
 Gaussian 16:  ES64L-G16RevA.03 25-Dec-2016

 ----------------------------------------------------------------
 #P UB3LYP/6-311++G(d,p) SCRF=(PCM,Solvent=n,n-DiMethylFormamide)
 ----------------------------------------------------------------

 -------
 Reduced
 -------
 Symbolic Z-matrix:
 Charge = -2 Multiplicity = 1

                         Standard orientation:
 ---------------------------------------------------------------------
 Center     Atomic      Atomic             Coordinates (Angstroms)
 Number     Number       Type             X           Y           Z
 ---------------------------------------------------------------------
      1          6           0        2.933790    1.854187    0.888408
      2          8           0        2.578464    1.048568   -0.224434
      3          6           0        1.274834    0.555658   -0.167621
      4          6           0        1.081039   -0.831800   -0.157449
      5         17           0        2.531884   -1.888599   -0.138286
      6          6           0       -0.185187   -1.495023   -0.182664
      7          8           0       -0.360837   -2.773882   -0.204281
      8          6           0       -1.274851   -0.555697   -0.167858
      9          6           0       -1.081074    0.831768   -0.157354
     10         17           0       -2.531926    1.888536   -0.138409
     11          6           0        0.185151    1.495001   -0.182398
     12          8           0        0.360789    2.773844   -0.204153
     13          8           0       -2.578464   -1.048698   -0.224468
     14          6           0       -2.933621   -1.853883    0.888741
     15          1           0        2.959226    1.253006    1.812206
     16          1           0        3.942880    2.236816    0.689373
     17          1           0        2.226575    2.683163    0.993646
     18          1           0       -2.225902   -2.682357    0.994673
     19          1           0       -2.959804   -1.252124    1.812160
     20          1           0       -3.942363   -2.237367    0.689629
 ---------------------------------------------------------------------

 SCF Done:  E(UB3LYP) =  -1530.19002214     A.U. after   17 cycles

 The electronic state is 1-A.
 Alpha  occ. eigenvalues -- -101.52841-101.52841 -19.12024 -19.12023 -19.02412
 Alpha  occ. eigenvalues --  -19.02411 -10.19309 -10.19309 -10.19203 -10.19202
 Alpha  occ. eigenvalues --  -10.18918 -10.18916 -10.18797 -10.18797  -9.44267
 Alpha  occ. eigenvalues --   -9.44266  -7.20673  -7.20673  -7.19804  -7.19804
 Alpha  occ. eigenvalues --   -7.19735  -7.19734  -1.03303  -1.03174  -0.94050
 Alpha  occ. eigenvalues --   -0.93859  -0.84037  -0.83065  -0.77213  -0.71425
 Alpha  occ. eigenvalues --   -0.67793  -0.65864  -0.63173  -0.55564  -0.54664
 Alpha  occ. eigenvalues --   -0.49241  -0.47960  -0.46797  -0.44445  -0.43855
 Alpha  occ. eigenvalues --   -0.42937  -0.41030  -0.40237  -0.39291  -0.37560
 Alpha  occ. eigenvalues --   -0.36950  -0.34894  -0.34682  -0.33417  -0.33286
 Alpha  occ. eigenvalues --   -0.30910  -0.30693  -0.29354  -0.29242  -0.27125
 Alpha  occ. eigenvalues --   -0.26106  -0.22886  -0.20628  -0.20616  -0.19769
 Alpha  occ. eigenvalues --   -0.12879
 Alpha virt. eigenvalues --   -0.00462   0.01227   0.01450   0.01831   0.02496
 Alpha virt. eigenvalues --    0.03384   0.04184   0.04434   0.04508   0.04600
 Alpha virt. eigenvalues --    0.05993   0.06626   0.06712   0.06724   0.07510

  Beta  occ. eigenvalues -- -101.52841-101.52841 -19.12024 -19.12023 -19.02412
  Beta  occ. eigenvalues --  -19.02411 -10.19309 -10.19309 -10.19203 -10.19202
  Beta  occ. eigenvalues --  -10.18918 -10.18916 -10.18797 -10.18797  -9.44267
  Beta  occ. eigenvalues --   -9.44266  -7.20673  -7.20673  -7.19804  -7.19804
  Beta  occ. eigenvalues --   -7.19735  -7.19734  -1.03303  -1.03174  -0.94050
  Beta  occ. eigenvalues --   -0.93859  -0.84037  -0.83065  -0.77213  -0.71425
  Beta  occ. eigenvalues --   -0.67793  -0.65864  -0.63173  -0.55564  -0.54664
  Beta  occ. eigenvalues --   -0.49241  -0.47960  -0.46797  -0.44445  -0.43855
  Beta  occ. eigenvalues --   -0.42937  -0.41030  -0.40237  -0.39291  -0.37560
  Beta  occ. eigenvalues --   -0.36950  -0.34894  -0.34682  -0.33417  -0.33286
  Beta  occ. eigenvalues --   -0.30910  -0.30693  -0.29354  -0.29242  -0.27125
  Beta  occ. eigenvalues --   -0.26106  -0.22886  -0.20628  -0.20616  -0.19769
  Beta  occ. eigenvalues --   -0.12879
  Beta virt. eigenvalues --   -0.00462   0.01227   0.01450   0.01831   0.02496
  Beta virt. eigenvalues --    0.03384   0.04184   0.04434   0.04508   0.04600
  Beta virt. eigenvalues --    0.05993   0.06626   0.06712   0.06724   0.07510

 Mulliken charges and spin densities:
               1          2
     1  C   -0.279977   0.000000
     2  O   -0.187860  -0.000000
     3  C   -1.822688  -0.000000
     4  C    2.011990  -0.000000
     5  Cl   0.148819   0.000000
     6  C   -0.653245   0.000000
     7  O   -0.647513  -0.000000
     8  C   -1.822753   0.000000
     9  C    2.011811  -0.000000
    10  Cl   0.148906  -0.000000
    11  C   -0.653800  -0.000000
    12  O   -0.647511  -0.000000
    13  O   -0.187826  -0.000000
    14  C   -0.280115  -0.000000
    15  H    0.111603  -0.000000
    16  H    0.140889  -0.000000
    17  H    0.178375   0.000000
    18  H    0.178382   0.000000
    19  H    0.111607  -0.000000
    20  H    0.140906  -0.000000
 Sum of Mulliken charges =  -2.00000  -0.00000

 Dipole moment (field-independent basis, Debye):
    X=              0.0007    Y=              0.0012    Z=              4.4138  Tot=              4.4138
 Quadrupole moment (field-independent basis, Debye-Ang):
   XX=           -124.8217   YY=           -162.2998   ZZ=           -102.8441
   XY=              5.6808   XZ=             -0.0015   YZ=             -0.0020

 Normal termination of Gaussian 16 at Sun Jan 21 07:37:34 2024.
