 Q-Chem 5.4, Q-Chem, Inc., Pleasanton, CA (2021)
 Q-Chem 5.4.0 for Intel X86 EM64T Linux

User input:
--------------------------------------------------------------
$molecule
-2 1
C                 -1.2589170000      1.8428960000     -0.8742170000
C                 -2.5236280000      1.1893750000     -0.8061160000
C                 -2.8530040000      0.1179500000      0.0414790000
C                 -1.8634210000     -0.4113190000      0.9463240000
C                 -0.5987170000      0.2422230000      0.8782460000
C                 -0.2693290000      1.3136170000      0.0306200000
O                 -1.0389250000      2.8407450000     -1.7001790000
O                 -2.0833980000     -1.4091930000      1.7722600000
C                  1.1369240000      1.9473780000      0.0406510000
C                  1.0195450000      3.4497720000      0.4006900000
C                  2.1013170000      1.2940300000      1.0492330000
C                  1.7665490000      1.8204740000     -1.3693190000
C                 -4.2592800000     -0.5157620000      0.0315000000
C                 -5.2236670000      0.1375670000     -0.9771000000
C                 -4.8888810000     -0.3887830000      1.4414760000
C                 -4.1419510000     -2.0181710000     -0.3284820000
H                 -3.2645030000      1.5940010000     -1.4913140000
H                  0.1421330000     -0.1623540000      1.5634980000
H                  0.3167550000      3.9180250000     -0.2936650000
H                  1.9997700000      3.9517820000      0.3378550000
H                  0.6422630000      3.5621260000      1.4241840000
H                  1.7277990000      1.3744620000      2.0751490000
H                  3.0787150000      1.7954980000      1.0006550000
H                  2.2524920000      0.2314730000      0.8333260000
H                  2.7409430000      2.3352810000     -1.4178150000
H                  1.9248740000      0.7638000000     -1.6160610000
H                  1.0777710000      2.2587930000     -2.0964840000
H                 -4.8503060000      0.0568540000     -2.0030510000
H                 -5.3745910000      1.2001990000     -0.7613830000
H                 -6.2011580000     -0.3636990000     -0.9283010000
H                 -5.0470700000      0.6679070000      1.6882210000
H                 -4.2001570000     -0.8271990000      2.1686380000
H                 -5.8633440000     -0.9034650000      1.4899780000
H                 -3.7647930000     -2.1305720000     -1.3520190000
H                 -5.1221670000     -2.5201730000     -0.2655000000
H                 -3.4390730000     -2.4863900000      0.3658030000
$end
$rem
MAX_SCF_CYCLES=200
BASIS  =  6-311++G(d,p)
GUI  =  2
JOB_TYPE  =  SP
METHOD  =  B3LYP
SOLVENT_METHOD = COSMO
$end
$solvent
dielectric 37.219
opticaldielectric 1.43
$end

--------------------------------------------------------------

             Standard Nuclear Orientation (Angstroms)
    I     Atom           X                Y                Z
 ----------------------------------------------------------------
    1      C       0.8381693543    -1.2197512945    -0.0000015402
    2      C      -0.5869956846    -1.2309747264    -0.0000619213
    3      C      -1.4200141319    -0.0991895744    -0.0000711203
    4      C      -0.8381697903     1.2197500797     0.0000442815
    5      C       0.5869975602     1.2309745946     0.0000728431
    6      C       1.4200139119     0.0991905390     0.0001274338
    7      O       1.5391846731    -2.3310072752    -0.0000255393
    8      O      -1.5391820376     2.3310081514     0.0001071676
    9      C       2.9570584420     0.2287869600     0.0000474634
   10      C       3.5301650833    -0.4678793566    -1.2596344263
   11      C       3.4535942649     1.6874189539     0.0000831436
   12      C       3.5304141159    -0.4682281301     1.2594048003
   13      C      -2.9570590764    -0.2287870514    -0.0000662014
   14      C      -3.4535974355    -1.6874181514    -0.0000751650
   15      C      -3.5303590892     0.4681955150    -1.2594691566
   16      C      -3.5302199369     0.4679107970     1.2595705216
   17      H      -1.0183121080    -2.2290130048    -0.0001123261
   18      H       1.0183116933     2.2290125161     0.0000461984
   19      H       3.1625077019    -1.4972383588    -1.2831209493
   20      H       4.6331992545    -0.4635847084    -1.2496094023
   21      H       3.1938975083     0.0545446581    -2.1632396297
   22      H       3.1057357793     2.2322499378    -0.8834565075
   23      H       4.5531161138     1.7011412699    -0.0003956610
   24      H       3.1064945983     2.2321537279     0.8839852529
   25      H       4.6334550475    -0.4636077334     1.2493483769
   26      H       3.1940098549     0.0536364290     2.1632841715
   27      H       3.1630313974    -1.4976962916     1.2824885387
   28      H      -3.1060061625    -2.2321603153     0.8836243093
   29      H      -3.1062308561    -2.2322428086    -0.8838178864
   30      H      -4.5531197402    -1.7011394601     0.0000901228
   31      H      -3.1938272737    -0.0536276402    -2.1633206614
   32      H      -3.1630689227     1.4977008519    -1.2825040471
   33      H      -4.6334034566     0.4634788291    -1.2495182728
   34      H      -3.1940815320    -0.0545599120     2.1631995734
   35      H      -4.6332502817     0.4637188601     1.2494397161
   36      H      -3.1624652256     1.4972312166     1.2831103202
 ----------------------------------------------------------------

   10    -696.1345067177      4.07e-06  Convergence criterion met
 Total energy in the final basis set =     -696.1345067177
    5    -696.4137154545      4.15e-06  Convergence criterion met
 Total energy in the final basis set =     -696.4137154545

                    Orbital Energies (a.u.)
 --------------------------------------------------------------

 Alpha MOs
 -- Occupied --
-19.0089 -19.0089 -10.1598 -10.1598 -10.1584 -10.1584 -10.1365 -10.1365
-10.1292 -10.1292 -10.1292 -10.1292 -10.1236 -10.1235 -10.1121 -10.1120
 -0.9190  -0.9155  -0.7991  -0.7927  -0.7506  -0.6801  -0.6627  -0.6627
 -0.6573  -0.6572  -0.6361  -0.5756  -0.5310  -0.5165  -0.4808  -0.4408
 -0.4365  -0.4305  -0.4132  -0.4124  -0.4096  -0.3909  -0.3894  -0.3780
 -0.3736  -0.3716  -0.3613  -0.3504  -0.3450  -0.3444  -0.3438  -0.3285
 -0.3129  -0.3070  -0.3065  -0.3024  -0.2991  -0.2959  -0.2940  -0.2882
 -0.2164  -0.1992  -0.1881  -0.1851  -0.1149

          Ground-State Mulliken Net Atomic Charges

     Atom                 Charge (a.u.)
  ----------------------------------------
      1 C                    -0.926679
      2 C                    -0.451038
      3 C                     1.044594
      4 C                    -0.926288
      5 C                    -0.450902
      6 C                     1.044338
      7 O                    -0.747376
      8 O                    -0.747373
      9 C                     0.605568
     10 C                    -0.701536
     11 C                    -0.556875
     12 C                    -0.701451
     13 C                     0.605103
     14 C                    -0.556320
     15 C                    -0.701620
     16 C                    -0.701569
     17 H                     0.136412
     18 H                     0.136431
     19 H                     0.175413
     20 H                     0.136262
     21 H                     0.123465
     22 H                     0.131561
     23 H                     0.164595
     24 H                     0.131602
     25 H                     0.136243
     26 H                     0.123504
     27 H                     0.175607
     28 H                     0.131594
     29 H                     0.131542
     30 H                     0.164600
     31 H                     0.123447
     32 H                     0.175454
     33 H                     0.136343
     34 H                     0.123471
     35 H                     0.136235
     36 H                     0.175645
  ----------------------------------------
  Sum of atomic charges =    -2.000000

                    Cartesian Multipole Moments
 -----------------------------------------------------------------
    Charge (ESU x 10^10)
                -9.6064
    Dipole Moment (Debye)
         X      -0.0001      Y      -0.0003      Z       0.0001
       Tot       0.0003
    Quadrupole Moments (Debye-Ang)
        XX    -139.2531     XY      27.2551     YY    -157.6660
        XZ       0.0015     YZ      -0.0013     ZZ    -113.9297

 Total job time:  100.91s(wall), 780.80s(cpu)
        *  Thank you very much for using Q-Chem.  Have a nice day.  *
