 Gaussian 16, Revision A.03,
 Gaussian 16:  ES64L-G16RevA.03 25-Dec-2016

 --------------------------------------
 #P UB3LYP/6-311++G(d,p) nosym opt freq
 --------------------------------------

 --------
 Oxidized
 --------
 Symbolic Z-matrix:
 Charge =  0 Multiplicity = 1

 SCF Done:  E(UB3LYP) =  -880.888996085     A.U. after   16 cycles
 SCF Done:  E(UB3LYP) =  -880.902249887     A.U. after   14 cycles
 SCF Done:  E(UB3LYP) =  -880.903486982     A.U. after   13 cycles
 SCF Done:  E(UB3LYP) =  -880.903597521     A.U. after   12 cycles
 SCF Done:  E(UB3LYP) =  -880.903606813     A.U. after   10 cycles
 SCF Done:  E(UB3LYP) =  -880.903608970     A.U. after   10 cycles
 Optimization completed.
    -- Stationary point found.
 Normal termination of Gaussian 16 at Sat Jan  6 02:03:00 2024.

 ----------------------------------------------------------------------
 #P Geom=AllCheck Guess=TCheck SCRF=Check GenChk UB3LYP/6-311++G(d,p) F
 req
 ----------------------------------------------------------------------

 Structure from the checkpoint file:  "328.chk"
 --------
 Oxidized
 --------
 Charge =  0 Multiplicity = 1

                          Input orientation:
 ---------------------------------------------------------------------
 Center     Atomic      Atomic             Coordinates (Angstroms)
 Number     Number       Type             X           Y           Z
 ---------------------------------------------------------------------
      1          6           0       -1.255718    2.584803   -0.734508
      2          6           0       -2.303801    1.929041   -0.131523
      3          6           0       -2.127892    0.622910    0.380917
      4          6           0        0.013025    1.962317   -0.850764
      5          6           0        0.191557    0.641131   -0.332631
      6          6           0       -0.908553   -0.007310    0.283040
      7          6           0        1.116081    2.603504   -1.464135
      8          6           0        2.341272    1.985176   -1.569070
      9          6           0        2.521915    0.663031   -1.051314
     10          6           0        1.461549    0.019994   -0.449975
     11          6           0        3.465818    2.709262   -2.224772
     12          6           0        4.828591    1.968526   -2.318783
     13          6           0        4.904804    0.627935   -1.761472
     14          6           0        3.840148    0.018601   -1.173477
     15          8           0        3.353333    3.827209   -2.674660
     16          8           0        5.775009    2.521497   -2.846107
     17          1           0       -1.385763    3.586651   -1.129052
     18          1           0       -3.270574    2.411655   -0.046541
     19          1           0       -2.962440    0.117748    0.853678
     20          1           0       -0.775086   -1.009253    0.676576
     21          1           0        1.008381    3.605285   -1.865297
     22          1           0        1.595205   -0.979743   -0.057458
     23          1           0        5.868595    0.145125   -1.845791
     24          8           0        3.870390   -1.219597   -0.646564
     25          6           0        5.090324   -1.976891   -0.690744
     26          6           0        4.825085   -3.304808   -0.035509
     27          6           0        5.732827   -4.265279    0.102557
     28          1           0        5.875545   -1.421852   -0.165384
     29          1           0        5.397062   -2.100968   -1.735330
     30          1           0        3.813067   -3.442663    0.333212
     31          1           0        6.752080   -4.155796   -0.256127
     32          1           0        5.486143   -5.203742    0.583735
 ---------------------------------------------------------------------

 SCF Done:  E(UB3LYP) =  -880.903608970     A.U. after    1 cycles

 Alpha  occ. eigenvalues --  -19.19598 -19.12877 -19.11531 -10.28301 -10.27171
 Alpha  occ. eigenvalues --  -10.26398 -10.26175 -10.21909 -10.21355 -10.21149
 Alpha  occ. eigenvalues --  -10.20799 -10.20594 -10.20571 -10.20382 -10.20212
 Alpha  occ. eigenvalues --  -10.20139 -10.20129 -10.20028 -10.19008 -10.18965
 Alpha  occ. eigenvalues --   -1.11396  -1.06821  -1.03832  -0.90948  -0.87103
 Alpha  occ. eigenvalues --   -0.83298  -0.81129  -0.80547  -0.76736  -0.76230
 Alpha  occ. eigenvalues --   -0.73161  -0.68902  -0.66505  -0.63786  -0.62585
 Alpha  occ. eigenvalues --   -0.60219  -0.59669  -0.56019  -0.55714  -0.54702
 Alpha  occ. eigenvalues --   -0.52177  -0.51301  -0.49260  -0.48938  -0.47969
 Alpha  occ. eigenvalues --   -0.46935  -0.45866  -0.45098  -0.45035  -0.44479
 Alpha  occ. eigenvalues --   -0.44303  -0.43209  -0.43030  -0.41755  -0.40431
 Alpha  occ. eigenvalues --   -0.39962  -0.39474  -0.37953  -0.37636  -0.36913
 Alpha  occ. eigenvalues --   -0.36045  -0.34945  -0.31559  -0.29630  -0.29383
 Alpha  occ. eigenvalues --   -0.28626  -0.25856  -0.24806  -0.24515
 Alpha virt. eigenvalues --   -0.11444  -0.08394  -0.03453  -0.02795  -0.02021
 Alpha virt. eigenvalues --   -0.01701  -0.01183  -0.00367   0.00285   0.00635
 Alpha virt. eigenvalues --    0.01906   0.02171   0.02279   0.02436   0.03241

  Beta  occ. eigenvalues --  -19.19598 -19.12877 -19.11531 -10.28301 -10.27171
  Beta  occ. eigenvalues --  -10.26398 -10.26175 -10.21909 -10.21355 -10.21149
  Beta  occ. eigenvalues --  -10.20799 -10.20594 -10.20571 -10.20382 -10.20212
  Beta  occ. eigenvalues --  -10.20139 -10.20129 -10.20028 -10.19008 -10.18965
  Beta  occ. eigenvalues --   -1.11396  -1.06821  -1.03832  -0.90948  -0.87103
  Beta  occ. eigenvalues --   -0.83298  -0.81129  -0.80547  -0.76736  -0.76230
  Beta  occ. eigenvalues --   -0.73161  -0.68902  -0.66505  -0.63786  -0.62585
  Beta  occ. eigenvalues --   -0.60219  -0.59669  -0.56019  -0.55714  -0.54702
  Beta  occ. eigenvalues --   -0.52177  -0.51301  -0.49260  -0.48938  -0.47969
  Beta  occ. eigenvalues --   -0.46935  -0.45866  -0.45098  -0.45035  -0.44479
  Beta  occ. eigenvalues --   -0.44303  -0.43209  -0.43030  -0.41755  -0.40431
  Beta  occ. eigenvalues --   -0.39962  -0.39474  -0.37953  -0.37636  -0.36913
  Beta  occ. eigenvalues --   -0.36045  -0.34945  -0.31559  -0.29630  -0.29383
  Beta  occ. eigenvalues --   -0.28626  -0.25856  -0.24806  -0.24515
  Beta virt. eigenvalues --   -0.11444  -0.08394  -0.03453  -0.02795  -0.02021
  Beta virt. eigenvalues --   -0.01701  -0.01183  -0.00367   0.00285   0.00635
  Beta virt. eigenvalues --    0.01906   0.02171   0.02279   0.02436   0.03241

 Mulliken charges and spin densities:
               1          2
     1  C   -0.202454   0.000000
     2  C   -0.223471  -0.000000
     3  C   -0.276362   0.000000
     4  C    0.492798  -0.000000
     5  C   -0.115685   0.000000
     6  C   -0.202853  -0.000000
     7  C    0.067835  -0.000000
     8  C    0.709714  -0.000000
     9  C    0.072096   0.000000
    10  C   -0.061837   0.000000
    11  C   -0.618306   0.000000
    12  C   -0.168188  -0.000000
    13  C    0.156054   0.000000
    14  C   -0.327419  -0.000000
    15  O   -0.202779   0.000000
    16  O   -0.232666   0.000000
    17  H    0.144919   0.000000
    18  H    0.172564  -0.000000
    19  H    0.177081  -0.000000
    20  H    0.140322   0.000000
    21  H    0.159012   0.000000
    22  H    0.094885   0.000000
    23  H    0.224554   0.000000
    24  O   -0.049459   0.000000
    25  C   -0.443519   0.000000
    26  C    0.282103   0.000000
    27  C   -0.615000  -0.000000
    28  H    0.181487   0.000000
    29  H    0.181465   0.000000
    30  H    0.183173  -0.000000
    31  H    0.136419   0.000000
    32  H    0.163514  -0.000000
 Sum of Mulliken charges =  -0.00000  -0.00000

 Dipole moment (field-independent basis, Debye):
    X=             -3.7043    Y=             -5.6449    Z=              3.5702  Tot=              7.6376
 Quadrupole moment (field-independent basis, Debye-Ang):
   XX=           -123.7028   YY=           -125.1539   ZZ=           -130.8845
   XY=            -37.4029   XZ=             17.4107   YZ=             13.7511

  Exact polarizability: 322.406 -16.631 226.718 -59.003 -47.675 143.490
 Approx polarizability: 513.279  15.358 363.434-111.699 -89.243 240.772

 ******    1 imaginary frequencies (negative Signs) ******

                      1                      2                      3
                      A                      A                      A
 Frequencies --   -117.5597                32.5752                47.1003
 Red. masses --      1.9163                 6.8816                 6.8026
 Frc consts  --      0.0156                 0.0043                 0.0089
 IR Inten    --      1.4323                 0.0096                 0.0029

                      4                      5                      6
                      A                      A                      A
 Frequencies --     73.7050                79.1981                91.3863
 Red. masses --      4.5608                 4.7095                 3.0022
 Frc consts  --      0.0146                 0.0174                 0.0148
 IR Inten    --      0.7941                 1.5673                 1.1263

                      7                      8                      9
                      A                      A                      A
 Frequencies --    126.6159               171.8928               176.0666
 Red. masses --      2.8750                 7.4727                 5.7713
 Frc consts  --      0.0272                 0.1301                 0.1054
 IR Inten    --      1.2668                 4.8629                 1.8604

                     10                     11                     12
                      A                      A                      A
 Frequencies --    235.1484               260.4536               262.8024
 Red. masses --      4.6284                 5.0549                 4.9780
 Frc consts  --      0.1508                 0.2020                 0.2026
 IR Inten    --      0.5975                 1.4729                 3.5207

                     13                     14                     15
                      A                      A                      A
 Frequencies --    273.4612               338.0550               356.6243
 Red. masses --      5.0821                 6.0139                10.8305
 Frc consts  --      0.2239                 0.4049                 0.8116
 IR Inten    --      0.1792                 1.2076                 4.6811

                     16                     17                     18
                      A                      A                      A
 Frequencies --    382.3001               394.1462               467.4302
 Red. masses --      7.4040                 3.4678                 4.7814
 Frc consts  --      0.6376                 0.3174                 0.6155
 IR Inten    --      2.6624                 0.0145                 0.7556

                     19                     20                     21
                      A                      A                      A
 Frequencies --    478.9768               488.1933               504.0955
 Red. masses --      6.8334                 2.6388                 5.6000
 Frc consts  --      0.9237                 0.3706                 0.8384
 IR Inten    --      5.7459                15.8101                 1.5952

                     22                     23                     24
                      A                      A                      A
 Frequencies --    523.7237               547.9333               568.0980
 Red. masses --      4.0076                 7.9352                 1.4031
 Frc consts  --      0.6476                 1.4037                 0.2668
 IR Inten    --      0.6241                 7.3336                17.5207

                     25                     26                     27
                      A                      A                      A
 Frequencies --    598.2449               612.7495               622.9669
 Red. masses --      7.3143                 3.7190                 6.8718
 Frc consts  --      1.5423                 0.8227                 1.5713
 IR Inten    --      3.1729                 0.1852                 0.5787

                     28                     29                     30
                      A                      A                      A
 Frequencies --    657.3565               713.9229               727.5062
 Red. masses --      6.2821                 6.6434                 5.1482
 Frc consts  --      1.5994                 1.9950                 1.6054
 IR Inten    --      2.8879                 0.7756                 0.6792

                     31                     32                     33
                      A                      A                      A
 Frequencies --    766.3694               772.4070               780.8532
 Red. masses --      1.4162                 3.1730                 5.9782
 Frc consts  --      0.4901                 1.1154                 2.1476
 IR Inten    --     40.9021                 5.5924                16.3447

                     34                     35                     36
                      A                      A                      A
 Frequencies --    793.4852               802.8229               848.3706
 Red. masses --      4.8176                 2.9565                 1.9276
 Frc consts  --      1.7871                 1.1227                 0.8174
 IR Inten    --      1.4469                20.0892                15.7665

                     37                     38                     39
                      A                      A                      A
 Frequencies --    870.2615               910.8048               927.2955
 Red. masses --      1.3795                 4.8146                 1.4923
 Frc consts  --      0.6156                 2.3532                 0.7560
 IR Inten    --      0.0928                 3.6488                12.0620

                     40                     41                     42
                      A                      A                      A
 Frequencies --    929.7046               949.4296               950.4072
 Red. masses --      1.7687                 1.4215                 1.3256
 Frc consts  --      0.9007                 0.7550                 0.7055
 IR Inten    --      3.0293                21.2166                38.0456

                     43                     44                     45
                      A                      A                      A
 Frequencies --    979.3267               982.9889              1001.3923
 Red. masses --      4.2694                 1.4123                 1.3065
 Frc consts  --      2.4125                 0.8040                 0.7719
 IR Inten    --     22.4243                 8.3599                 0.0273

                     46                     47                     48
                      A                      A                      A
 Frequencies --   1009.3072              1011.7356              1036.8375
 Red. masses --      1.0866                 5.2531                 1.6238
 Frc consts  --      0.6522                 3.1681                 1.0285
 IR Inten    --     12.2135                18.7505                 9.8255

                     49                     50                     51
                      A                      A                      A
 Frequencies --   1042.0831              1105.2926              1150.3205
 Red. masses --      2.2958                 4.1613                 2.0479
 Frc consts  --      1.4689                 2.9953                 1.5966
 IR Inten    --      2.8134               110.9586                19.7970

                     52                     53                     54
                      A                      A                      A
 Frequencies --   1163.2205              1177.7632              1186.9779
 Red. masses --      1.6298                 1.2520                 1.6555
 Frc consts  --      1.2993                 1.0232                 1.3742
 IR Inten    --     45.6805                 5.4808                63.6048

                     55                     56                     57
                      A                      A                      A
 Frequencies --   1237.8085              1248.2832              1254.0575
 Red. masses --      2.5233                 2.0312                 1.0665
 Frc consts  --      2.2779                 1.8648                 0.9882
 IR Inten    --     42.3358               232.3213                 2.1397

                     58                     59                     60
                      A                      A                      A
 Frequencies --   1262.5985              1274.9514              1288.6084
 Red. masses --      3.3802                 2.8741                 1.9959
 Frc consts  --      3.1748                 2.7525                 1.9526
 IR Inten    --    111.5285                15.5854                17.6199

                     61                     62                     63
                      A                      A                      A
 Frequencies --   1313.4671              1351.0086              1366.4120
 Red. masses --      1.3048                 2.6062                 1.5566
 Frc consts  --      1.3263                 2.8027                 1.7123
 IR Inten    --      1.7918               105.4339               120.3991

                     64                     65                     66
                      A                      A                      A
 Frequencies --   1390.3961              1400.3862              1419.3327
 Red. masses --      3.4977                 2.4623                 3.9252
 Frc consts  --      3.9839                 2.8450                 4.6589
 IR Inten    --      9.4816                34.7801                25.4391

                     67                     68                     69
                      A                      A                      A
 Frequencies --   1458.2730              1476.6933              1492.6730
 Red. masses --      1.2421                 2.7069                 2.0683
 Frc consts  --      1.5563                 3.4778                 2.7152
 IR Inten    --      8.8023                36.8861                40.5593

                     70                     71                     72
                      A                      A                      A
 Frequencies --   1502.3377              1534.4206              1597.6436
 Red. masses --      1.2821                 3.6257                 6.5035
 Frc consts  --      1.7050                 5.0296                 9.7805
 IR Inten    --     15.1827                 0.8286                66.4485

                     73                     74                     75
                      A                      A                      A
 Frequencies --   1619.9576              1638.6983              1655.4298
 Red. masses --      6.7311                 7.1173                 5.9790
 Frc consts  --     10.4075                11.2606                 9.6539
 IR Inten    --    204.2412                94.6750                33.8695

                     76                     77                     78
                      A                      A                      A
 Frequencies --   1705.7303              1725.2057              1768.4657
 Red. masses --      4.7603                12.2577                12.6632
 Frc consts  --      8.1602                21.4951                23.3339
 IR Inten    --     13.9183               498.2944                62.3204

                     79                     80                     81
                      A                      A                      A
 Frequencies --   3010.4118              3048.6885              3130.3615
 Red. masses --      1.0552                 1.1077                 1.0612
 Frc consts  --      5.6341                 6.0661                 6.1270
 IR Inten    --      9.7775                11.8264                 6.7586

                     82                     83                     84
                      A                      A                      A
 Frequencies --   3159.8771              3163.8762              3169.8044
 Red. masses --      1.0915                 1.0861                 1.0884
 Frc consts  --      6.4214                 6.4057                 6.4435
 IR Inten    --      1.3582                 1.1385                 0.1900

                     85                     86                     87
                      A                      A                      A
 Frequencies --   3180.3174              3182.8894              3191.7818
 Red. masses --      1.0936                 1.0910                 1.0975
 Frc consts  --      6.5168                 6.5118                 6.5874
 IR Inten    --     14.4814                 2.1255                19.7398

                     88                     89                     90
                      A                      A                      A
 Frequencies --   3201.7878              3210.7851              3218.8449
 Red. masses --      1.0903                 1.0903                 1.1141
 Frc consts  --      6.5852                 6.6226                 6.8012
 IR Inten    --      1.0625                 3.9944                 7.4869

 - Thermochemistry -
 -------------------
 Temperature   298.150 Kelvin.  Pressure   1.00000 Atm.
 Atom     1 has atomic number  6 and mass  12.00000

 Molecular mass:   264.07864 amu.
 Principal axes and moments of inertia in atomic units:
                           1         2         3
     Eigenvalues --  4123.028877538.04597**********
           X            0.88570   0.37838   0.26902
           Y           -0.45881   0.80196   0.38256
           Z           -0.07099  -0.46226   0.88390
 This molecule is an asymmetric top.
 Rotational symmetry number  1.
 Warning -- assumption of classical behavior for rotation
           may cause significant error
 Rotational temperatures (Kelvin)      0.02101     0.01149     0.00743
 Rotational constants (GHZ):           0.43772     0.23942     0.15492
    1 imaginary frequencies ignored.
 Zero-point vibrational energy     638892.3 (Joules/Mol)
                                  152.69892 (Kcal/Mol)
 Warning -- explicit consideration of  25 degrees of freedom as
           vibrations may cause significant error
 Vibrational temperatures:     46.87    67.77   106.05   113.95   131.48
          (Kelvin)            182.17   247.32   253.32   338.33   374.73
                              378.11   393.45   486.39   513.10   550.04
                              567.09   672.53   689.14   702.40   725.28
                              753.52   788.35   817.37   860.74   881.61
                              896.31   945.79  1027.18  1046.72  1102.63
                             1111.32  1123.47  1141.65  1155.08  1220.62
                             1252.11  1310.45  1334.17  1337.64  1366.02
                             1367.42  1409.03  1414.30  1440.78  1452.17
                             1455.66  1491.78  1499.33  1590.27  1655.05
                             1673.61  1694.54  1707.80  1780.93  1796.00
                             1804.31  1816.60  1834.37  1854.02  1889.79
                             1943.80  1965.96  2000.47  2014.84  2042.10
                             2098.13  2124.63  2147.62  2161.53  2207.69
                             2298.65  2330.76  2357.72  2381.79  2454.17
                             2482.19  2544.43  4331.31  4386.38  4503.89
                             4546.36  4552.11  4560.64  4575.77  4579.47
                             4592.26  4606.66  4619.60  4631.20

 Zero-point correction=                           0.243341 (Hartree/Particle)
 Thermal correction to Energy=                    0.258988
 Thermal correction to Enthalpy=                  0.259933
 Thermal correction to Gibbs Free Energy=         0.199143
 Sum of electronic and zero-point Energies=           -880.660268
 Sum of electronic and thermal Energies=              -880.644621
 Sum of electronic and thermal Enthalpies=            -880.643676
 Sum of electronic and thermal Free Energies=         -880.704466

                     E (Thermal)             CV                S
                      KCal/Mol        Cal/Mol-Kelvin    Cal/Mol-Kelvin
 Total                  162.518             61.658            127.942
 Electronic               0.000              0.000              0.000
 Translational            0.889              2.981             42.613
 Rotational               0.889              2.981             34.248
 Vibrational            160.740             55.697             51.082
 Vibration     1          0.594              1.983              5.666
 Vibration     2          0.595              1.979              4.936
 Vibration     3          0.599              1.966              4.052
 Vibration     4          0.600              1.963              3.911
 Vibration     5          0.602              1.955              3.630
 Vibration     6          0.611              1.927              2.997
 Vibration     7          0.626              1.877              2.415
 Vibration     8          0.628              1.872              2.370
 Vibration     9          0.655              1.787              1.839
 Vibration    10          0.669              1.745              1.659
 Vibration    11          0.670              1.741              1.643
 Vibration    12          0.676              1.722              1.574
 Vibration    13          0.718              1.599              1.221
 Vibration    14          0.732              1.562              1.137
 Vibration    15          0.752              1.508              1.030
 Vibration    16          0.761              1.483              0.984
 Vibration    17          0.825              1.322              0.745
 Vibration    18          0.835              1.297              0.713
 Vibration    19          0.844              1.276              0.688
 Vibration    20          0.859              1.241              0.648
 Vibration    21          0.879              1.197              0.601
 Vibration    22          0.903              1.144              0.548
 Vibration    23          0.924              1.100              0.508
 Vibration    24          0.956              1.036              0.453
 Vibration    25          0.972              1.005              0.428

                           ! Non-Optimized Parameters !
 Normal termination of Gaussian 16 at Sat Jan  6 02:50:50 2024.
