 Q-Chem 5.4, Q-Chem, Inc., Pleasanton, CA (2021)
 Q-Chem 5.4.0 for Intel X86 EM64T Linux

User input:
--------------------------------------------------------------
$molecule
-1 2
C                  2.6592810000      1.4470510000     -0.2240090000
O                  2.4797040000      0.2175310000      0.4748630000
C                  1.2535550000     -0.4043340000      0.3066450000
C                  1.2550610000     -1.7136960000     -0.0952140000
C                  0.0368260000     -2.4839740000     -0.2249850000
O                  0.0387150000     -3.6911800000     -0.5968530000
C                 -1.1858080000     -1.7699390000      0.0748820000
C                 -1.1884470000     -0.4607440000      0.4768680000
O                 -2.4064780000      0.1051680000      0.8156120000
C                 -2.7377160000      1.3219250000      0.1506050000
C                  0.0344830000      0.3118440000      0.6646830000
O                  0.0391610000      1.4925640000      1.1255830000
H                  3.6715460000      1.7848430000      0.0110140000
H                  2.5795730000      1.2873200000     -1.3086310000
H                  1.9277720000      2.1902390000      0.0971910000
H                  2.1955620000     -2.2047280000     -0.3208660000
H                 -2.1249910000     -2.3042990000     -0.0197250000
H                 -2.8033470000      1.1606470000     -0.9347270000
H                 -3.7214520000      1.6148090000      0.5254610000
H                 -2.0030000000      2.0989540000      0.3675050000
$end
$rem
MAX_SCF_CYCLES=200
BASIS  =  6-311++G(d,p)
GUI  =  2
JOB_TYPE  =  SP
METHOD  =  B3LYP
SOLVENT_METHOD = PCM
$end
$pcm
theory = CPCM
$end
$solvent
dielectric 37.219
opticaldielectric 1.43
$end

--------------------------------------------------------------

             Standard Nuclear Orientation (Angstroms)
    I     Atom           X                Y                Z
 ----------------------------------------------------------------
    1      C       2.6592810000     1.4470510000    -0.2240090000
    2      O       2.4797040000     0.2175310000     0.4748630000
    3      C       1.2535550000    -0.4043340000     0.3066450000
    4      C       1.2550610000    -1.7136960000    -0.0952140000
    5      C       0.0368260000    -2.4839740000    -0.2249850000
    6      O       0.0387150000    -3.6911800000    -0.5968530000
    7      C      -1.1858080000    -1.7699390000     0.0748820000
    8      C      -1.1884470000    -0.4607440000     0.4768680000
    9      O      -2.4064780000     0.1051680000     0.8156120000
   10      C      -2.7377160000     1.3219250000     0.1506050000
   11      C       0.0344830000     0.3118440000     0.6646830000
   12      O       0.0391610000     1.4925640000     1.1255830000
   13      H       3.6715460000     1.7848430000     0.0110140000
   14      H       2.5795730000     1.2873200000    -1.3086310000
   15      H       1.9277720000     2.1902390000     0.0971910000
   16      H       2.1955620000    -2.2047280000    -0.3208660000
   17      H      -2.1249910000    -2.3042990000    -0.0197250000
   18      H      -2.8033470000     1.1606470000    -0.9347270000
   19      H      -3.7214520000     1.6148090000     0.5254610000
   20      H      -2.0030000000     2.0989540000     0.3675050000
 ----------------------------------------------------------------

    9    -610.8359350885      6.61e-06  Convergence criterion met
 Total energy in the final basis set =     -610.8359350885

                    Orbital Energies (a.u.)
 --------------------------------------------------------------

 Alpha MOs
 -- Occupied --
-19.1407 -19.1407 -19.0845 -19.0800 -10.2281 -10.2268 -10.2246 -10.2245
-10.2041 -10.2041 -10.1592 -10.1592  -1.0571  -1.0511  -1.0014  -0.9989
 -0.8245  -0.7552  -0.7049  -0.6740  -0.6739  -0.5918  -0.5710  -0.5069
 -0.5042  -0.4757  -0.4683  -0.4629  -0.4527  -0.4432  -0.4183  -0.4151
 -0.4024  -0.3848  -0.3823  -0.3757  -0.3523  -0.3501  -0.3065  -0.2959
 -0.2694  -0.2471  -0.2454  -0.2308  -0.1665

 Beta MOs
 -- Occupied --
-19.1406 -19.1405 -19.0774 -19.0738 -10.2259 -10.2255 -10.2236 -10.2236
-10.2041 -10.2041 -10.1582 -10.1582  -1.0554  -1.0505  -0.9904  -0.9869
 -0.8188  -0.7534  -0.7008  -0.6727  -0.6656  -0.5884  -0.5677  -0.5050
 -0.5021  -0.4749  -0.4640  -0.4582  -0.4515  -0.4419  -0.4176  -0.4081
 -0.3886  -0.3807  -0.3762  -0.3504  -0.3486  -0.3484  -0.3041  -0.2865
 -0.2450  -0.2410  -0.2391  -0.2254

          Ground-State Mulliken Net Atomic Charges

     Atom                 Charge (a.u.)    Spin (a.u.)
  --------------------------------------------------------
      1 C                    -0.320965       0.005131
      2 O                    -0.223259       0.000555
      3 C                    -0.633280       0.146466
      4 C                     0.729763       0.034176
      5 C                    -0.687182       0.151814
      6 O                    -0.529178       0.218805
      7 C                     0.734633       0.033871
      8 C                    -0.633765       0.145775
      9 O                    -0.223930       0.000579
     10 C                    -0.321074       0.005102
     11 C                     0.214873       0.004979
     12 O                    -0.511605       0.267887
     13 H                     0.158402       0.000353
     14 H                     0.147188       0.000448
     15 H                     0.176794      -0.001000
     16 H                     0.220366      -0.007387
     17 H                     0.220323      -0.007370
     18 H                     0.146782       0.000458
     19 H                     0.158383       0.000350
     20 H                     0.176730      -0.000995
  --------------------------------------------------------
  Sum of atomic charges =    -1.000000

                    Cartesian Multipole Moments
 -----------------------------------------------------------------
    Charge (ESU x 10^10)
                -4.8032
    Dipole Moment (Debye)
         X      -0.3952      Y       8.2331      Z      -3.2888
       Tot       8.8745
    Quadrupole Moments (Debye-Ang)
        XX     -75.3624     XY       0.0375     YY    -112.1733
        XZ      -0.0681     YZ     -11.1497     ZZ     -80.4169

 Total job time:  21.29s(wall), 164.26s(cpu)
        *  Thank you very much for using Q-Chem.  Have a nice day.  *
