 Gaussian 16, Revision A.03,
 Gaussian 16:  ES64L-G16RevA.03 25-Dec-2016

 ----------------------------------------------------------------------
 #P UB3LYP/6-311++G(d,p) nosym opt freq SCRF=(PCM,Solvent=n,n-DiMethylF
 ormamide)
 ----------------------------------------------------------------------

 -------
 Radical
 -------
 Symbolic Z-matrix:
 Charge = -1 Multiplicity = 2

 SCF Done:  E(UB3LYP) =  -939.858529980     A.U. after   18 cycles
 SCF Done:  E(UB3LYP) =  -939.859264864     A.U. after   15 cycles
 SCF Done:  E(UB3LYP) =  -939.859711144     A.U. after   16 cycles
 SCF Done:  E(UB3LYP) =  -939.859866805     A.U. after   15 cycles
 SCF Done:  E(UB3LYP) =  -939.859936400     A.U. after   14 cycles
 SCF Done:  E(UB3LYP) =  -939.860038594     A.U. after   14 cycles
 SCF Done:  E(UB3LYP) =  -939.860102030     A.U. after   14 cycles
 SCF Done:  E(UB3LYP) =  -939.860118454     A.U. after   13 cycles
 SCF Done:  E(UB3LYP) =  -939.860118131     A.U. after   12 cycles
 SCF Done:  E(UB3LYP) =  -939.860170108     A.U. after   14 cycles
 SCF Done:  E(UB3LYP) =  -939.861195626     A.U. after   13 cycles
 SCF Done:  E(UB3LYP) =  -939.861265085     A.U. after   13 cycles
 SCF Done:  E(UB3LYP) =  -939.861331160     A.U. after   13 cycles
 SCF Done:  E(UB3LYP) =  -939.861374702     A.U. after   13 cycles
 SCF Done:  E(UB3LYP) =  -939.861378481     A.U. after   11 cycles
 SCF Done:  E(UB3LYP) =  -939.861379996     A.U. after   10 cycles
 SCF Done:  E(UB3LYP) =  -939.861380421     A.U. after   10 cycles
 SCF Done:  E(UB3LYP) =  -939.861380512     A.U. after    9 cycles
 SCF Done:  E(UB3LYP) =  -939.861380535     A.U. after    8 cycles
 Optimization completed.
    -- Stationary point found.
 Normal termination of Gaussian 16 at Sun Feb 11 05:32:44 2024.

 ----------------------------------------------------------------------
 #P Geom=AllCheck Guess=TCheck SCRF=Check GenChk UB3LYP/6-311++G(d,p) F
 req
 ----------------------------------------------------------------------

 Structure from the checkpoint file:  "213-rad.chk"
 -------
 Radical
 -------
 Charge = -1 Multiplicity = 2

                          Input orientation:
 ---------------------------------------------------------------------
 Center     Atomic      Atomic             Coordinates (Angstroms)
 Number     Number       Type             X           Y           Z
 ---------------------------------------------------------------------
      1          8           0        3.445230    2.722777    0.792645
      2          6           0        3.075723    1.532032    0.577280
      3          6           0        4.045502    0.449248    0.409142
      4          6           0        5.427538    0.730293    0.488678
      5          6           0        6.375572   -0.262703    0.334409
      6          6           0        5.963888   -1.591632    0.090555
      7          6           0        4.619484   -1.893173    0.007832
      8          6           0        3.627304   -0.894565    0.162613
      9          6           0        2.218862   -1.257335    0.070057
     10          8           0        1.851552   -2.452231   -0.148800
     11          6           0        1.248257   -0.176100    0.242751
     12          6           0       -0.126745   -0.470036    0.156190
     13          6           0       -1.114278    0.513713    0.305374
     14          6           0       -0.672641    1.851585    0.553025
     15          6           0        0.668575    2.147541    0.632254
     16          6           0        1.671426    1.163798    0.482198
     17          7           0       -2.459628    0.214463    0.237337
     18          6           0       -2.916917   -1.178086    0.240053
     19          6           0       -4.363374   -1.268325    0.730422
     20          6           0       -5.335242   -0.476674   -0.168127
     21          6           0       -4.626414    0.723171   -0.828586
     22          6           0       -3.473016    1.256802    0.025781
     23          1           0        5.725271    1.755170    0.675660
     24          1           0        7.431868   -0.024790    0.399550
     25          1           0        6.705571   -2.374067   -0.031272
     26          1           0        4.291204   -2.908601   -0.178959
     27          1           0       -0.391560   -1.496182   -0.053300
     28          1           0       -1.394539    2.642334    0.708406
     29          1           0        0.981844    3.166155    0.829895
     30          1           0       -2.824083   -1.631943   -0.759066
     31          1           0       -2.273334   -1.753061    0.909890
     32          1           0       -4.400343   -0.880833    1.753721
     33          1           0       -4.653762   -2.320794    0.783999
     34          1           0       -5.746481   -1.126910   -0.945794
     35          1           0       -6.183357   -0.132699    0.431088
     36          1           0       -4.219829    0.428592   -1.801434
     37          1           0       -5.332674    1.536130   -1.017377
     38          1           0       -3.856233    1.638771    0.983552
     39          1           0       -3.010215    2.098164   -0.491753
 ---------------------------------------------------------------------

 SCF Done:  E(UB3LYP) =  -939.861380535     A.U. after    2 cycles

 Alpha  occ. eigenvalues --  -19.06926 -19.06852 -14.32695 -10.21992 -10.21511
 Alpha  occ. eigenvalues --  -10.21302 -10.20005 -10.19865 -10.16948 -10.16897
 Alpha  occ. eigenvalues --  -10.16857 -10.16846 -10.16800 -10.16790 -10.16738
 Alpha  occ. eigenvalues --  -10.16714 -10.16695 -10.16628 -10.16567 -10.16474
 Alpha  occ. eigenvalues --  -10.15989 -10.15574  -0.99262  -0.98899  -0.94924
 Alpha  occ. eigenvalues --   -0.85489  -0.84398  -0.80304  -0.77332  -0.76251
 Alpha  occ. eigenvalues --   -0.74673  -0.74125  -0.72981  -0.67099  -0.65664
 Alpha  occ. eigenvalues --   -0.64267  -0.62328  -0.60254  -0.58173  -0.55276
 Alpha  occ. eigenvalues --   -0.54861  -0.53136  -0.52432  -0.50006  -0.49277
 Alpha  occ. eigenvalues --   -0.46843  -0.46213  -0.45417  -0.44089  -0.43584
 Alpha  occ. eigenvalues --   -0.42351  -0.42060  -0.41814  -0.41519  -0.41388
 Alpha  occ. eigenvalues --   -0.40634  -0.40482  -0.39412  -0.38429  -0.37987
 Alpha  occ. eigenvalues --   -0.37269  -0.36846  -0.36522  -0.34892  -0.34615
 Alpha  occ. eigenvalues --   -0.34027  -0.33069  -0.32598  -0.32373  -0.31595
 Alpha  occ. eigenvalues --   -0.27932  -0.25930  -0.25385  -0.24867  -0.24042
 Alpha  occ. eigenvalues --   -0.23221  -0.19670  -0.13527
 Alpha virt. eigenvalues --   -0.04833  -0.01251  -0.00816   0.00040   0.00232
 Alpha virt. eigenvalues --    0.00886   0.01191   0.01317   0.01820   0.02623
 Alpha virt. eigenvalues --    0.02974   0.03783   0.04061   0.04133   0.04580

  Beta  occ. eigenvalues --  -19.06458 -19.06266 -14.32661 -10.21836 -10.21278
  Beta  occ. eigenvalues --  -10.21277 -10.20007 -10.19865 -10.16917 -10.16833
  Beta  occ. eigenvalues --  -10.16800 -10.16786 -10.16779 -10.16737 -10.16720
  Beta  occ. eigenvalues --  -10.16713 -10.16661 -10.16603 -10.16556 -10.16474
  Beta  occ. eigenvalues --  -10.15968 -10.15504  -0.98414  -0.97860  -0.94860
  Beta  occ. eigenvalues --   -0.85225  -0.84301  -0.80218  -0.77031  -0.76208
  Beta  occ. eigenvalues --   -0.74428  -0.73956  -0.72853  -0.66767  -0.65367
  Beta  occ. eigenvalues --   -0.64008  -0.62211  -0.60054  -0.58107  -0.55074
  Beta  occ. eigenvalues --   -0.54746  -0.53066  -0.52276  -0.49972  -0.49097
  Beta  occ. eigenvalues --   -0.46686  -0.46029  -0.45289  -0.44053  -0.43519
  Beta  occ. eigenvalues --   -0.42283  -0.41984  -0.41726  -0.41317  -0.40472
  Beta  occ. eigenvalues --   -0.40341  -0.40078  -0.39180  -0.38338  -0.37858
  Beta  occ. eigenvalues --   -0.36840  -0.36272  -0.35007  -0.34788  -0.34352
  Beta  occ. eigenvalues --   -0.33675  -0.32781  -0.32481  -0.32057  -0.31538
  Beta  occ. eigenvalues --   -0.27279  -0.24943  -0.24120  -0.24076  -0.23562
  Beta  occ. eigenvalues --   -0.22725  -0.19067
  Beta virt. eigenvalues --   -0.07712  -0.03926  -0.00820  -0.00333   0.00061
  Beta virt. eigenvalues --    0.00505   0.00912   0.01198   0.01330   0.01825
  Beta virt. eigenvalues --    0.02629   0.02984   0.03789   0.04110   0.04192

 Mulliken charges and spin densities:
               1          2
     1  O   -0.479442   0.173204
     2  C   -0.682259   0.082658
     3  C    0.070780   0.059764
     4  C    0.060433   0.007394
     5  C   -0.470254   0.067547
     6  C   -0.474479   0.020758
     7  C   -0.005914   0.048652
     8  C    0.424235   0.027185
     9  C   -0.662052   0.139348
    10  O   -0.485094   0.220423
    11  C    0.416837   0.038858
    12  C   -0.017121   0.074541
    13  C   -0.688588   0.017535
    14  C    0.045730   0.012545
    15  C    0.133148   0.021427
    16  C    0.255073  -0.011948
    17  N    0.299144   0.014398
    18  C   -0.188021  -0.002567
    19  C   -0.357942   0.000584
    20  C   -0.553561  -0.000199
    21  C   -0.264789   0.000752
    22  C   -0.259633  -0.001100
    23  H    0.162200   0.000000
    24  H    0.176689  -0.004959
    25  H    0.178790  -0.002274
    26  H    0.160042  -0.002920
    27  H    0.156623  -0.004598
    28  H    0.208441  -0.001203
    29  H    0.175184  -0.001349
    30  H    0.168275   0.001728
    31  H    0.171369   0.002583
    32  H    0.171853  -0.000129
    33  H    0.177465   0.000021
    34  H    0.157227  -0.000014
    35  H    0.156439   0.000005
    36  H    0.168619   0.000007
    37  H    0.178794   0.000104
    38  H    0.164520   0.001531
    39  H    0.151240  -0.000291
 Sum of Mulliken charges =  -1.00000   1.00000

 Dipole moment (field-independent basis, Debye):
    X=            -17.3365    Y=             -0.6245    Z=             -1.7965  Tot=             17.4405
 Quadrupole moment (field-independent basis, Debye-Ang):
   XX=           -159.6660   YY=           -162.8296   ZZ=           -139.1504
   XY=            -12.5335   XZ=             -6.1564   YZ=             -5.6371

  Exact polarizability: 635.353 -13.927 416.952   9.441  35.256 207.168
 Approx polarizability: 625.309   0.972 482.684   9.136  44.553 235.596

                      1                      2                      3
                      A                      A                      A
 Frequencies --     21.5358                47.0956                55.0943
 Red. masses --      4.1086                 4.2517                 3.5823
 Frc consts  --      0.0011                 0.0056                 0.0064
 IR Inten    --      1.8497                 8.5891                 1.2400

                      4                      5                      6
                      A                      A                      A
 Frequencies --     79.7287                98.9667               121.3963
 Red. masses --      3.5687                 3.1350                 3.7450
 Frc consts  --      0.0134                 0.0181                 0.0325
 IR Inten    --      2.6758                 4.9840                 3.0932

                      7                      8                      9
                      A                      A                      A
 Frequencies --    136.1834               165.6805               201.6432
 Red. masses --      5.0123                 6.4135                 5.2827
 Frc consts  --      0.0548                 0.1037                 0.1266
 IR Inten    --      4.0254                 3.7072                 3.4907

                     10                     11                     12
                      A                      A                      A
 Frequencies --    219.9220               232.2235               261.8908
 Red. masses --      5.1844                 4.9261                 2.2404
 Frc consts  --      0.1477                 0.1565                 0.0905
 IR Inten    --      6.7078                 3.7074                 6.4142

                     13                     14                     15
                      A                      A                      A
 Frequencies --    273.5696               287.9599               311.1925
 Red. masses --      1.8360                 6.8911                 4.5562
 Frc consts  --      0.0810                 0.3367                 0.2600
 IR Inten    --      1.5816                 0.8335                 2.7289

                     16                     17                     18
                      A                      A                      A
 Frequencies --    378.2971               408.7416               418.3638
 Red. masses --     10.5943                 6.8229                 3.9058
 Frc consts  --      0.8933                 0.6716                 0.4028
 IR Inten    --     25.6421                12.9768                 3.5551

                     19                     20                     21
                      A                      A                      A
 Frequencies --    428.0715               447.0365               460.3191
 Red. masses --      5.9992                 4.9043                 3.1856
 Frc consts  --      0.6477                 0.5775                 0.3977
 IR Inten    --      0.1820                 1.8097                 2.0782

                     22                     23                     24
                      A                      A                      A
 Frequencies --    465.2328               477.8454               492.1571
 Red. masses --      2.8155                 4.8233                 9.8704
 Frc consts  --      0.3590                 0.6489                 1.4086
 IR Inten    --      0.6505                 1.5614                 2.4909

                     25                     26                     27
                      A                      A                      A
 Frequencies --    543.7986               557.3441               609.2349
 Red. masses --      2.8109                 4.3051                 2.6383
 Frc consts  --      0.4897                 0.7879                 0.5769
 IR Inten    --      6.8039                12.8897                14.5708

                     28                     29                     30
                      A                      A                      A
 Frequencies --    641.0948               658.1227               667.2998
 Red. masses --      6.8105                 3.5854                 4.7671
 Frc consts  --      1.6492                 0.9150                 1.2507
 IR Inten    --     17.6006                17.6835                17.9337

                     31                     32                     33
                      A                      A                      A
 Frequencies --    697.5238               707.8577               716.8911
 Red. masses --      6.2821                 2.7775                 5.4132
 Frc consts  --      1.8008                 0.8200                 1.6391
 IR Inten    --      6.5866               107.7580                 1.9860

                     34                     35                     36
                      A                      A                      A
 Frequencies --    729.5000               776.4783               782.8548
 Red. masses --      4.0345                 1.3209                 1.8711
 Frc consts  --      1.2650                 0.4692                 0.6756
 IR Inten    --      2.7684                 3.3932                25.9274

                     37                     38                     39
                      A                      A                      A
 Frequencies --    790.6643               815.9922               825.3268
 Red. masses --      2.8376                 4.6335                 1.9864
 Frc consts  --      1.0452                 1.8178                 0.7972
 IR Inten    --      0.9315                 8.5851                44.3224

                     40                     41                     42
                      A                      A                      A
 Frequencies --    846.7164               871.5656               880.2365
 Red. masses --      3.4043                 1.5214                 1.4907
 Frc consts  --      1.4380                 0.6809                 0.6805
 IR Inten    --      4.2977                31.2685                 1.0929

                     43                     44                     45
                      A                      A                      A
 Frequencies --    888.4288               918.8500               920.0180
 Red. masses --      1.4853                 3.9352                 2.4814
 Frc consts  --      0.6907                 1.9575                 1.2375
 IR Inten    --      6.2059                94.9004                25.9023

                     46                     47                     48
                      A                      A                      A
 Frequencies --    937.4399               983.4820               986.0981
 Red. masses --      6.2672                 1.3145                 1.3541
 Frc consts  --      3.2450                 0.7491                 0.7758
 IR Inten    --      3.1328                 0.5687                 4.5222

                     49                     50                     51
                      A                      A                      A
 Frequencies --    994.0090               996.5448               999.0908
 Red. masses --      1.8376                 1.2805                 2.1163
 Frc consts  --      1.0698                 0.7492                 1.2447
 IR Inten    --      8.5740                 0.0343                 4.3133

                     52                     53                     54
                      A                      A                      A
 Frequencies --   1030.0797              1037.0247              1047.0017
 Red. masses --      2.2227                 1.9483                 1.8706
 Frc consts  --      1.3895                 1.2345                 1.2082
 IR Inten    --     62.7311                29.1465                 6.0186

                     55                     56                     57
                      A                      A                      A
 Frequencies --   1097.8440              1109.0861              1126.1737
 Red. masses --      1.7184                 2.3757                 2.4541
 Frc consts  --      1.2203                 1.7218                 1.8338
 IR Inten    --      0.9714                35.2638                31.0071

                     58                     59                     60
                      A                      A                      A
 Frequencies --   1130.1413              1148.8946              1156.2336
 Red. masses --      2.0889                 1.4367                 2.0458
 Frc consts  --      1.5719                 1.1173                 1.6114
 IR Inten    --     14.6430                38.2648                41.6938

                     61                     62                     63
                      A                      A                      A
 Frequencies --   1169.8810              1198.0503              1202.3204
 Red. masses --      1.8854                 1.7761                 1.4326
 Frc consts  --      1.5203                 1.5020                 1.2201
 IR Inten    --      4.9966                44.0485                61.2013

                     64                     65                     66
                      A                      A                      A
 Frequencies --   1223.7991              1234.5794              1256.2357
 Red. masses --      2.0492                 2.0252                 1.6447
 Frc consts  --      1.8082                 1.8187                 1.5292
 IR Inten    --     53.5287                58.1623               288.7783

                     67                     68                     69
                      A                      A                      A
 Frequencies --   1265.2353              1268.5146              1280.0572
 Red. masses --      1.4459                 1.9293                 1.4691
 Frc consts  --      1.3637                 1.8291                 1.4183
 IR Inten    --    106.6691               133.8353               104.8486

                     70                     71                     72
                      A                      A                      A
 Frequencies --   1295.2955              1345.4143              1354.4364
 Red. masses --      1.1852                 2.5312                 3.6840
 Frc consts  --      1.1716                 2.6995                 3.9819
 IR Inten    --     98.3441               120.2027                15.2480

                     73                     74                     75
                      A                      A                      A
 Frequencies --   1356.1985              1360.0911              1368.4604
 Red. masses --      2.4471                 2.0184                 1.3246
 Frc consts  --      2.6518                 2.1999                 1.4615
 IR Inten    --      9.8896                25.4008                10.0735

                     76                     77                     78
                      A                      A                      A
 Frequencies --   1386.1187              1390.1123              1395.9479
 Red. masses --      1.5584                 1.6532                 1.8296
 Frc consts  --      1.7641                 1.8822                 2.1006
 IR Inten    --     65.9123                85.0624                22.7419

                     79                     80                     81
                      A                      A                      A
 Frequencies --   1408.7785              1419.0548              1462.9531
 Red. masses --      1.5722                 3.4686                 3.0205
 Frc consts  --      1.8384                 4.1153                 3.8088
 IR Inten    --    364.8104              1347.7060               296.2465

                     82                     83                     84
                      A                      A                      A
 Frequencies --   1470.9401              1479.0823              1485.9008
 Red. masses --      3.5889                 1.1105                 1.1738
 Frc consts  --      4.5751                 1.4314                 1.5269
 IR Inten    --     72.6096                22.8413                59.6905

                     85                     86                     87
                      A                      A                      A
 Frequencies --   1488.1100              1497.0763              1498.7897
 Red. masses --      2.8298                 1.4176                 2.3256
 Frc consts  --      3.6921                 1.8719                 3.0780
 IR Inten    --    370.7069               320.6567               692.1022

                     88                     89                     90
                      A                      A                      A
 Frequencies --   1511.8968              1515.0537              1525.8442
 Red. masses --      1.1076                 1.3555                 2.8626
 Frc consts  --      1.4917                 1.8332                 3.9267
 IR Inten    --      4.6845                33.9976               101.8521

                     91                     92                     93
                      A                      A                      A
 Frequencies --   1549.5743              1597.8251              1614.4740
 Red. masses --      4.9371                 8.2007                 5.3511
 Frc consts  --      6.9847                12.3356                 8.2177
 IR Inten    --     97.5302                37.1333               458.4673

                     94                     95                     96
                      A                      A                      A
 Frequencies --   1630.4307              2949.0879              2963.1404
 Red. masses --      6.1492                 1.0733                 1.0738
 Frc consts  --      9.6310                 5.4998                 5.5552
 IR Inten    --    343.1963               151.4383               147.9448

                     97                     98                     99
                      A                      A                      A
 Frequencies --   3023.8903              3026.1733              3034.9093
 Red. masses --      1.0600                 1.0663                 1.0653
 Frc consts  --      5.7109                 5.7535                 5.7810
 IR Inten    --     25.1907                67.5287                62.5922

                    100                    101                    102
                      A                      A                      A
 Frequencies --   3053.8867              3059.5477              3070.4678
 Red. masses --      1.0988                 1.0884                 1.0997
 Frc consts  --      6.0376                 6.0029                 6.1083
 IR Inten    --     25.3914                60.7886                71.3304

                    103                    104                    105
                      A                      A                      A
 Frequencies --   3078.2196              3079.9443              3155.9662
 Red. masses --      1.0996                 1.0935                 1.0857
 Frc consts  --      6.1390                 6.1115                 6.3714
 IR Inten    --    125.6163                47.6584                14.4146

                    106                    107                    108
                      A                      A                      A
 Frequencies --   3170.2067              3176.7409              3185.9617
 Red. masses --      1.0899                 1.0873                 1.0918
 Frc consts  --      6.4535                 6.4650                 6.5291
 IR Inten    --     21.6024                 3.3584                19.1096

                    109                    110                    111
                      A                      A                      A
 Frequencies --   3189.5316              3199.5197              3215.8209
 Red. masses --      1.0946                 1.0923                 1.0879
 Frc consts  --      6.5611                 6.5881                 6.6287
 IR Inten    --     55.8207                32.4712                18.2930

 - Thermochemistry -
 -------------------
 Temperature   298.150 Kelvin.  Pressure   1.00000 Atm.
 Atom     1 has atomic number  8 and mass  15.99491

 Molecular mass:   291.12593 amu.
 Principal axes and moments of inertia in atomic units:
                           1         2         3
     Eigenvalues --  2281.77154********************
           X            0.99921   0.01989  -0.03430
           Y           -0.02390   0.99238  -0.12090
           Z            0.03163   0.12163   0.99207
 This molecule is an asymmetric top.
 Rotational symmetry number  1.
 Warning -- assumption of classical behavior for rotation
           may cause significant error
 Rotational temperatures (Kelvin)      0.03796     0.00647     0.00562
 Rotational constants (GHZ):           0.79094     0.13478     0.11706
 Zero-point vibrational energy     826946.4 (Joules/Mol)
                                  197.64493 (Kcal/Mol)
 Warning -- explicit consideration of  27 degrees of freedom as
           vibrations may cause significant error
 Vibrational temperatures:     30.99    67.76    79.27   114.71   142.39
          (Kelvin)            174.66   195.94   238.38   290.12   316.42
                              334.12   376.80   393.61   414.31   447.74
                              544.29   588.09   601.93   615.90   643.19
                              662.30   669.37   687.51   708.10   782.40
                              801.89   876.55   922.39   946.89   960.10
                             1003.58  1018.45  1031.45  1049.59  1117.18
                             1126.35  1137.59  1174.03  1187.46  1218.24
                             1253.99  1266.46  1278.25  1322.02  1323.70
                             1348.77  1415.01  1418.78  1430.16  1433.81
                             1437.47  1482.05  1492.05  1506.40  1579.55
                             1595.73  1620.31  1626.02  1653.00  1663.56
                             1683.20  1723.73  1729.87  1760.77  1776.28
                             1807.44  1820.39  1825.11  1841.72  1863.64
                             1935.75  1948.73  1951.27  1956.87  1968.91
                             1994.32  2000.06  2008.46  2026.92  2041.70
                             2104.86  2116.35  2128.07  2137.88  2141.06
                             2153.96  2156.42  2175.28  2179.82  2195.35
                             2229.49  2298.91  2322.87  2345.83  4243.08
                             4263.30  4350.70  4353.99  4366.56  4393.86
                             4402.01  4417.72  4428.87  4431.35  4540.73
                             4561.22  4570.62  4583.89  4589.02  4603.40
                             4626.85

 Zero-point correction=                           0.314967 (Hartree/Particle)
 Thermal correction to Energy=                    0.332521
 Thermal correction to Enthalpy=                  0.333465
 Thermal correction to Gibbs Free Energy=         0.268048
 Sum of electronic and zero-point Energies=           -939.546413
 Sum of electronic and thermal Energies=              -939.528860
 Sum of electronic and thermal Enthalpies=            -939.527916
 Sum of electronic and thermal Free Energies=         -939.593333

                     E (Thermal)             CV                S
                      KCal/Mol        Cal/Mol-Kelvin    Cal/Mol-Kelvin
 Total                  208.660             70.726            137.681
 Electronic               0.000              0.000              1.377
 Translational            0.889              2.981             42.903
 Rotational               0.889              2.981             34.509
 Vibrational            206.882             64.764             58.891
 Vibration     1          0.593              1.985              6.487
 Vibration     2          0.595              1.979              4.936
 Vibration     3          0.596              1.976              4.626
 Vibration     4          0.600              1.963              3.898
 Vibration     5          0.604              1.950              3.475
 Vibration     6          0.609              1.931              3.078
 Vibration     7          0.614              1.917              2.857
 Vibration     8          0.624              1.885              2.484
 Vibration     9          0.639              1.838              2.118
 Vibration    10          0.647              1.811              1.960
 Vibration    11          0.653              1.792              1.862
 Vibration    12          0.669              1.743              1.649
 Vibration    13          0.676              1.722              1.574
 Vibration    14          0.685              1.696              1.486
 Vibration    15          0.700              1.652              1.356
 Vibration    16          0.749              1.516              1.046
 Vibration    17          0.773              1.451              0.931
 Vibration    18          0.781              1.430              0.898
 Vibration    19          0.790              1.409              0.865
 Vibration    20          0.806              1.367              0.805
 Vibration    21          0.818              1.338              0.765
 Vibration    22          0.823              1.327              0.751
 Vibration    23          0.834              1.299              0.716
 Vibration    24          0.848              1.267              0.678
 Vibration    25          0.899              1.153              0.557
 Vibration    26          0.913              1.124              0.529
 Vibration    27          0.968              1.012              0.434

                           ! Non-Optimized Parameters !
 Normal termination of Gaussian 16 at Sun Feb 11 08:32:48 2024.
