 Gaussian 16, Revision A.03,
 Gaussian 16:  ES64L-G16RevA.03 25-Dec-2016

 --------------------------------------
 #P UB3LYP/6-311++G(d,p) nosym opt freq
 --------------------------------------

 -------
 Radical
 -------
 Symbolic Z-matrix:
 Charge = -1 Multiplicity = 2

 SCF Done:  E(UB3LYP) =  -538.932124858     A.U. after   18 cycles
 SCF Done:  E(UB3LYP) =  -538.946590276     A.U. after   15 cycles
 SCF Done:  E(UB3LYP) =  -538.947453916     A.U. after   14 cycles
 SCF Done:  E(UB3LYP) =  -538.947531943     A.U. after   13 cycles
 SCF Done:  E(UB3LYP) =  -538.947538446     A.U. after   12 cycles
 Optimization completed.
    -- Stationary point found.
 Normal termination of Gaussian 16 at Sun Dec 17 21:03:56 2023.

 ----------------------------------------------------------------------
 #P Geom=AllCheck Guess=TCheck SCRF=Check GenChk UB3LYP/6-311++G(d,p) F
 req
 ----------------------------------------------------------------------

 Structure from the checkpoint file:  "053-rad.chk"
 -------
 Radical
 -------
 Charge = -1 Multiplicity = 2

                          Input orientation:
 ---------------------------------------------------------------------
 Center     Atomic      Atomic             Coordinates (Angstroms)
 Number     Number       Type             X           Y           Z
 ---------------------------------------------------------------------
      1          6           0        0.262432    1.458788   -0.855115
      2          6           0       -0.965756    0.671861   -0.855216
      3          6           0       -0.919283   -0.705390   -0.855238
      4          6           0        0.345968   -1.424587   -0.855154
      5          6           0        1.574156   -0.637660   -0.855149
      6          6           0        1.527683    0.739591   -0.855124
      7          8           0        0.243861    2.727912   -0.855166
      8          8           0        0.364538   -2.693710   -0.855292
      9          6           0        2.764745    1.603652   -0.855109
     10          6           0        2.872554   -1.413513   -0.855168
     11          6           0       -2.264154    1.447714   -0.855295
     12          6           0       -2.156345   -1.569451   -0.855342
     13          1           0        3.683030    1.014413   -0.855041
     14          1           0        2.772005    2.267300    0.016878
     15          1           0        2.772090    2.267217   -1.727160
     16          1           0        2.643233   -2.479757   -0.855186
     17          1           0        3.485781   -1.190055    0.026603
     18          1           0        3.485778   -1.190021   -1.736932
     19          1           0       -2.034831    2.513958   -0.855258
     20          1           0       -2.877442    1.224223    0.026424
     21          1           0       -2.877315    1.224257   -1.737111
     22          1           0       -3.074630   -0.980211   -0.855365
     23          1           0       -2.163694   -2.233094    0.016648
     24          1           0       -2.163604   -2.233018   -1.727391
 ---------------------------------------------------------------------

 SCF Done:  E(UB3LYP) =  -538.947538446     A.U. after    1 cycles

 Alpha  occ. eigenvalues --  -18.92505 -18.92504 -10.06853 -10.06851 -10.02955
 Alpha  occ. eigenvalues --  -10.02954 -10.02813 -10.02813 -10.02686 -10.02684
 Alpha  occ. eigenvalues --  -10.02572 -10.02571  -0.84774  -0.84481  -0.68923
 Alpha  occ. eigenvalues --   -0.65666  -0.59263  -0.59068  -0.56423  -0.50217
 Alpha  occ. eigenvalues --   -0.49511  -0.40924  -0.40195  -0.36302  -0.30592
 Alpha  occ. eigenvalues --   -0.30461  -0.28770  -0.28492  -0.27657  -0.27491
 Alpha  occ. eigenvalues --   -0.26834  -0.25619  -0.25383  -0.24961  -0.24294
 Alpha  occ. eigenvalues --   -0.23548  -0.22683  -0.21257  -0.20518  -0.19645
 Alpha  occ. eigenvalues --   -0.12438  -0.09568  -0.09385  -0.08476  -0.00996
 Alpha virt. eigenvalues --    0.09046   0.09484   0.11013   0.11650   0.12080
 Alpha virt. eigenvalues --    0.12775   0.12817   0.13315   0.14704   0.14817
 Alpha virt. eigenvalues --    0.14945   0.15359   0.16299   0.16981   0.17930

  Beta  occ. eigenvalues --  -18.91816 -18.91815 -10.06710 -10.06709 -10.02964
  Beta  occ. eigenvalues --  -10.02964 -10.02823 -10.02823 -10.02577 -10.02576
  Beta  occ. eigenvalues --  -10.02462 -10.02461  -0.83590  -0.83259  -0.68393
  Beta  occ. eigenvalues --   -0.65486  -0.58956  -0.58925  -0.56230  -0.50097
  Beta  occ. eigenvalues --   -0.48686  -0.40583  -0.39798  -0.36149  -0.30307
  Beta  occ. eigenvalues --   -0.29905  -0.28643  -0.28246  -0.27274  -0.27149
  Beta  occ. eigenvalues --   -0.26739  -0.25568  -0.25321  -0.24846  -0.23826
  Beta  occ. eigenvalues --   -0.23425  -0.21014  -0.20180  -0.19447  -0.18528
  Beta  occ. eigenvalues --   -0.09273  -0.08926  -0.08637  -0.07848
  Beta virt. eigenvalues --    0.06091   0.09049   0.09481   0.11016   0.11648
  Beta virt. eigenvalues --    0.12114   0.12777   0.12823   0.14168   0.14696
  Beta virt. eigenvalues --    0.14820   0.15051   0.15358   0.16849   0.16985

 Mulliken charges and spin densities:
               1          2
     1  C   -1.447993   0.082668
     2  C    0.739371   0.071807
     3  C    0.900708   0.075543
     4  C   -1.447994   0.082668
     5  C    0.739371   0.071807
     6  C    0.900710   0.075543
     7  O   -0.393905   0.253495
     8  O   -0.393904   0.253495
     9  C   -0.496966   0.000004
    10  C   -0.662570   0.001827
    11  C   -0.662568   0.001827
    12  C   -0.496966   0.000004
    13  H    0.129451   0.000100
    14  H    0.145963   0.004519
    15  H    0.145952   0.004520
    16  H    0.208988  -0.002967
    17  H    0.115496   0.004241
    18  H    0.115503   0.004242
    19  H    0.208988  -0.002967
    20  H    0.115498   0.004241
    21  H    0.115501   0.004241
    22  H    0.129451   0.000100
    23  H    0.145962   0.004519
    24  H    0.145953   0.004520
 Sum of Mulliken charges =  -1.00000   1.00000

 Dipole moment (field-independent basis, Debye):
    X=             -1.4611    Y=             -0.0821    Z=              4.1078  Tot=              4.3607
 Quadrupole moment (field-independent basis, Debye-Ang):
   XX=            -83.1054   YY=           -114.4191   ZZ=            -80.4240
   XY=              0.7933   XZ=              1.2494   YZ=              0.0694

  Exact polarizability: 166.818   1.556 188.118   0.003   0.002  87.317
 Approx polarizability: 211.727  -0.047 324.558   0.003   0.004 135.755

 ******    2 imaginary frequencies (negative Signs) ******

                      1                      2                      3
                      A                      A                      A
 Frequencies --    -59.4614               -58.8400                91.7931
 Red. masses --      1.0272                 1.0255                 5.2833
 Frc consts  --      0.0021                 0.0021                 0.0262
 IR Inten    --      0.0000                 0.0101                12.1448

                      4                      5                      6
                      A                      A                      A
 Frequencies --     95.6707               112.2781               131.5823
 Red. masses --      1.6434                 1.1686                 1.4241
 Frc consts  --      0.0089                 0.0087                 0.0145
 IR Inten    --      0.0543                 0.0000                 0.3215

                      7                      8                      9
                      A                      A                      A
 Frequencies --    153.7784               197.2745               291.9594
 Red. masses --      2.5942                 3.6932                 2.7134
 Frc consts  --      0.0361                 0.0847                 0.1363
 IR Inten    --      0.0000                 0.0586                 5.0628

                     10                     11                     12
                      A                      A                      A
 Frequencies --    319.4965               319.5756               337.2094
 Red. masses --      3.5336                 2.6558                 2.5961
 Frc consts  --      0.2125                 0.1598                 0.1739
 IR Inten    --      0.0000                 0.0000                 2.1380

                     13                     14                     15
                      A                      A                      A
 Frequencies --    352.4598               397.1274               409.6386
 Red. masses --      4.2510                 5.2569                 9.4961
 Frc consts  --      0.3111                 0.4885                 0.9388
 IR Inten    --      0.0000                 0.0000                19.9659

                     16                     17                     18
                      A                      A                      A
 Frequencies --    432.4951               460.8216               532.2130
 Red. masses --      4.9746                 6.6264                 3.7292
 Frc consts  --      0.5482                 0.8291                 0.6223
 IR Inten    --      0.0000                 0.0000                 0.0001

                     19                     20                     21
                      A                      A                      A
 Frequencies --    556.4691               613.3387               678.7293
 Red. masses --      6.3252                 4.9162                 3.0925
 Frc consts  --      1.1540                 1.0896                 0.8394
 IR Inten    --      0.0000                23.5748                 0.0000

                     22                     23                     24
                      A                      A                      A
 Frequencies --    707.7513               768.7006               850.4668
 Red. masses --      5.6158                 5.6484                 2.1881
 Frc consts  --      1.6574                 1.9665                 0.9325
 IR Inten    --      9.1994                 0.0000                12.4147

                     25                     26                     27
                      A                      A                      A
 Frequencies --    868.8738               978.8389              1019.7489
 Red. masses --      2.9640                 1.4641                 3.8218
 Frc consts  --      1.3184                 0.8265                 2.3415
 IR Inten    --      4.2421                 0.0000                 0.0000

                     28                     29                     30
                      A                      A                      A
 Frequencies --   1020.8331              1025.9538              1032.3864
 Red. masses --      1.7478                 1.3781                 1.4611
 Frc consts  --      1.0731                 0.8547                 0.9175
 IR Inten    --      9.0525                 0.0000                 0.0477

                     31                     32                     33
                      A                      A                      A
 Frequencies --   1050.8911              1052.8018              1097.0583
 Red. masses --      1.5380                 1.5040                 2.0802
 Frc consts  --      1.0008                 0.9822                 1.4751
 IR Inten    --      0.0000                 0.0168                 0.0000

                     34                     35                     36
                      A                      A                      A
 Frequencies --   1125.4185              1161.6030              1226.7928
 Red. masses --      2.7616                 4.4054                 6.2223
 Frc consts  --      2.0608                 3.5023                 5.5175
 IR Inten    --     65.8388                 0.0000                23.4876

                     37                     38                     39
                      A                      A                      A
 Frequencies --   1298.0631              1373.0045              1376.0942
 Red. masses --      3.9778                 1.3022                 1.4028
 Frc consts  --      3.9490                 1.4463                 1.5650
 IR Inten    --     20.5767                 0.0000                67.6093

                     40                     41                     42
                      A                      A                      A
 Frequencies --   1395.9804              1398.0329              1436.0534
 Red. masses --      1.2906                 1.2703                 3.1977
 Frc consts  --      1.4818                 1.4628                 3.8853
 IR Inten    --      0.0000                17.2052                 0.0000

                     43                     44                     45
                      A                      A                      A
 Frequencies --   1464.5923              1469.3320              1469.5469
 Red. masses --      1.2520                 1.0468                 1.0465
 Frc consts  --      1.5824                 1.3315                 1.3316
 IR Inten    --     41.3431                 9.8908                 0.0000

                     46                     47                     48
                      A                      A                      A
 Frequencies --   1472.9770              1486.5664              1491.7115
 Red. masses --      1.2181                 1.1294                 1.4252
 Frc consts  --      1.5572                 1.4705                 1.8685
 IR Inten    --      0.0000                11.4742                 0.0000

                     49                     50                     51
                      A                      A                      A
 Frequencies --   1502.7404              1505.0482              1506.4690
 Red. masses --      3.2847                 5.0374                 1.0480
 Frc consts  --      4.3703                 6.7229                 1.4013
 IR Inten    --      0.0000               429.1360                 0.0000

                     52                     53                     54
                      A                      A                      A
 Frequencies --   1506.7043              1545.7524              1636.9281
 Red. masses --      1.0484                 3.9494                 7.2799
 Frc consts  --      1.4022                 5.5598                11.4931
 IR Inten    --      5.8328                15.6314                 0.0000

                     55                     56                     57
                      A                      A                      A
 Frequencies --   2989.5105              2990.6424              3009.2274
 Red. masses --      1.0407                 1.0407                 1.0385
 Frc consts  --      5.4801                 5.4841                 5.5409
 IR Inten    --    197.8963                 0.0000               170.7366

                     58                     59                     60
                      A                      A                      A
 Frequencies --   3010.3238              3024.4607              3024.6971
 Red. masses --      1.0387                 1.0995                 1.0994
 Frc consts  --      5.5461                 5.9257                 5.9261
 IR Inten    --      0.0000                 0.0001               108.1853

                     61                     62                     63
                      A                      A                      A
 Frequencies --   3041.4743              3041.7284              3100.6251
 Red. masses --      1.0983                 1.0981                 1.0969
 Frc consts  --      5.9861                 5.9861                 6.2132
 IR Inten    --      0.0003                65.2835                 0.0098

                     64                     65                     66
                      A                      A                      A
 Frequencies --   3100.7348              3105.4603              3105.7077
 Red. masses --      1.0971                 1.0944                 1.0944
 Frc consts  --      6.2147                 6.2184                 6.2194
 IR Inten    --     75.7093                 8.4530                 0.0000

 - Thermochemistry -
 -------------------
 Temperature   298.150 Kelvin.  Pressure   1.00000 Atm.
 Atom     1 has atomic number  6 and mass  12.00000

 Molecular mass:   164.08373 amu.
 Principal axes and moments of inertia in atomic units:
                           1         2         3
     Eigenvalues --  1657.548801729.145323342.41389
           X            0.99490  -0.10085  -0.00004
           Y            0.10085   0.99490  -0.00002
           Z            0.00004   0.00002   1.00000
 This molecule is an asymmetric top.
 Rotational symmetry number  1.
 Warning -- assumption of classical behavior for rotation
           may cause significant error
 Rotational temperatures (Kelvin)      0.05225     0.05009     0.02591
 Rotational constants (GHZ):           1.08880     1.04372     0.53995
    2 imaginary frequencies ignored.
 Zero-point vibrational energy     504538.3 (Joules/Mol)
                                  120.58755 (Kcal/Mol)
 Warning -- explicit consideration of  18 degrees of freedom as
           vibrations may cause significant error
 Vibrational temperatures:    132.07   137.65   161.54   189.32   221.25
          (Kelvin)            283.83   420.06   459.68   459.80   485.17
                              507.11   571.38   589.38   622.26   663.02
                              765.74   800.63   882.46   976.54  1018.30
                             1105.99  1223.63  1250.12  1408.33  1467.19
                             1468.75  1476.12  1485.37  1512.00  1514.75
                             1578.42  1619.23  1671.29  1765.08  1867.62
                             1975.45  1979.89  2008.50  2011.46  2066.16
                             2107.22  2114.04  2114.35  2119.29  2138.84
                             2146.24  2162.11  2165.43  2167.47  2167.81
                             2223.99  2355.17  4301.24  4302.87  4329.61
                             4331.18  4351.52  4351.86  4376.00  4376.37
                             4461.11  4461.27  4468.06  4468.42

 Zero-point correction=                           0.192168 (Hartree/Particle)
 Thermal correction to Energy=                    0.203596
 Thermal correction to Enthalpy=                  0.204540
 Thermal correction to Gibbs Free Energy=         0.154613
 Sum of electronic and zero-point Energies=           -538.755370
 Sum of electronic and thermal Energies=              -538.743943
 Sum of electronic and thermal Enthalpies=            -538.742999
 Sum of electronic and thermal Free Energies=         -538.792926

                     E (Thermal)             CV                S
                      KCal/Mol        Cal/Mol-Kelvin    Cal/Mol-Kelvin
 Total                  127.758             43.074            105.080
 Electronic               0.000              0.000              1.377
 Translational            0.889              2.981             41.194
 Rotational               0.889              2.981             30.639
 Vibrational            125.981             37.112             31.870
 Vibration     1          0.602              1.955              3.621
 Vibration     2          0.603              1.952              3.541
 Vibration     3          0.607              1.939              3.229
 Vibration     4          0.612              1.922              2.923
 Vibration     5          0.619              1.898              2.625
 Vibration     6          0.637              1.844              2.158
 Vibration     7          0.687              1.689              1.463
 Vibration     8          0.705              1.636              1.313
 Vibration     9          0.706              1.636              1.312
 Vibration    10          0.718              1.601              1.225
 Vibration    11          0.729              1.570              1.155
 Vibration    12          0.764              1.476              0.973
 Vibration    13          0.774              1.449              0.928
 Vibration    14          0.793              1.399              0.851
 Vibration    15          0.819              1.337              0.764
 Vibration    16          0.887              1.179              0.582
 Vibration    17          0.912              1.126              0.531
 Vibration    18          0.973              1.004              0.427

 Optimization completed.
    -- Stationary point found.
 Normal termination of Gaussian 16 at Sun Dec 17 21:25:08 2023.
