 Gaussian 16, Revision A.03,
 Gaussian 16:  ES64L-G16RevA.03 25-Dec-2016

 ----------------------------------------------------------------------
 #P UB3LYP/6-311++G(d,p) nosym opt freq SCRF=(PCM,Solvent=n,n-DiMethylF
 ormamide)
 ----------------------------------------------------------------------

 -------
 Reduced
 -------
 Symbolic Z-matrix:
 Charge = -2 Multiplicity = 1

 SCF Done:  E(UB3LYP) =  -696.384893118     A.U. after   18 cycles
 SCF Done:  E(UB3LYP) =  -696.384953442     A.U. after   14 cycles
 SCF Done:  E(UB3LYP) =  -696.384857225     A.U. after   14 cycles
 SCF Done:  E(UB3LYP) =  -696.385479366     A.U. after   13 cycles
 SCF Done:  E(UB3LYP) =  -696.386648578     A.U. after   12 cycles
 SCF Done:  E(UB3LYP) =  -696.386698883     A.U. after   13 cycles
 SCF Done:  E(UB3LYP) =  -696.386936664     A.U. after   13 cycles
 SCF Done:  E(UB3LYP) =  -696.387099109     A.U. after   13 cycles
 SCF Done:  E(UB3LYP) =  -696.387114204     A.U. after   12 cycles
 SCF Done:  E(UB3LYP) =  -696.387121203     A.U. after   12 cycles
 SCF Done:  E(UB3LYP) =  -696.387150636     A.U. after   10 cycles
 SCF Done:  E(UB3LYP) =  -696.387151063     A.U. after    9 cycles
 SCF Done:  E(UB3LYP) =  -696.387151858     A.U. after   10 cycles
 SCF Done:  E(UB3LYP) =  -696.387152267     A.U. after   10 cycles
 SCF Done:  E(UB3LYP) =  -696.387152456     A.U. after   10 cycles
 SCF Done:  E(UB3LYP) =  -696.387152513     A.U. after   10 cycles
 SCF Done:  E(UB3LYP) =  -696.387152552     A.U. after    9 cycles
 SCF Done:  E(UB3LYP) =  -696.387152579     A.U. after    9 cycles
 SCF Done:  E(UB3LYP) =  -696.387152595     A.U. after    9 cycles
 Optimization completed.
    -- Stationary point found.
 Normal termination of Gaussian 16 at Sat Feb 10 11:51:19 2024.

 ----------------------------------------------------------------------
 #P Geom=AllCheck Guess=TCheck SCRF=Check GenChk UB3LYP/6-311++G(d,p) F
 req
 ----------------------------------------------------------------------

 Structure from the checkpoint file:  "043-an.chk"
 -------
 Reduced
 -------
 Charge = -2 Multiplicity = 1

                          Input orientation:
 ---------------------------------------------------------------------
 Center     Atomic      Atomic             Coordinates (Angstroms)
 Number     Number       Type             X           Y           Z
 ---------------------------------------------------------------------
      1          6           0        0.809933    1.664438   -0.721030
      2          6           0       -0.486858    1.028944   -0.622114
      3          6           0       -0.614633   -0.273497   -0.057140
      4          6           0        0.555884   -1.002980    0.382758
      5          6           0        1.819769   -0.351488    0.284530
      6          6           0        1.944978    0.933315   -0.265984
      7          6           0        3.308348    1.582255   -0.387849
      8          6           0        3.044443   -1.084331    0.791452
      9          8           0        0.958561    2.885458   -1.216856
     10          8           0        0.475820   -2.234325    0.869631
     11          1           0        4.073159    0.879839   -0.737392
     12          1           0        3.672986    1.984315    0.569916
     13          1           0        3.251866    2.420253   -1.083850
     14          1           0        2.737020   -1.903852    1.442116
     15          1           0        3.721965   -0.425175    1.345172
     16          1           0        3.640138   -1.528086   -0.021149
     17          6           0       -1.904560   -1.080704    0.168106
     18          6           0       -3.103076   -0.391321    0.843871
     19          6           0       -2.345798   -1.913822   -1.056252
     20          6           0       -1.602031    1.929338   -1.182553
     21          6           0       -2.298088    2.806592   -0.117803
     22          6           0       -2.618536    1.328342   -2.169423
     23          1           0       -1.569087   -1.831533    0.887664
     24          1           0       -3.818729   -1.154005    1.175585
     25          1           0       -3.648921    0.296771    0.198635
     26          1           0       -2.785836    0.166550    1.730441
     27          1           0       -3.154051   -2.604732   -0.782318
     28          1           0       -1.508487   -2.514264   -1.422377
     29          1           0       -2.702699   -1.300081   -1.884797
     30          1           0       -1.025185    2.645353   -1.772997
     31          1           0       -2.947968    3.550940   -0.596649
     32          1           0       -1.552363    3.350371    0.469033
     33          1           0       -2.911784    2.231031    0.576752
     34          1           0       -3.154962    2.141116   -2.674967
     35          1           0       -3.371851    0.690557   -1.707129
     36          1           0       -2.115235    0.739336   -2.942463
 ---------------------------------------------------------------------

 SCF Done:  E(UB3LYP) =  -696.387152595     A.U. after    2 cycles

 Alpha  occ. eigenvalues --  -18.99638 -18.99621 -10.14732 -10.14717 -10.13600
 Alpha  occ. eigenvalues --  -10.13578 -10.13536 -10.13535 -10.13359 -10.13355
 Alpha  occ. eigenvalues --  -10.12804 -10.12791 -10.11594 -10.11550 -10.11163
 Alpha  occ. eigenvalues --  -10.11111  -0.90311  -0.89870  -0.78204  -0.76356
 Alpha  occ. eigenvalues --   -0.75477  -0.70237  -0.68558  -0.66480  -0.65827
 Alpha  occ. eigenvalues --   -0.62352  -0.62058  -0.56269  -0.54742  -0.49236
 Alpha  occ. eigenvalues --   -0.48096  -0.45170  -0.42257  -0.41398  -0.41216
 Alpha  occ. eigenvalues --   -0.40703  -0.39783  -0.38671  -0.38335  -0.37742
 Alpha  occ. eigenvalues --   -0.36994  -0.36624  -0.35827  -0.35185  -0.35162
 Alpha  occ. eigenvalues --   -0.34753  -0.32704  -0.32527  -0.31641  -0.31470
 Alpha  occ. eigenvalues --   -0.30587  -0.30218  -0.28882  -0.28170  -0.27193
 Alpha  occ. eigenvalues --   -0.26980  -0.20070  -0.18092  -0.18060  -0.16896
 Alpha  occ. eigenvalues --   -0.10229
 Alpha virt. eigenvalues --   -0.00283   0.00660   0.01217   0.01770   0.02559
 Alpha virt. eigenvalues --    0.02898   0.03113   0.03382   0.03452   0.04592
 Alpha virt. eigenvalues --    0.04912   0.05116   0.05504   0.05539   0.06328

  Beta  occ. eigenvalues --  -18.99638 -18.99621 -10.14732 -10.14717 -10.13600
  Beta  occ. eigenvalues --  -10.13578 -10.13536 -10.13535 -10.13359 -10.13355
  Beta  occ. eigenvalues --  -10.12804 -10.12791 -10.11594 -10.11550 -10.11163
  Beta  occ. eigenvalues --  -10.11111  -0.90311  -0.89870  -0.78204  -0.76356
  Beta  occ. eigenvalues --   -0.75477  -0.70237  -0.68558  -0.66480  -0.65827
  Beta  occ. eigenvalues --   -0.62352  -0.62058  -0.56269  -0.54742  -0.49236
  Beta  occ. eigenvalues --   -0.48096  -0.45170  -0.42257  -0.41398  -0.41216
  Beta  occ. eigenvalues --   -0.40703  -0.39783  -0.38671  -0.38335  -0.37742
  Beta  occ. eigenvalues --   -0.36994  -0.36624  -0.35827  -0.35185  -0.35162
  Beta  occ. eigenvalues --   -0.34753  -0.32704  -0.32527  -0.31641  -0.31470
  Beta  occ. eigenvalues --   -0.30587  -0.30218  -0.28882  -0.28170  -0.27193
  Beta  occ. eigenvalues --   -0.26980  -0.20070  -0.18092  -0.18060  -0.16896
  Beta  occ. eigenvalues --   -0.10229
  Beta virt. eigenvalues --   -0.00283   0.00660   0.01217   0.01770   0.02559
  Beta virt. eigenvalues --    0.02898   0.03113   0.03382   0.03452   0.04592
  Beta virt. eigenvalues --    0.04912   0.05116   0.05504   0.05539   0.06328

 Mulliken charges and spin densities:
               1          2
     1  C   -1.636234  -0.000000
     2  C    0.939782  -0.000000
     3  C    0.953385  -0.000000
     4  C   -1.623700  -0.000000
     5  C    0.735232   0.000000
     6  C    0.727091   0.000000
     7  C   -0.572648   0.000000
     8  C   -0.568042   0.000000
     9  O   -0.689343   0.000000
    10  O   -0.689703   0.000000
    11  H    0.128109  -0.000000
    12  H    0.132660  -0.000000
    13  H    0.164367   0.000000
    14  H    0.162499   0.000000
    15  H    0.128479  -0.000000
    16  H    0.133263  -0.000000
    17  C    0.176986   0.000000
    18  C   -0.659110   0.000000
    19  C   -0.695501   0.000000
    20  C    0.179687   0.000000
    21  C   -0.693715   0.000000
    22  C   -0.659573   0.000000
    23  H    0.197766  -0.000000
    24  H    0.137600  -0.000000
    25  H    0.110382  -0.000000
    26  H    0.131505  -0.000000
    27  H    0.120562  -0.000000
    28  H    0.157807   0.000000
    29  H    0.107266  -0.000000
    30  H    0.199308  -0.000000
    31  H    0.120506   0.000000
    32  H    0.156255   0.000000
    33  H    0.107343   0.000000
    34  H    0.137529  -0.000000
    35  H    0.110376  -0.000000
    36  H    0.131820   0.000000
 Sum of Mulliken charges =  -2.00000  -0.00000

 Dipole moment (field-independent basis, Debye):
    X=             -5.5785    Y=             -3.1847    Z=              1.8170  Tot=              6.6756
 Quadrupole moment (field-independent basis, Debye-Ang):
   XX=           -126.7657   YY=           -167.4368   ZZ=           -121.3051
   XY=             -6.3197   XZ=              1.4806   YZ=             21.2012

  Exact polarizability: 329.756   4.192 308.133  13.840 -35.431 225.939
 Approx polarizability: 335.430   5.570 328.999  12.126 -40.836 242.003

                      1                      2                      3
                      A                      A                      A
 Frequencies --     49.2433                65.6598                75.9594
 Red. masses --      3.6056                 3.1487                 1.1021
 Frc consts  --      0.0052                 0.0080                 0.0037
 IR Inten    --      0.2619                15.0488                 0.7271

                      4                      5                      6
                      A                      A                      A
 Frequencies --    112.1812               120.8971               138.8423
 Red. masses --      2.1333                 1.3363                 2.7322
 Frc consts  --      0.0158                 0.0115                 0.0310
 IR Inten    --     12.3878                 9.3952                 0.2557

                      7                      8                      9
                      A                      A                      A
 Frequencies --    153.0286               173.2992               180.1346
 Red. masses --      2.6254                 2.5335                 2.1637
 Frc consts  --      0.0362                 0.0448                 0.0414
 IR Inten    --      2.4697                 1.1196                11.6678

                     10                     11                     12
                      A                      A                      A
 Frequencies --    198.9105               220.0970               241.8366
 Red. masses --      1.4342                 1.5414                 2.4279
 Frc consts  --      0.0334                 0.0440                 0.0837
 IR Inten    --      2.3140                 5.7072                 1.2460

                     13                     14                     15
                      A                      A                      A
 Frequencies --    246.2477               251.0704               258.8112
 Red. masses --      2.1516                 2.6026                 2.2100
 Frc consts  --      0.0769                 0.0967                 0.0872
 IR Inten    --      1.4539                 1.0171                 0.7422

                     16                     17                     18
                      A                      A                      A
 Frequencies --    270.8826               291.3871               295.8013
 Red. masses --      1.1882                 2.1632                 1.5211
 Frc consts  --      0.0514                 0.1082                 0.0784
 IR Inten    --      0.1899                 4.8004                 3.9272

                     19                     20                     21
                      A                      A                      A
 Frequencies --    335.1253               345.3102               412.1752
 Red. masses --      2.5546                 2.9152                 5.8648
 Frc consts  --      0.1690                 0.2048                 0.5870
 IR Inten    --      6.0726                 3.3445                 0.8418

                     22                     23                     24
                      A                      A                      A
 Frequencies --    417.9439               435.6320               457.9492
 Red. masses --      7.0599                 2.8133                 3.3518
 Frc consts  --      0.7266                 0.3146                 0.4142
 IR Inten    --     34.5051                 0.3529                 2.0741

                     25                     26                     27
                      A                      A                      A
 Frequencies --    459.0241               494.8667               502.2211
 Red. masses --      4.7293                 3.8095                 4.9304
 Frc consts  --      0.5871                 0.5497                 0.7327
 IR Inten    --      1.6597                 5.3865                 1.0131

                     28                     29                     30
                      A                      A                      A
 Frequencies --    549.5094               584.0299               614.0259
 Red. masses --      3.1111                 4.0700                 4.6419
 Frc consts  --      0.5535                 0.8179                 1.0311
 IR Inten    --      0.0554                68.3081                 0.0124

                     31                     32                     33
                      A                      A                      A
 Frequencies --    707.2306               724.8463               770.0427
 Red. masses --      3.4256                 7.5766                 4.6083
 Frc consts  --      1.0095                 2.3454                 1.6100
 IR Inten    --      4.8282                12.7878                 2.5916

                     34                     35                     36
                      A                      A                      A
 Frequencies --    788.1756               849.0876               894.1491
 Red. masses --      7.1666                 3.0318                 2.7928
 Frc consts  --      2.6231                 1.2878                 1.3155
 IR Inten    --      0.3857                65.8888               149.7431

                     37                     38                     39
                      A                      A                      A
 Frequencies --    904.7798               918.8119               929.6608
 Red. masses --      2.1696                 1.2164                 1.2261
 Frc consts  --      1.0465                 0.6050                 0.6244
 IR Inten    --      1.8743                 6.3895                 3.0773

                     40                     41                     42
                      A                      A                      A
 Frequencies --    953.5896               955.8029               976.0331
 Red. masses --      1.4686                 1.4189                 1.5786
 Frc consts  --      0.7868                 0.7637                 0.8860
 IR Inten    --      0.3209                 0.2353                 5.4577

                     43                     44                     45
                      A                      A                      A
 Frequencies --    991.2279              1025.4977              1047.1419
 Red. masses --      2.4480                 1.4186                 1.5478
 Frc consts  --      1.4171                 0.8790                 0.9999
 IR Inten    --      5.9093                 0.1158                30.3055

                     46                     47                     48
                      A                      A                      A
 Frequencies --   1063.3168              1079.4249              1085.0984
 Red. masses --      4.5008                 2.4690                 1.6593
 Frc consts  --      2.9983                 1.6950                 1.1511
 IR Inten    --     41.3783               287.2328                14.4525

                     49                     50                     51
                      A                      A                      A
 Frequencies --   1117.0093              1122.7856              1134.5625
 Red. masses --      2.6482                 2.4696                 1.9455
 Frc consts  --      1.9468                 1.8343                 1.4755
 IR Inten    --     24.3682                 4.5909                42.6842

                     52                     53                     54
                      A                      A                      A
 Frequencies --   1183.9011              1189.5651              1190.9471
 Red. masses --      2.4619                 2.6668                 3.5408
 Frc consts  --      2.0330                 2.2234                 2.9589
 IR Inten    --     18.3838                31.7949               190.8413

                     55                     56                     57
                      A                      A                      A
 Frequencies --   1255.8428              1295.0135              1319.6224
 Red. masses --      3.1054                 7.3326                 4.3812
 Frc consts  --      2.8856                 7.2453                 4.4951
 IR Inten    --     30.0621                45.7054              1353.3258

                     58                     59                     60
                      A                      A                      A
 Frequencies --   1366.9597              1371.3546              1373.5350
 Red. masses --      1.3335                 1.4319                 1.4346
 Frc consts  --      1.4681                 1.5865                 1.5946
 IR Inten    --     30.3937                 0.6620               196.5093

                     61                     62                     63
                      A                      A                      A
 Frequencies --   1376.5962              1378.8178              1381.2233
 Red. masses --      1.2336                 1.2407                 1.2938
 Frc consts  --      1.3773                 1.3897                 1.4542
 IR Inten    --     26.6056                 9.8309                16.5467

                     64                     65                     66
                      A                      A                      A
 Frequencies --   1384.2175              1388.1557              1397.2631
 Red. masses --      1.3168                 1.4572                 1.3156
 Frc consts  --      1.4865                 1.6544                 1.5133
 IR Inten    --      1.3709                 4.5210                 1.3515

                     67                     68                     69
                      A                      A                      A
 Frequencies --   1407.9567              1430.4655              1454.8368
 Red. masses --      1.2234                 3.2186                 1.1680
 Frc consts  --      1.4289                 3.8803                 1.4566
 IR Inten    --      6.0774               105.3926                 2.6804

                     70                     71                     72
                      A                      A                      A
 Frequencies --   1469.9007              1473.9368              1482.0550
 Red. masses --      1.0676                 1.0460                 1.0514
 Frc consts  --      1.3591                 1.3388                 1.3607
 IR Inten    --      9.8442                 3.6307                 1.5849

                     73                     74                     75
                      A                      A                      A
 Frequencies --   1483.0300              1483.7973              1488.6677
 Red. masses --      1.0526                 1.1012                 1.0606
 Frc consts  --      1.3640                 1.4285                 1.3848
 IR Inten    --      4.1419                 2.2419                 1.7088

                     76                     77                     78
                      A                      A                      A
 Frequencies --   1490.7620              1492.7921              1502.6264
 Red. masses --      1.0826                 1.1185                 1.0545
 Frc consts  --      1.4175                 1.4686                 1.4028
 IR Inten    --      4.0835                 5.6995                 1.0386

                     79                     80                     81
                      A                      A                      A
 Frequencies --   1506.9418              1512.5782              1516.9643
 Red. masses --      1.0526                 1.3680                 1.7751
 Frc consts  --      1.4083                 1.8440                 2.4067
 IR Inten    --      5.2292                68.3474                34.3792

                     82                     83                     84
                      A                      A                      A
 Frequencies --   1568.9941              2957.1518              2957.7727
 Red. masses --      6.2884                 1.0601                 1.0598
 Frc consts  --      9.1207                 5.4617                 5.4627
 IR Inten    --      7.8552               152.5965               261.5166

                     85                     86                     87
                      A                      A                      A
 Frequencies --   2993.4791              2993.7998              3001.4785
 Red. masses --      1.0501                 1.0497                 1.0479
 Frc consts  --      5.5441                 5.5433                 5.5619
 IR Inten    --    124.1804                80.9988               118.8313

                     88                     89                     90
                      A                      A                      A
 Frequencies --   3003.6352              3018.5404              3025.0002
 Red. masses --      1.0503                 1.0785                 1.0772
 Frc consts  --      5.5827                 5.7897                 5.8076
 IR Inten    --    199.4257               106.1978               123.4340

                     91                     92                     93
                      A                      A                      A
 Frequencies --   3025.4335              3029.4915              3054.2093
 Red. masses --      1.0806                 1.0801                 1.0936
 Frc consts  --      5.8274                 5.8406                 6.0106
 IR Inten    --     11.6578                65.8866                47.5422

                     94                     95                     96
                      A                      A                      A
 Frequencies --   3055.5141              3063.7096              3065.9697
 Red. masses --      1.0931                 1.0869                 1.0859
 Frc consts  --      6.0126                 6.0106                 6.0143
 IR Inten    --    115.7653                94.4295                92.2713

                     97                     98                     99
                      A                      A                      A
 Frequencies --   3094.5305              3095.3495              3101.6814
 Red. masses --      1.0944                 1.0949                 1.0967
 Frc consts  --      6.1745                 6.1809                 6.2161
 IR Inten    --     50.4072                 2.9615               135.8565

                    100                    101                    102
                      A                      A                      A
 Frequencies --   3102.6808              3107.5678              3122.0326
 Red. masses --      1.0975                 1.0952                 1.0901
 Frc consts  --      6.2250                 6.2315                 6.2605
 IR Inten    --      6.1873                 4.8476                53.4909

 - Thermochemistry -
 -------------------
 Temperature   298.150 Kelvin.  Pressure   1.00000 Atm.
 Atom     1 has atomic number  6 and mass  12.00000

 Molecular mass:   220.14633 amu.
 Principal axes and moments of inertia in atomic units:
                           1         2         3
     Eigenvalues --  2717.044443783.176555764.79215
           X            0.98933   0.08100  -0.12112
           Y           -0.03655   0.94261   0.33188
           Z            0.14106  -0.32391   0.93551
 This molecule is an asymmetric top.
 Rotational symmetry number  1.
 Warning -- assumption of classical behavior for rotation
           may cause significant error
 Rotational temperatures (Kelvin)      0.03188     0.02289     0.01502
 Rotational constants (GHZ):           0.66423     0.47704     0.31306
 Zero-point vibrational energy     798380.1 (Joules/Mol)
                                  190.81742 (Kcal/Mol)
 Warning -- explicit consideration of  30 degrees of freedom as
           vibrations may cause significant error
 Vibrational temperatures:     70.85    94.47   109.29   161.40   173.94
          (Kelvin)            199.76   220.17   249.34   259.17   286.19
                              316.67   347.95   354.30   361.23   372.37
                              389.74   419.24   425.59   482.17   496.82
                              593.03   601.33   626.78   658.89   660.43
                              712.00   722.58   790.62   840.29   883.45
                             1017.55  1042.89  1107.92  1134.01  1221.65
                             1286.48  1301.78  1321.97  1337.57  1372.00
                             1375.19  1404.29  1426.16  1475.46  1506.60
                             1529.88  1553.05  1561.21  1607.13  1615.44
                             1632.38  1703.37  1711.52  1713.51  1806.88
                             1863.24  1898.64  1966.75  1973.07  1976.21
                             1980.61  1983.81  1987.27  1991.58  1997.25
                             2010.35  2025.74  2058.12  2093.19  2114.86
                             2120.67  2132.35  2133.75  2134.85  2141.86
                             2144.87  2147.79  2161.94  2168.15  2176.26
                             2182.57  2257.43  4254.68  4255.58  4306.95
                             4307.41  4318.46  4321.56  4343.01  4352.30
                             4352.92  4358.76  4394.33  4396.20  4407.99
                             4411.25  4452.34  4453.52  4462.63  4464.07
                             4471.10  4491.91

 Zero-point correction=                           0.304087 (Hartree/Particle)
 Thermal correction to Energy=                    0.321966
 Thermal correction to Enthalpy=                  0.322910
 Thermal correction to Gibbs Free Energy=         0.260023
 Sum of electronic and zero-point Energies=           -696.083066
 Sum of electronic and thermal Energies=              -696.065187
 Sum of electronic and thermal Enthalpies=            -696.064243
 Sum of electronic and thermal Free Energies=         -696.127129

                     E (Thermal)             CV                S
                      KCal/Mol        Cal/Mol-Kelvin    Cal/Mol-Kelvin
 Total                  202.037             67.848            132.356
 Electronic               0.000              0.000              0.000
 Translational            0.889              2.981             42.070
 Rotational               0.889              2.981             32.449
 Vibrational            200.259             61.886             57.837
 Vibration     1          0.595              1.978              4.848
 Vibration     2          0.597              1.971              4.279
 Vibration     3          0.599              1.965              3.993
 Vibration     4          0.607              1.939              3.231
 Vibration     5          0.609              1.932              3.086
 Vibration     6          0.614              1.915              2.820
 Vibration     7          0.619              1.899              2.634
 Vibration     8          0.627              1.875              2.399
 Vibration     9          0.629              1.867              2.327
 Vibration    10          0.637              1.841              2.143
 Vibration    11          0.647              1.810              1.958
 Vibration    12          0.658              1.776              1.789
 Vibration    13          0.661              1.769              1.757
 Vibration    14          0.663              1.761              1.723
 Vibration    15          0.668              1.748              1.670
 Vibration    16          0.675              1.727              1.591
 Vibration    17          0.687              1.690              1.466
 Vibration    18          0.690              1.682              1.441
 Vibration    19          0.716              1.605              1.235
 Vibration    20          0.724              1.585              1.188
 Vibration    21          0.776              1.444              0.919
 Vibration    22          0.781              1.431              0.899
 Vibration    23          0.796              1.393              0.840
 Vibration    24          0.816              1.343              0.772
 Vibration    25          0.817              1.341              0.769
 Vibration    26          0.850              1.261              0.671
 Vibration    27          0.858              1.245              0.653
 Vibration    28          0.905              1.141              0.545
 Vibration    29          0.941              1.066              0.478
 Vibration    30          0.973              1.002              0.426

 Optimization completed.
    -- Stationary point found.
 Normal termination of Gaussian 16 at Sat Feb 10 12:48:32 2024.
