 Gaussian 16, Revision A.03,
 Gaussian 16:  ES64L-G16RevA.03 25-Dec-2016

 ----------------------------------------------------------------
 #P UB3LYP/6-311++G(d,p) SCRF=(PCM,Solvent=n,n-DiMethylFormamide)
 ----------------------------------------------------------------

 ------------------
 Radical PCM in DMF
 ------------------
 Symbolic Z-matrix:
 Charge = -1 Multiplicity = 2

                         Standard orientation:
 ---------------------------------------------------------------------
 Center     Atomic      Atomic             Coordinates (Angstroms)
 Number     Number       Type             X           Y           Z
 ---------------------------------------------------------------------
      1          8           0        2.767840   -1.268626    0.000077
      2          6           0        1.412397   -1.236019    0.000036
      3          6           0        0.698399   -2.432884   -0.000032
      4          6           0       -0.698411   -2.432906   -0.000086
      5          6           0       -1.412385   -1.236044   -0.000061
      6          8           0       -2.767812   -1.268598    0.000008
      7          6           0       -0.713305   -0.001977   -0.000013
      8          6           0       -1.456073    1.255365   -0.000014
      9          8           0       -2.737290    1.268068    0.000086
     10          6           0       -0.688977    2.461964   -0.000048
     11          6           0        0.688945    2.461982   -0.000046
     12          6           0        1.456050    1.255402   -0.000008
     13          8           0        2.737267    1.268129   -0.000023
     14          6           0        0.713312   -0.001954    0.000046
     15          1           0        3.045977   -0.302185    0.000143
     16          1           0        1.253163   -3.364919   -0.000047
     17          1           0       -1.253171   -3.364945   -0.000104
     18          1           0       -3.045656   -0.302108    0.000322
     19          1           0       -1.248454    3.392379   -0.000055
     20          1           0        1.248397    3.392414   -0.000092
 ---------------------------------------------------------------------

 SCF Done:  E(UB3LYP) =  -685.934677482     A.U. after   18 cycles

 The electronic state is 2-A.
 Alpha  occ. eigenvalues --  -19.13210 -19.13209 -19.09380 -19.09380 -10.23498
 Alpha  occ. eigenvalues --  -10.23496 -10.23294 -10.23292 -10.18042 -10.17999
 Alpha  occ. eigenvalues --  -10.17429 -10.17376 -10.17166 -10.17106  -1.05500
 Alpha  occ. eigenvalues --   -1.05341  -1.00790  -1.00615  -0.85809  -0.81068
 Alpha  occ. eigenvalues --   -0.75080  -0.73922  -0.68629  -0.63838  -0.62010
 Alpha  occ. eigenvalues --   -0.58789  -0.52438  -0.51331  -0.51253  -0.50339
 Alpha  occ. eigenvalues --   -0.47386  -0.43970  -0.43933  -0.42886  -0.41274
 Alpha  occ. eigenvalues --   -0.41158  -0.40445  -0.39879  -0.39151  -0.38448
 Alpha  occ. eigenvalues --   -0.37157  -0.36267  -0.35412  -0.31083  -0.28537
 Alpha  occ. eigenvalues --   -0.26339  -0.25913  -0.25204  -0.21851  -0.16044
 Alpha virt. eigenvalues --   -0.02501  -0.02316   0.00095   0.01061   0.01358
 Alpha virt. eigenvalues --    0.02502   0.03326   0.04285   0.04901   0.05385
 Alpha virt. eigenvalues --    0.05876   0.06635   0.07089   0.07352   0.07767

  Beta  occ. eigenvalues --  -19.13149 -19.13148 -19.08845 -19.08844 -10.23315
  Beta  occ. eigenvalues --  -10.23314 -10.23238 -10.23236 -10.18067 -10.18024
  Beta  occ. eigenvalues --  -10.17351 -10.17298 -10.17009 -10.16948  -1.05298
  Beta  occ. eigenvalues --   -1.05143  -0.99916  -0.99721  -0.85577  -0.80536
  Beta  occ. eigenvalues --   -0.74880  -0.73607  -0.67782  -0.63503  -0.61802
  Beta  occ. eigenvalues --   -0.58595  -0.52299  -0.51228  -0.50974  -0.50010
  Beta  occ. eigenvalues --   -0.47183  -0.43724  -0.43127  -0.42511  -0.41058
  Beta  occ. eigenvalues --   -0.40974  -0.39690  -0.39514  -0.38274  -0.37698
  Beta  occ. eigenvalues --   -0.36086  -0.35273  -0.35197  -0.30343  -0.26096
  Beta  occ. eigenvalues --   -0.25872  -0.25431  -0.24776  -0.20643
  Beta virt. eigenvalues --   -0.09964  -0.01363  -0.00891   0.00121   0.01073
  Beta virt. eigenvalues --    0.01391   0.02528   0.03346   0.04650   0.04943
  Beta virt. eigenvalues --    0.05402   0.06673   0.06818   0.07245   0.07916

 Mulliken charges and spin densities:
               1          2
     1  O   -0.408329   0.019001
     2  C   -0.253222   0.062648
     3  C   -0.017233   0.054222
     4  C   -0.017320   0.054215
     5  C   -0.253141   0.062642
     6  O   -0.408353   0.019004
     7  C    0.502644  -0.010760
     8  C   -0.375154   0.105750
     9  O   -0.517872   0.190456
    10  C   -0.175820   0.097842
    11  C   -0.175743   0.097851
    12  C   -0.375094   0.105731
    13  O   -0.517877   0.190471
    14  C    0.502626  -0.010754
    15  H    0.357173  -0.004555
    16  H    0.197320  -0.004580
    17  H    0.197316  -0.004580
    18  H    0.357212  -0.004556
    19  H    0.190432  -0.010024
    20  H    0.190434  -0.010024
 Sum of Mulliken charges =  -1.00000   1.00000

 Dipole moment (field-independent basis, Debye):
    X=              0.0006    Y=             -1.4870    Z=              0.0004  Tot=              1.4870
 Quadrupole moment (field-independent basis, Debye-Ang):
   XX=           -126.3228   YY=            -88.6247   ZZ=            -85.5550
   XY=             -0.0005   XZ=             -0.0006   YZ=             -0.0001

 Normal termination of Gaussian 16 at Thu Jan 25 05:45:53 2024.
