 Gaussian 16, Revision A.03,
 Gaussian 16:  ES64L-G16RevA.03 25-Dec-2016

 --------------------------------------
 #P UB3LYP/6-311++G(d,p) nosym opt freq
 --------------------------------------

 -------
 Radical
 -------
 Symbolic Z-matrix:
 Charge = -1 Multiplicity = 2

 SCF Done:  E(UB3LYP) =  -685.862729166     A.U. after   18 cycles
 SCF Done:  E(UB3LYP) =  -685.862728700     A.U. after   11 cycles
 SCF Done:  E(UB3LYP) =  -685.862729271     A.U. after   10 cycles
 Optimization completed.
    -- Stationary point found.
 Normal termination of Gaussian 16 at Mon Jan  8 21:30:59 2024.

 ----------------------------------------------------------------------
 #P Geom=AllCheck Guess=TCheck SCRF=Check GenChk UB3LYP/6-311++G(d,p) F
 req
 ----------------------------------------------------------------------

 Structure from the checkpoint file:  "310-rad.chk"
 -------
 Radical
 -------
 Charge = -1 Multiplicity = 2

                          Input orientation:
 ---------------------------------------------------------------------
 Center     Atomic      Atomic             Coordinates (Angstroms)
 Number     Number       Type             X           Y           Z
 ---------------------------------------------------------------------
      1          8           0       -2.210528   -2.069764    0.205975
      2          6           0       -1.661284   -0.834738    0.099521
      3          6           0       -2.493136    0.281370    0.031669
      4          6           0       -1.958183    1.566981   -0.078370
      5          6           0       -0.579425    1.765158   -0.122999
      6          8           0       -0.090363    3.025165   -0.229971
      7          6           0        0.292495    0.648512   -0.055982
      8          6           0        1.738134    0.849997   -0.102320
      9          8           0        2.240570    2.024349   -0.202981
     10          6           0        2.558636   -0.318723   -0.030295
     11          6           0        2.030912   -1.586952    0.078205
     12          6           0        0.622832   -1.830298    0.126987
     13          8           0        0.143883   -3.014396    0.227978
     14          6           0       -0.253873   -0.664532    0.056409
     15          1           0       -1.424540   -2.696352    0.237279
     16          1           0       -3.566347    0.128177    0.066331
     17          1           0       -2.606453    2.434980   -0.131075
     18          1           0        0.908615    2.910295   -0.242197
     19          1           0        3.632156   -0.160572   -0.065365
     20          1           0        2.675900   -2.458659    0.131200
 ---------------------------------------------------------------------

 SCF Done:  E(UB3LYP) =  -685.862729271     A.U. after    1 cycles

 Alpha  occ. eigenvalues --  -19.00267 -19.00266 -18.96369 -18.96368 -10.10696
 Alpha  occ. eigenvalues --  -10.10695 -10.10690 -10.10689 -10.05405 -10.05362
 Alpha  occ. eigenvalues --  -10.05237 -10.05184 -10.04814 -10.04754  -0.92561
 Alpha  occ. eigenvalues --   -0.92395  -0.87759  -0.87572  -0.73212  -0.68610
 Alpha  occ. eigenvalues --   -0.62681  -0.61251  -0.56018  -0.51278  -0.49623
 Alpha  occ. eigenvalues --   -0.46052  -0.39877  -0.38645  -0.38622  -0.37760
 Alpha  occ. eigenvalues --   -0.34951  -0.31328  -0.31108  -0.30031  -0.28882
 Alpha  occ. eigenvalues --   -0.28616  -0.27463  -0.27293  -0.26307  -0.25880
 Alpha  occ. eigenvalues --   -0.24126  -0.23771  -0.22454  -0.18241  -0.15842
 Alpha  occ. eigenvalues --   -0.13482  -0.13255  -0.12217  -0.09003  -0.03264
 Alpha virt. eigenvalues --    0.09367   0.09805   0.09815   0.10279   0.11430
 Alpha virt. eigenvalues --    0.12220   0.12736   0.14508   0.15772   0.16245
 Alpha virt. eigenvalues --    0.17076   0.18238   0.18327   0.18434   0.18920

  Beta  occ. eigenvalues --  -19.00213 -19.00212 -18.95800 -18.95799 -10.10647
  Beta  occ. eigenvalues --  -10.10646 -10.10534 -10.10533 -10.05424 -10.05380
  Beta  occ. eigenvalues --  -10.05157 -10.05104 -10.04649 -10.04587  -0.92372
  Beta  occ. eigenvalues --   -0.92210  -0.86842  -0.86631  -0.72982  -0.68073
  Beta  occ. eigenvalues --   -0.62477  -0.60956  -0.55176  -0.50941  -0.49419
  Beta  occ. eigenvalues --   -0.45872  -0.39727  -0.38524  -0.38395  -0.37449
  Beta  occ. eigenvalues --   -0.34733  -0.31091  -0.30345  -0.29755  -0.28788
  Beta  occ. eigenvalues --   -0.28186  -0.27068  -0.26593  -0.25718  -0.24862
  Beta  occ. eigenvalues --   -0.23591  -0.22305  -0.22107  -0.17552  -0.13224
  Beta  occ. eigenvalues --   -0.12965  -0.12758  -0.11758  -0.07849
  Beta virt. eigenvalues --    0.02884   0.09370   0.09812   0.10963   0.11442
  Beta virt. eigenvalues --    0.11589   0.12237   0.12758   0.14524   0.15970
  Beta virt. eigenvalues --    0.16289   0.17097   0.18436   0.18518   0.19270

 Mulliken charges and spin densities:
               1          2
     1  O   -0.380460   0.017109
     2  C   -0.323672   0.054373
     3  C    0.105995   0.057018
     4  C    0.105890   0.057014
     5  C   -0.323568   0.054365
     6  O   -0.380486   0.017112
     7  C    0.464237  -0.004716
     8  C   -0.495972   0.086757
     9  O   -0.454010   0.204615
    10  C   -0.060906   0.105381
    11  C   -0.060792   0.105391
    12  C   -0.495852   0.086744
    13  O   -0.454013   0.204631
    14  C    0.464146  -0.004714
    15  H    0.344291  -0.004869
    16  H    0.149849  -0.004822
    17  H    0.149848  -0.004822
    18  H    0.344345  -0.004871
    19  H    0.150563  -0.010846
    20  H    0.150567  -0.010847
 Sum of Mulliken charges =  -1.00000   1.00000

 Dipole moment (field-independent basis, Debye):
    X=             -1.0115    Y=              0.4195    Z=             -0.0102  Tot=              1.0951
 Quadrupole moment (field-independent basis, Debye-Ang):
   XX=            -98.2580   YY=           -119.1139   ZZ=            -85.9519
   XY=            -10.5046   XZ=              1.0734   YZ=              2.7853

  Exact polarizability: 198.503  -3.971 190.341  -2.376  -8.912  73.718
 Approx polarizability: 329.912   7.311 343.984  -5.189 -17.848 114.694

                      1                      2                      3
                      A                      A                      A
 Frequencies --    106.6857               116.6956               159.1273
 Red. masses --     12.1713                 5.4467                 8.4606
 Frc consts  --      0.0816                 0.0437                 0.1262
 IR Inten    --      0.0000                 4.5812                 0.0095

                      4                      5                      6
                      A                      A                      A
 Frequencies --    196.9315               316.2612               341.3444
 Red. masses --      6.7741                 7.0149                 5.4700
 Frc consts  --      0.1548                 0.4134                 0.3755
 IR Inten    --      0.2317                 1.7989                 0.0000

                      7                      8                      9
                      A                      A                      A
 Frequencies --    376.0120               379.7243               405.8706
 Red. masses --      6.6372                 6.3911                10.7422
 Frc consts  --      0.5529                 0.5430                 1.0426
 IR Inten    --      0.0000                17.4554                 1.8576

                     10                     11                     12
                      A                      A                      A
 Frequencies --    430.4190               457.0202               464.7967
 Red. masses --     11.1541                 4.8402                10.9796
 Frc consts  --      1.2175                 0.5956                 1.3975
 IR Inten    --      3.0221                 0.0000                11.9218

                     13                     14                     15
                      A                      A                      A
 Frequencies --    472.3170               510.8671               534.7628
 Red. masses --      9.8839                 5.2042                 2.9985
 Frc consts  --      1.2991                 0.8002                 0.5052
 IR Inten    --      3.1553                 4.8779                 0.2093

                     16                     17                     18
                      A                      A                      A
 Frequencies --    632.3732               653.5293               655.2809
 Red. masses --      7.9470                 5.8106                 4.1047
 Frc consts  --      1.8724                 1.4622                 1.0384
 IR Inten    --     10.4424                 0.0005                25.8859

                     19                     20                     21
                      A                      A                      A
 Frequencies --    663.3264               734.1047               747.3360
 Red. masses --      2.4399                 9.0321                 7.1322
 Frc consts  --      0.6325                 2.8678                 2.3470
 IR Inten    --     25.9499                 0.0000                 3.6198

                     22                     23                     24
                      A                      A                      A
 Frequencies --    765.6731               811.5585               827.6614
 Red. masses --      6.4179                 1.5825                 2.0845
 Frc consts  --      2.2168                 0.6141                 0.8413
 IR Inten    --     31.9102                11.1823                73.2616

                     25                     26                     27
                      A                      A                      A
 Frequencies --    902.5358               923.7538               926.5325
 Red. masses --      1.2892                 1.2561                 1.0651
 Frc consts  --      0.6187                 0.6315                 0.5387
 IR Inten    --      0.0004                 0.0324                 9.7672

                     28                     29                     30
                      A                      A                      A
 Frequencies --    927.3402               946.2595               972.1205
 Red. masses --      1.0558                 7.5188                 5.2100
 Frc consts  --      0.5349                 3.9666                 2.9009
 IR Inten    --    139.5623                81.0532                14.5102

                     31                     32                     33
                      A                      A                      A
 Frequencies --   1096.7590              1137.3270              1151.4210
 Red. masses --      1.4118                 2.6694                 1.2733
 Frc consts  --      1.0006                 2.0344                 0.9946
 IR Inten    --      4.9573                11.0955                38.2047

                     34                     35                     36
                      A                      A                      A
 Frequencies --   1263.3644              1267.2161              1277.8809
 Red. masses --      4.2855                 1.7839                 5.9988
 Frc consts  --      4.0300                 1.6878                 5.7716
 IR Inten    --      1.1038               200.8140                 1.4301

                     37                     38                     39
                      A                      A                      A
 Frequencies --   1296.7691              1302.6723              1384.2403
 Red. masses --      3.1505                 5.0774                 5.1807
 Frc consts  --      3.1214                 5.0765                 5.8488
 IR Inten    --     37.1480                87.6172                 1.4832

                     40                     41                     42
                      A                      A                      A
 Frequencies --   1406.8221              1432.8414              1433.4920
 Red. masses --      2.1021                 8.1023                 8.7317
 Frc consts  --      2.4512                 9.8007                10.5715
 IR Inten    --    108.2955               144.4063                 1.5690

                     43                     44                     45
                      A                      A                      A
 Frequencies --   1509.4682              1527.9843              1549.1136
 Red. masses --      2.0485                 3.2123                 5.1455
 Frc consts  --      2.7500                 4.4188                 7.2752
 IR Inten    --    667.5361                27.4958               337.2823

                     46                     47                     48
                      A                      A                      A
 Frequencies --   1606.3455              1651.9858              1658.4785
 Red. masses --      1.8609                 5.9410                 2.5387
 Frc consts  --      2.8291                 9.5526                 4.1142
 IR Inten    --    104.6966                 2.1493                 0.2305

                     49                     50                     51
                      A                      A                      A
 Frequencies --   2981.2062              2989.9277              3147.1590
 Red. masses --      1.0725                 1.0731                 1.0854
 Frc consts  --      5.6159                 5.6524                 6.3341
 IR Inten    --      0.8022               550.9763                20.2310

                     52                     53                     54
                      A                      A                      A
 Frequencies --   3160.2523              3166.9941              3177.5503
 Red. masses --      1.0864                 1.0940                 1.0937
 Frc consts  --      6.3928                 6.4647                 6.5065
 IR Inten    --     17.5700                35.5072                28.3713

 - Thermochemistry -
 -------------------
 Temperature   298.150 Kelvin.  Pressure   1.00000 Atm.
 Atom     1 has atomic number  8 and mass  15.99491

 Molecular mass:   190.02661 amu.
 Principal axes and moments of inertia in atomic units:
                           1         2         3
     Eigenvalues --  1825.332122299.176174124.50828
           X            0.38299   0.92350   0.02130
           Y            0.92039  -0.38346   0.07642
           Z           -0.07874   0.00966   0.99685
 This molecule is an asymmetric top.
 Rotational symmetry number  1.
 Warning -- assumption of classical behavior for rotation
           may cause significant error
 Rotational temperatures (Kelvin)      0.04745     0.03767     0.02100
 Rotational constants (GHZ):           0.98872     0.78495     0.43757
 Zero-point vibrational energy     364475.2 (Joules/Mol)
                                   87.11166 (Kcal/Mol)
 Warning -- explicit consideration of  15 degrees of freedom as
           vibrations may cause significant error
 Vibrational temperatures:    153.50   167.90   228.95   283.34   455.03
          (Kelvin)            491.12   541.00   546.34   583.96   619.28
                              657.55   668.74   679.56   735.02   769.40
                              909.84   940.28   942.80   954.38  1056.21
                             1075.25  1101.63  1167.65  1190.82  1298.55
                             1329.08  1333.07  1334.24  1361.46  1398.66
                             1577.99  1636.36  1656.64  1817.70  1823.24
                             1838.59  1865.76  1874.25  1991.61  2024.10
                             2061.54  2062.48  2171.79  2198.43  2228.83
                             2311.17  2376.84  2386.18  4289.29  4301.84
                             4528.06  4546.90  4556.60  4571.79

 Zero-point correction=                           0.138821 (Hartree/Particle)
 Thermal correction to Energy=                    0.148891
 Thermal correction to Enthalpy=                  0.149835
 Thermal correction to Gibbs Free Energy=         0.102735
 Sum of electronic and zero-point Energies=           -685.723908
 Sum of electronic and thermal Energies=              -685.713838
 Sum of electronic and thermal Enthalpies=            -685.712894
 Sum of electronic and thermal Free Energies=         -685.759994

                     E (Thermal)             CV                S
                      KCal/Mol        Cal/Mol-Kelvin    Cal/Mol-Kelvin
 Total                   93.430             41.296             99.130
 Electronic               0.000              0.000              1.377
 Translational            0.889              2.981             41.632
 Rotational               0.889              2.981             31.227
 Vibrational             91.653             35.335             24.894
 Vibration     1          0.606              1.944              3.328
 Vibration     2          0.608              1.936              3.154
 Vibration     3          0.621              1.892              2.560
 Vibration     4          0.636              1.844              2.162
 Vibration     5          0.703              1.643              1.329
 Vibration     6          0.721              1.593              1.206
 Vibration     7          0.747              1.521              1.055
 Vibration     8          0.750              1.513              1.040
 Vibration     9          0.771              1.457              0.941
 Vibration    10          0.792              1.404              0.857
 Vibration    11          0.815              1.345              0.775
 Vibration    12          0.822              1.328              0.752
 Vibration    13          0.829              1.311              0.731
 Vibration    14          0.866              1.226              0.632
 Vibration    15          0.890              1.173              0.577

 Optimization completed.
    -- Stationary point found.
 Normal termination of Gaussian 16 at Mon Jan  8 21:50:35 2024.
