 Q-Chem 5.4, Q-Chem, Inc., Pleasanton, CA (2021)
 Q-Chem 5.4.0 for Intel X86 EM64T Linux

User input:
--------------------------------------------------------------
$molecule
0 1
C                  5.7783550000     -5.7449950000      0.4324750000
C                  5.8915460000     -5.9159770000     -0.9433700000
C                  5.1955730000     -5.0741980000     -1.8150200000
C                  4.9667200000     -4.7291320000      0.9431690000
C                  4.2694010000     -3.8846790000      0.0696640000
C                  4.3866830000     -4.0607550000     -1.3113430000
C                  4.8419270000     -4.5466070000      2.4156380000
C                  3.9604220000     -3.4562570000      2.9366320000
C                  3.3018370000     -2.6215980000      2.0932030000
C                  3.4057650000     -2.7967500000      0.6088090000
O                  5.4459840000     -5.2704850000      3.1931950000
O                  2.7906970000     -2.0574410000     -0.1453280000
H                  6.5211840000     -6.7044720000     -1.3397660000
C                  2.4003960000     -1.4992990000      2.5429810000
H                  5.2861090000     -5.2105600000     -2.8867100000
C                  3.8945740000     -3.3811420000      4.4362240000
C                  0.9301720000     -1.9405310000      2.7060350000
C                  0.0104290000     -0.7867590000      3.1192160000
C                 -1.4544440000     -1.2070390000      3.2843080000
H                  6.3083510000     -6.3856520000      1.1264010000
H                  3.8391670000     -3.3968460000     -1.9687740000
H                  2.4419670000     -0.7063470000      1.7934000000
H                  2.7625620000     -1.0784780000      3.4836170000
H                  3.6258640000     -4.3569530000      4.8482140000
H                  3.1782600000     -2.6415900000      4.7859810000
H                  4.8801190000     -3.1434770000      4.8481100000
H                  0.8711180000     -2.7435980000      3.4503750000
H                  0.5805810000     -2.3655550000      1.7593980000
H                  0.0767290000      0.0117220000      2.3697560000
H                  0.3712460000     -0.3526310000      4.0609490000
H                 -1.5197410000     -2.0087190000      4.0313910000
H                 -1.8137230000     -1.6398390000      2.3419650000
C                 -2.3790050000     -0.0558650000      3.6966590000
C                 -3.8447770000     -0.4739980000      3.8591000000
C                 -4.7703000000      0.6769200000      4.2697270000
C                 -6.2363180000      0.2592000000      4.4314530000
C                 -7.1622890000      1.4097590000      4.8413550000
H                 -2.3123320000      0.7459430000      2.9500060000
H                 -2.0197580000      0.3769470000      4.6394150000
H                 -3.9115520000     -1.2757750000      4.6060010000
H                 -4.2033330000     -0.9074310000      2.9164690000
H                 -4.7032210000      1.4786130000      3.5228400000
H                 -4.4118520000      1.1104600000      5.2124470000
H                 -6.3035220000     -0.5424260000      5.1785110000
H                 -6.5945550000     -0.1745470000      3.4887540000
H                 -7.0957960000      2.2119930000      4.0947040000
H                 -6.8052400000      1.8439180000      5.7845130000
C                 -8.6287260000      0.9932540000      5.0027230000
C                 -9.5458420000      2.1494120000      5.4122580000
H                 -8.6958490000      0.1922500000      5.7490980000
H                 -8.9860970000      0.5602340000      4.0604160000
H                 -9.2352390000      2.5808910000      6.3691850000
H                -10.5830500000      1.8193430000      5.5184800000
H                 -9.5274960000      2.9516820000      4.6677000000
$end

$rem
BASIS  =  6-311++G(d,p)
GUI  =  2
JOB_TYPE  =  SP
METHOD  =  B3LYP
SCF_CONVERGENCE  = 8
SOLVENT_METHOD = sm12
$end

$smx
solvent dimethylformamide
charges CM5
$end

--------------------------------------------------------------

             Standard Nuclear Orientation (Angstroms)
    I     Atom           X                Y                Z
 ----------------------------------------------------------------
    1      C       5.7783550000    -5.7449950000     0.4324750000
    2      C       5.8915460000    -5.9159770000    -0.9433700000
    3      C       5.1955730000    -5.0741980000    -1.8150200000
    4      C       4.9667200000    -4.7291320000     0.9431690000
    5      C       4.2694010000    -3.8846790000     0.0696640000
    6      C       4.3866830000    -4.0607550000    -1.3113430000
    7      C       4.8419270000    -4.5466070000     2.4156380000
    8      C       3.9604220000    -3.4562570000     2.9366320000
    9      C       3.3018370000    -2.6215980000     2.0932030000
   10      C       3.4057650000    -2.7967500000     0.6088090000
   11      O       5.4459840000    -5.2704850000     3.1931950000
   12      O       2.7906970000    -2.0574410000    -0.1453280000
   13      H       6.5211840000    -6.7044720000    -1.3397660000
   14      C       2.4003960000    -1.4992990000     2.5429810000
   15      H       5.2861090000    -5.2105600000    -2.8867100000
   16      C       3.8945740000    -3.3811420000     4.4362240000
   17      C       0.9301720000    -1.9405310000     2.7060350000
   18      C       0.0104290000    -0.7867590000     3.1192160000
   19      C      -1.4544440000    -1.2070390000     3.2843080000
   20      H       6.3083510000    -6.3856520000     1.1264010000
   21      H       3.8391670000    -3.3968460000    -1.9687740000
   22      H       2.4419670000    -0.7063470000     1.7934000000
   23      H       2.7625620000    -1.0784780000     3.4836170000
   24      H       3.6258640000    -4.3569530000     4.8482140000
   25      H       3.1782600000    -2.6415900000     4.7859810000
   26      H       4.8801190000    -3.1434770000     4.8481100000
   27      H       0.8711180000    -2.7435980000     3.4503750000
   28      H       0.5805810000    -2.3655550000     1.7593980000
   29      H       0.0767290000     0.0117220000     2.3697560000
   30      H       0.3712460000    -0.3526310000     4.0609490000
   31      H      -1.5197410000    -2.0087190000     4.0313910000
   32      H      -1.8137230000    -1.6398390000     2.3419650000
   33      C      -2.3790050000    -0.0558650000     3.6966590000
   34      C      -3.8447770000    -0.4739980000     3.8591000000
   35      C      -4.7703000000     0.6769200000     4.2697270000
   36      C      -6.2363180000     0.2592000000     4.4314530000
   37      C      -7.1622890000     1.4097590000     4.8413550000
   38      H      -2.3123320000     0.7459430000     2.9500060000
   39      H      -2.0197580000     0.3769470000     4.6394150000
   40      H      -3.9115520000    -1.2757750000     4.6060010000
   41      H      -4.2033330000    -0.9074310000     2.9164690000
   42      H      -4.7032210000     1.4786130000     3.5228400000
   43      H      -4.4118520000     1.1104600000     5.2124470000
   44      H      -6.3035220000    -0.5424260000     5.1785110000
   45      H      -6.5945550000    -0.1745470000     3.4887540000
   46      H      -7.0957960000     2.2119930000     4.0947040000
   47      H      -6.8052400000     1.8439180000     5.7845130000
   48      C      -8.6287260000     0.9932540000     5.0027230000
   49      C      -9.5458420000     2.1494120000     5.4122580000
   50      H      -8.6958490000     0.1922500000     5.7490980000
   51      H      -8.9860970000     0.5602340000     4.0604160000
   52      H      -9.2352390000     2.5808910000     6.3691850000
   53      H     -10.5830500000     1.8193430000     5.5184800000
   54      H      -9.5274960000     2.9516820000     4.6677000000
 ----------------------------------------------------------------

   15   -1007.1603214124      6.87e-09  Convergence criterion met
 Total energy in the final basis set =    -1007.1837980866

                    Orbital Energies (a.u.)
 --------------------------------------------------------------

 Alpha MOs
 -- Occupied --
-19.1285 -19.1281 -10.2772 -10.2764 -10.2112 -10.2087 -10.2045 -10.2040
-10.1959 -10.1955 -10.1951 -10.1949 -10.1747 -10.1706 -10.1693 -10.1654
-10.1635 -10.1635 -10.1629 -10.1624 -10.1623 -10.1620 -10.1618 -10.1576
 -1.0624  -1.0606  -0.8875  -0.8511  -0.8163  -0.8048  -0.7894  -0.7784
 -0.7752  -0.7570  -0.7317  -0.7082  -0.6829  -0.6721  -0.6446  -0.6264
 -0.6101  -0.5932  -0.5819  -0.5807  -0.5763  -0.5743  -0.5483  -0.5164
 -0.4963  -0.4892  -0.4797  -0.4719  -0.4600  -0.4577  -0.4536  -0.4500
 -0.4488  -0.4370  -0.4316  -0.4301  -0.4241  -0.4222  -0.4120  -0.4106
 -0.4019  -0.4006  -0.3938  -0.3885  -0.3830  -0.3788  -0.3730  -0.3694
 -0.3659  -0.3579  -0.3511  -0.3438  -0.3387  -0.3356  -0.3306  -0.3272
 -0.3256  -0.3237  -0.3231  -0.3035  -0.2871  -0.2842  -0.2761  -0.2689
 -0.2679

          Ground-State Mulliken Net Atomic Charges

     Atom                 Charge (a.u.)
  ----------------------------------------
      1 C                     0.136283
      2 C                     0.217292
      3 C                     0.294984
      4 C                    -0.606285
      5 C                    -0.687441
      6 C                     0.086947
      7 C                    -1.097481
      8 C                     0.684093
      9 C                     1.267219
     10 C                    -1.533467
     11 O                    -0.279161
     12 O                    -0.259779
     13 H                     0.315942
     14 C                    -0.224575
     15 H                     0.315069
     16 C                     0.164410
     17 C                    -0.776544
     18 C                     0.085544
     19 C                     0.048146
     20 H                     0.189663
     21 H                     0.189134
     22 H                     0.180836
     23 H                     0.279033
     24 H                     0.171717
     25 H                     0.254535
     26 H                     0.199426
     27 H                     0.131847
     28 H                     0.122262
     29 H                     0.096454
     30 H                     0.118624
     31 H                     0.114759
     32 H                     0.103442
     33 C                     0.126269
     34 C                     0.001098
     35 C                    -0.150971
     36 C                    -0.397319
     37 C                    -0.644776
     38 H                     0.112262
     39 H                     0.115272
     40 H                     0.113145
     41 H                     0.109795
     42 H                     0.113442
     43 H                     0.115256
     44 H                     0.113912
     45 H                     0.113855
     46 H                     0.106282
     47 H                     0.107156
     48 C                    -0.386454
     49 C                    -0.675611
     50 H                     0.130019
     51 H                     0.129100
     52 H                     0.141987
     53 H                     0.161557
     54 H                     0.141794
  ----------------------------------------
  Sum of atomic charges =     0.000000

                    Cartesian Multipole Moments
 -----------------------------------------------------------------
    Charge (ESU x 10^10)
                -0.0000
    Dipole Moment (Debye)
         X       0.0031      Y      -0.3457      Z      -0.5311
       Tot       0.6337
    Quadrupole Moments (Debye-Ang)
        XX    -150.2574     XY      -1.8338     YY    -148.9351
        XZ     -12.2474     YZ      13.8734     ZZ    -142.3552

 Total job time:  2551.08s(wall), 18957.52s(cpu)
        *  Thank you very much for using Q-Chem.  Have a nice day.  *
