 Q-Chem 5.4, Q-Chem, Inc., Pleasanton, CA (2021)
 Q-Chem 5.4.0 for Intel X86 EM64T Linux

User input:
--------------------------------------------------------------
$molecule
0 1
C                 -0.02189300    4.08932500    0.78779100
C                 -1.14428500    4.05893800   -0.03409000
C                 -1.11085400    3.34717000   -1.23463800
C                  1.13465200    3.40526800    0.40578100
C                  1.17144000    2.68848200   -0.80150500
C                  0.04219300    2.66460100   -1.61805900
C                  2.33213900    3.42771000    1.26523100
C                  3.53874500    2.67666900    0.81337000
C                  3.60169200    1.98623600   -0.35178100
C                  2.40963400    1.94910000   -1.22478100
O                  2.39971800    4.02677100    2.33274400
O                  2.42300400    1.33059000   -2.28001900
O                  4.57478800    2.74796200    1.66497300
C                  4.82819200    1.22869300   -0.77635400
C                  4.80106500   -0.24974000   -0.33242200
C                  6.04699800   -1.02034500   -0.78083900
C                  6.04010400   -2.49037400   -0.34660800
C                  7.28235800   -3.26739100   -0.79709700
C                  7.27606400   -4.73799900   -0.36471400
C                  8.51488600   -5.51627100   -0.82159500
C                  8.50811500   -6.98704500   -0.38891000
C                  9.74839000   -7.75804600   -0.85486200
C                  9.72764700   -9.21378300   -0.41557800
H                 -0.02341700    4.63483900    1.72352100
H                 -2.04378400    4.58798700    0.25865200
H                 -1.98639400    3.32469700   -1.87357800
H                  0.08519200    2.10804500   -2.54601100
H                  4.27728900    3.31003600    2.40558100
H                  5.71274300    1.71531600   -0.35754800
H                  4.90017200    1.26935200   -1.86605100
H                  3.90626800   -0.72878700   -0.74368700
H                  4.71376400   -0.29534400    0.75906400
H                  6.94213300   -0.52793500   -0.37948600
H                  6.13115000   -0.96533400   -1.87357400
H                  5.14270300   -2.98047400   -0.74547400
H                  5.95600000   -2.54454800    0.74651400
H                  8.18015200   -2.77709800   -0.39899400
H                  7.36600900   -3.21238600   -1.89015000
H                  6.37595400   -5.22680500   -0.75953200
H                  7.19658100   -4.79325100    0.72877400
H                  9.41551800   -5.02843200   -0.42760500
H                  8.59376300   -5.46228000   -1.91483500
H                  7.60549700   -7.47311000   -0.78105300
H                  8.43260200   -7.03988600    0.70485000
H                 10.65440500   -7.28571600   -0.46047500
H                  9.82409700   -7.72252800   -1.94686600
H                  8.84632800   -9.72786300   -0.82117000
H                  9.68992500   -9.28698000    0.67927500
O                 10.91651800   -9.83788600   -0.90079700
C                 11.12769300  -11.16102700   -0.63075700
C                 10.25746200  -11.97338100    0.10153800
C                 12.30931300  -11.71076800   -1.13767600
C                 10.57918100  -13.31478700    0.31705500
H                  9.33501200  -11.57940800    0.50677200
C                 12.60785500  -13.04842100   -0.91361400
H                 12.97854800  -11.07353700   -1.70369400
C                 11.75308200  -13.88391600   -0.18170100
H                  9.88594400  -13.92164100    0.89050000
H                 13.52974800  -13.45526500   -1.31798000
C                 12.09788600  -15.34473400    0.04525700
C                 12.33972700  -15.67570900    1.54585600
H                 11.65416600  -15.08840300    2.16404000
H                 13.34874500  -15.34748300    1.81657800
C                 12.16413400  -17.17812200    1.86709300
H                 11.12413700  -17.37907500    2.15048600
H                 12.77226200  -17.44701400    2.73603000
C                 12.52438500  -18.05303900    0.66113700
H                 12.49033400  -19.11331700    0.92864700
H                 13.56074800  -17.84654600    0.36905500
C                 11.57475700  -17.77400500   -0.52760600
H                 10.72148200  -18.45918000   -0.48878900
H                 12.09573100  -17.98767400   -1.46667500
C                 11.05366400  -16.31757900   -0.54112100
H                 10.79264900  -16.01912000   -1.56014900
H                 10.12992700  -16.24440300    0.04416700
H                 13.03601900  -15.52974400   -0.49164300
$end

$rem
SMX_GAS_PHASE = true
BASIS  =  6-311++G(d,p)
GUI  =  2
JOB_TYPE  =  SP
METHOD  =  B3LYP
SCF_CONVERGENCE  = 8
SOLVENT_METHOD = sm12
$end

$smx
solvent dimethylformamide
charges CM5
$end

--------------------------------------------------------------

             Standard Nuclear Orientation (Angstroms)
    I     Atom           X                Y                Z
 ----------------------------------------------------------------
    1      C      -0.0218930000     4.0893250000     0.7877910000
    2      C      -1.1442850000     4.0589380000    -0.0340900000
    3      C      -1.1108540000     3.3471700000    -1.2346380000
    4      C       1.1346520000     3.4052680000     0.4057810000
    5      C       1.1714400000     2.6884820000    -0.8015050000
    6      C       0.0421930000     2.6646010000    -1.6180590000
    7      C       2.3321390000     3.4277100000     1.2652310000
    8      C       3.5387450000     2.6766690000     0.8133700000
    9      C       3.6016920000     1.9862360000    -0.3517810000
   10      C       2.4096340000     1.9491000000    -1.2247810000
   11      O       2.3997180000     4.0267710000     2.3327440000
   12      O       2.4230040000     1.3305900000    -2.2800190000
   13      O       4.5747880000     2.7479620000     1.6649730000
   14      C       4.8281920000     1.2286930000    -0.7763540000
   15      C       4.8010650000    -0.2497400000    -0.3324220000
   16      C       6.0469980000    -1.0203450000    -0.7808390000
   17      C       6.0401040000    -2.4903740000    -0.3466080000
   18      C       7.2823580000    -3.2673910000    -0.7970970000
   19      C       7.2760640000    -4.7379990000    -0.3647140000
   20      C       8.5148860000    -5.5162710000    -0.8215950000
   21      C       8.5081150000    -6.9870450000    -0.3889100000
   22      C       9.7483900000    -7.7580460000    -0.8548620000
   23      C       9.7276470000    -9.2137830000    -0.4155780000
   24      H      -0.0234170000     4.6348390000     1.7235210000
   25      H      -2.0437840000     4.5879870000     0.2586520000
   26      H      -1.9863940000     3.3246970000    -1.8735780000
   27      H       0.0851920000     2.1080450000    -2.5460110000
   28      H       4.2772890000     3.3100360000     2.4055810000
   29      H       5.7127430000     1.7153160000    -0.3575480000
   30      H       4.9001720000     1.2693520000    -1.8660510000
   31      H       3.9062680000    -0.7287870000    -0.7436870000
   32      H       4.7137640000    -0.2953440000     0.7590640000
   33      H       6.9421330000    -0.5279350000    -0.3794860000
   34      H       6.1311500000    -0.9653340000    -1.8735740000
   35      H       5.1427030000    -2.9804740000    -0.7454740000
   36      H       5.9560000000    -2.5445480000     0.7465140000
   37      H       8.1801520000    -2.7770980000    -0.3989940000
   38      H       7.3660090000    -3.2123860000    -1.8901500000
   39      H       6.3759540000    -5.2268050000    -0.7595320000
   40      H       7.1965810000    -4.7932510000     0.7287740000
   41      H       9.4155180000    -5.0284320000    -0.4276050000
   42      H       8.5937630000    -5.4622800000    -1.9148350000
   43      H       7.6054970000    -7.4731100000    -0.7810530000
   44      H       8.4326020000    -7.0398860000     0.7048500000
   45      H      10.6544050000    -7.2857160000    -0.4604750000
   46      H       9.8240970000    -7.7225280000    -1.9468660000
   47      H       8.8463280000    -9.7278630000    -0.8211700000
   48      H       9.6899250000    -9.2869800000     0.6792750000
   49      O      10.9165180000    -9.8378860000    -0.9007970000
   50      C      11.1276930000   -11.1610270000    -0.6307570000
   51      C      10.2574620000   -11.9733810000     0.1015380000
   52      C      12.3093130000   -11.7107680000    -1.1376760000
   53      C      10.5791810000   -13.3147870000     0.3170550000
   54      H       9.3350120000   -11.5794080000     0.5067720000
   55      C      12.6078550000   -13.0484210000    -0.9136140000
   56      H      12.9785480000   -11.0735370000    -1.7036940000
   57      C      11.7530820000   -13.8839160000    -0.1817010000
   58      H       9.8859440000   -13.9216410000     0.8905000000
   59      H      13.5297480000   -13.4552650000    -1.3179800000
   60      C      12.0978860000   -15.3447340000     0.0452570000
   61      C      12.3397270000   -15.6757090000     1.5458560000
   62      H      11.6541660000   -15.0884030000     2.1640400000
   63      H      13.3487450000   -15.3474830000     1.8165780000
   64      C      12.1641340000   -17.1781220000     1.8670930000
   65      H      11.1241370000   -17.3790750000     2.1504860000
   66      H      12.7722620000   -17.4470140000     2.7360300000
   67      C      12.5243850000   -18.0530390000     0.6611370000
   68      H      12.4903340000   -19.1133170000     0.9286470000
   69      H      13.5607480000   -17.8465460000     0.3690550000
   70      C      11.5747570000   -17.7740050000    -0.5276060000
   71      H      10.7214820000   -18.4591800000    -0.4887890000
   72      H      12.0957310000   -17.9876740000    -1.4666750000
   73      C      11.0536640000   -16.3175790000    -0.5411210000
   74      H      10.7926490000   -16.0191200000    -1.5601490000
   75      H      10.1299270000   -16.2444030000     0.0441670000
   76      H      13.0360190000   -15.5297440000    -0.4916430000
 ----------------------------------------------------------------

   15   -1544.8382779723      8.32e-09  Convergence criterion met
 Total energy in the final basis set =    -1544.8382779723
   10   -1544.8368866221      8.78e-09  Convergence criterion met
 Total energy in the final basis set =    -1544.8741624476

                    Orbital Energies (a.u.)
 --------------------------------------------------------------

 Alpha MOs
 -- Occupied --
-19.1788 -19.1513 -19.1484 -19.1259 -10.2922 -10.2781 -10.2671 -10.2364
-10.2223 -10.2106 -10.2092 -10.2041 -10.2006 -10.1987 -10.1970 -10.1968
-10.1787 -10.1782 -10.1777 -10.1772 -10.1767 -10.1766 -10.1735 -10.1688
-10.1657 -10.1657 -10.1656 -10.1652 -10.1645 -10.1644 -10.1638 -10.1635
-10.1624 -10.1622 -10.1617 -10.1615  -1.1088  -1.0668  -1.0666  -1.0592
 -0.8920  -0.8648  -0.8445  -0.8323  -0.8162  -0.8053  -0.7906  -0.7795
 -0.7759  -0.7639  -0.7544  -0.7418  -0.7394  -0.7200  -0.7040  -0.6874
 -0.6651  -0.6530  -0.6350  -0.6311  -0.6162  -0.6135  -0.6053  -0.5992
 -0.5855  -0.5826  -0.5773  -0.5760  -0.5732  -0.5419  -0.5400  -0.5289
 -0.5177  -0.4985  -0.4968  -0.4952  -0.4866  -0.4836  -0.4778  -0.4724
 -0.4722  -0.4652  -0.4633  -0.4533  -0.4521  -0.4479  -0.4385  -0.4371
 -0.4333  -0.4328  -0.4308  -0.4263  -0.4223  -0.4137  -0.4124  -0.4090
 -0.4034  -0.4026  -0.3963  -0.3926  -0.3837  -0.3802  -0.3780  -0.3754
 -0.3749  -0.3717  -0.3681  -0.3633  -0.3622  -0.3596  -0.3543  -0.3534
 -0.3483  -0.3457  -0.3354  -0.3322  -0.3286  -0.3262  -0.3248  -0.3230
 -0.3195  -0.3087  -0.3082  -0.3015  -0.3012  -0.3007  -0.2888  -0.2791
 -0.2763  -0.2615  -0.2570  -0.2229

          Ground-State Mulliken Net Atomic Charges

     Atom                 Charge (a.u.)
  ----------------------------------------
      1 C                     0.408636
      2 C                     0.372092
      3 C                     0.446792
      4 C                     0.280489
      5 C                    -0.500658
      6 C                     0.005711
      7 C                    -1.019283
      8 C                    -0.614533
      9 C                     1.437837
     10 C                    -1.509913
     11 O                    -0.293898
     12 O                    -0.281727
     13 O                    -0.196427
     14 C                    -0.164077
     15 C                    -0.646609
     16 C                    -0.068299
     17 C                    -0.127590
     18 C                    -0.226435
     19 C                    -0.323033
     20 C                    -0.379203
     21 C                     0.386523
     22 C                    -0.367716
     23 C                    -0.114902
     24 H                     0.219460
     25 H                     0.326524
     26 H                     0.317933
     27 H                     0.181514
     28 H                     0.293628
     29 H                     0.229338
     30 H                     0.181660
     31 H                     0.114651
     32 H                     0.140807
     33 H                     0.104562
     34 H                     0.104241
     35 H                     0.105765
     36 H                     0.108728
     37 H                     0.112316
     38 H                     0.111299
     39 H                     0.110443
     40 H                     0.113163
     41 H                     0.109463
     42 H                     0.108420
     43 H                     0.120040
     44 H                     0.121206
     45 H                     0.127532
     46 H                     0.127835
     47 H                     0.206529
     48 H                     0.207290
     49 O                    -0.105204
     50 C                    -0.447798
     51 C                     0.162326
     52 C                    -0.723115
     53 C                    -0.416109
     54 H                     0.287770
     55 C                    -0.730653
     56 H                     0.193229
     57 C                     0.534481
     58 H                     0.250187
     59 H                     0.215308
     60 C                     0.459389
     61 C                    -0.475406
     62 H                     0.139373
     63 H                     0.161969
     64 C                    -0.379178
     65 H                     0.111640
     66 H                     0.200104
     67 C                    -0.183683
     68 H                     0.212460
     69 H                     0.115311
     70 C                    -0.399139
     71 H                     0.170314
     72 H                     0.154419
     73 C                    -0.447411
     74 H                     0.168537
     75 H                     0.103920
     76 H                     0.158832
  ----------------------------------------
  Sum of atomic charges =    -0.000001

                    Cartesian Multipole Moments
 -----------------------------------------------------------------
    Charge (ESU x 10^10)
                -0.0000
    Dipole Moment (Debye)
         X      -4.1064      Y       1.5341      Z       1.1363
       Tot       4.5285
    Quadrupole Moments (Debye-Ang)
        XX    -244.6458     XY       5.4475     YY    -214.7294
        XZ      10.1053     YZ     -11.0677     ZZ    -228.0988

 Total job time:  5152.46s(wall), 25697.31s(cpu)
        *  Thank you very much for using Q-Chem.  Have a nice day.  *
