 Q-Chem 5.4, Q-Chem, Inc., Pleasanton, CA (2021)
 Q-Chem 5.4.0 for Intel X86 EM64T Linux

User input:
--------------------------------------------------------------
$molecule
-1 2
O                  1.4309200000      2.3150760000     -0.2304830000
C                  0.7940040000      1.2260700000     -0.2008160000
C                 -0.6503380000      1.2161780000     -0.2420450000
C                 -1.4407280000      0.0881520000     -0.2168030000
C                 -0.7940430000     -1.2261790000     -0.1196070000
O                 -1.4309780000     -2.3151660000     -0.0897490000
C                  0.6502980000     -1.2162750000     -0.0784720000
C                  1.4407170000     -0.0882470000     -0.1037390000
C                  2.9160660000     -0.2077430000     -0.0244680000
C                  3.5138250000     -1.2365900000      0.7269870000
C                  4.8966180000     -1.3913920000      0.7804690000
C                  5.7299720000     -0.5133660000      0.0878060000
C                  5.1559550000      0.5221190000     -0.6505390000
C                  3.7732480000      0.6791270000     -0.7030120000
C                 -2.9160970000      0.2076810000     -0.2963500000
C                 -3.5136220000      1.2364510000     -1.0481050000
C                 -4.8963980000      1.3913200000     -1.1019130000
C                 -5.7299330000      0.5134590000     -0.4092690000
C                 -5.1561260000     -0.5219120000      0.3294110000
C                 -3.7734390000     -0.6789790000      0.3821920000
H                 -1.1024280000      2.2025890000     -0.2717240000
H                  1.1023710000     -2.2027020000     -0.0489070000
H                  2.8813120000     -1.9130260000      1.2903350000
H                  5.3238970000     -2.1942040000      1.3737270000
H                  6.8083710000     -0.6286980000      0.1303080000
H                  5.7910950000      1.2187300000     -1.1894970000
H                  3.3373760000      1.4988880000     -1.2557070000
H                 -2.8808970000      1.9127760000     -1.6113360000
H                 -5.3235030000      2.1940420000     -1.6954200000
H                 -6.8083180000      0.6288460000     -0.4519780000
H                 -5.7914380000     -1.2183540000      0.8683820000
H                 -3.3377600000     -1.4986710000      0.9351670000
$end

$rem
BASIS  =  6-311++G(d,p)
GUI  =  2
JOB_TYPE  =  SP
METHOD  =  B3LYP
SCF_CONVERGENCE  = 8
SOLVENT_METHOD = sm12
$end

$smx
solvent dimethylformamide
charges CM5
$end

--------------------------------------------------------------

             Standard Nuclear Orientation (Angstroms)
    I     Atom           X                Y                Z
 ----------------------------------------------------------------
    1      O       1.4309200000     2.3150760000    -0.2304830000
    2      C       0.7940040000     1.2260700000    -0.2008160000
    3      C      -0.6503380000     1.2161780000    -0.2420450000
    4      C      -1.4407280000     0.0881520000    -0.2168030000
    5      C      -0.7940430000    -1.2261790000    -0.1196070000
    6      O      -1.4309780000    -2.3151660000    -0.0897490000
    7      C       0.6502980000    -1.2162750000    -0.0784720000
    8      C       1.4407170000    -0.0882470000    -0.1037390000
    9      C       2.9160660000    -0.2077430000    -0.0244680000
   10      C       3.5138250000    -1.2365900000     0.7269870000
   11      C       4.8966180000    -1.3913920000     0.7804690000
   12      C       5.7299720000    -0.5133660000     0.0878060000
   13      C       5.1559550000     0.5221190000    -0.6505390000
   14      C       3.7732480000     0.6791270000    -0.7030120000
   15      C      -2.9160970000     0.2076810000    -0.2963500000
   16      C      -3.5136220000     1.2364510000    -1.0481050000
   17      C      -4.8963980000     1.3913200000    -1.1019130000
   18      C      -5.7299330000     0.5134590000    -0.4092690000
   19      C      -5.1561260000    -0.5219120000     0.3294110000
   20      C      -3.7734390000    -0.6789790000     0.3821920000
   21      H      -1.1024280000     2.2025890000    -0.2717240000
   22      H       1.1023710000    -2.2027020000    -0.0489070000
   23      H       2.8813120000    -1.9130260000     1.2903350000
   24      H       5.3238970000    -2.1942040000     1.3737270000
   25      H       6.8083710000    -0.6286980000     0.1303080000
   26      H       5.7910950000     1.2187300000    -1.1894970000
   27      H       3.3373760000     1.4988880000    -1.2557070000
   28      H      -2.8808970000     1.9127760000    -1.6113360000
   29      H      -5.3235030000     2.1940420000    -1.6954200000
   30      H      -6.8083180000     0.6288460000    -0.4519780000
   31      H      -5.7914380000    -1.2183540000     0.8683820000
   32      H      -3.3377600000    -1.4986710000     0.9351670000
 ----------------------------------------------------------------

   16    -843.8657017284      7.04e-09  Convergence criterion met
 Total energy in the final basis set =     -843.9553833396

                    Orbital Energies (a.u.)
 --------------------------------------------------------------

 Alpha MOs
 -- Occupied --
-19.0776 -19.0776 -10.2254 -10.2254 -10.1929 -10.1929 -10.1833 -10.1833
-10.1832 -10.1832 -10.1827 -10.1827 -10.1818 -10.1818 -10.1817 -10.1817
-10.1774 -10.1774 -10.1688 -10.1688  -1.0023  -1.0000  -0.8689  -0.8674
 -0.8307  -0.7937  -0.7566  -0.7544  -0.7543  -0.7231  -0.6853  -0.6398
 -0.6204  -0.6133  -0.6010  -0.5848  -0.5638  -0.5264  -0.5130  -0.4904
 -0.4758  -0.4725  -0.4586  -0.4493  -0.4485  -0.4398  -0.4298  -0.4276
 -0.4254  -0.4074  -0.4024  -0.3952  -0.3869  -0.3747  -0.3723  -0.3672
 -0.3591  -0.3547  -0.3512  -0.3488  -0.2980  -0.2948  -0.2656  -0.2646
 -0.2538  -0.2407  -0.2381  -0.2330  -0.1642

 Beta MOs
 -- Occupied --
-19.0704 -19.0704 -10.2245 -10.2245 -10.1930 -10.1930 -10.1834 -10.1834
-10.1825 -10.1825 -10.1822 -10.1822 -10.1819 -10.1819 -10.1815 -10.1815
-10.1772 -10.1772 -10.1676 -10.1676  -0.9901  -0.9874  -0.8680  -0.8671
 -0.8260  -0.7922  -0.7555  -0.7542  -0.7539  -0.7210  -0.6763  -0.6378
 -0.6195  -0.6130  -0.6001  -0.5823  -0.5620  -0.5260  -0.5113  -0.4889
 -0.4735  -0.4715  -0.4582  -0.4477  -0.4470  -0.4378  -0.4294  -0.4274
 -0.4226  -0.3960  -0.3948  -0.3926  -0.3831  -0.3710  -0.3650  -0.3587
 -0.3551  -0.3507  -0.3482  -0.3448  -0.2935  -0.2764  -0.2648  -0.2641
 -0.2367  -0.2344  -0.2318  -0.2270

          Ground-State Mulliken Net Atomic Charges

     Atom                 Charge (a.u.)    Spin (a.u.)
  --------------------------------------------------------
      1 O                    -0.334450       0.260755
      2 C                    -1.594874       0.071634
      3 C                    -1.018810       0.059255
      4 C                     0.498583       0.107708
      5 C                    -1.594841       0.071639
      6 O                    -0.334463       0.260756
      7 C                    -1.019190       0.059260
      8 C                     0.498357       0.107698
      9 C                    -0.009330      -0.026391
     10 C                    -0.506354       0.019728
     11 C                     0.560573      -0.006984
     12 C                     0.915949       0.014482
     13 C                     0.556964      -0.000318
     14 C                    -1.077366       0.013922
     15 C                    -0.009550      -0.026386
     16 C                    -0.506738       0.019721
     17 C                     0.560585      -0.006979
     18 C                     0.915910       0.014473
     19 C                     0.556949      -0.000314
     20 C                    -1.076953       0.013901
     21 H                     0.120903      -0.009540
     22 H                     0.120874      -0.009541
     23 H                     0.279675      -0.001641
     24 H                     0.323365       0.000526
     25 H                     0.359256      -0.000992
     26 H                     0.301974       0.000407
     27 H                     0.124353      -0.002538
     28 H                     0.279648      -0.001641
     29 H                     0.323366       0.000526
     30 H                     0.359253      -0.000991
     31 H                     0.301981       0.000407
     32 H                     0.124401      -0.002539
  --------------------------------------------------------
  Sum of atomic charges =    -1.000000

                    Cartesian Multipole Moments
 -----------------------------------------------------------------
    Charge (ESU x 10^10)
                -4.8032
    Dipole Moment (Debye)
         X      -0.0002      Y       0.0004      Z       0.7693
       Tot       0.7693
    Quadrupole Moments (Debye-Ang)
        XX    -132.9856     XY     -14.1324     YY    -142.5809
        XZ       0.1596     YZ      -6.4699     ZZ    -122.1335

 Total job time:  922.34s(wall), 7172.24s(cpu)
        *  Thank you very much for using Q-Chem.  Have a nice day.  *
