 Gaussian 16, Revision A.03,
 Gaussian 16:  ES64L-G16RevA.03 25-Dec-2016

 ----------------------------------------------------------------------
 #P UB3LYP/6-311++G(d,p) nosym opt freq SCRF=(PCM,Solvent=n,n-DiMethylF
 ormamide)
 ----------------------------------------------------------------------

 -------
 Radical
 -------
 Symbolic Z-matrix:
 Charge = -1 Multiplicity = 2

 SCF Done:  E(UB3LYP) =  -1608.32156210     A.U. after   19 cycles
 SCF Done:  E(UB3LYP) =  -1608.32157761     A.U. after   12 cycles
 SCF Done:  E(UB3LYP) =  -1608.32157951     A.U. after   12 cycles
 SCF Done:  E(UB3LYP) =  -1608.32158028     A.U. after   11 cycles
 SCF Done:  E(UB3LYP) =  -1608.32158114     A.U. after   12 cycles
 SCF Done:  E(UB3LYP) =  -1608.32158181     A.U. after   12 cycles
 SCF Done:  E(UB3LYP) =  -1608.32158253     A.U. after   12 cycles
 SCF Done:  E(UB3LYP) =  -1608.32158306     A.U. after   11 cycles
 SCF Done:  E(UB3LYP) =  -1608.32158366     A.U. after   12 cycles
 SCF Done:  E(UB3LYP) =  -1608.32158417     A.U. after   12 cycles
 SCF Done:  E(UB3LYP) =  -1608.29549967     A.U. after   21 cycles
 SCF Done:  E(UB3LYP) =  -1608.32158089     A.U. after   14 cycles
 SCF Done:  E(UB3LYP) =  -1608.32158440     A.U. after    8 cycles
 SCF Done:  E(UB3LYP) =  -1608.32158437     A.U. after   10 cycles
 SCF Done:  E(UB3LYP) =  -1608.32158441     A.U. after   10 cycles
 SCF Done:  E(UB3LYP) =  -1608.32158442     A.U. after   11 cycles
 SCF Done:  E(UB3LYP) =  -1608.32158442     A.U. after    9 cycles
 SCF Done:  E(UB3LYP) =  -1608.32158442     A.U. after    9 cycles
 SCF Done:  E(UB3LYP) =  -1608.32158442     A.U. after    9 cycles
 Optimization completed.
    -- Stationary point found.
 Normal termination of Gaussian 16 at Sun Feb 11 04:16:59 2024.

 ----------------------------------------------------------------------
 #P Geom=AllCheck Guess=TCheck SCRF=Check GenChk UB3LYP/6-311++G(d,p) F
 req
 ----------------------------------------------------------------------

 Structure from the checkpoint file:  "121-rad.chk"
 -------
 Radical
 -------
 Charge = -1 Multiplicity = 2

                          Input orientation:
 ---------------------------------------------------------------------
 Center     Atomic      Atomic             Coordinates (Angstroms)
 Number     Number       Type             X           Y           Z
 ---------------------------------------------------------------------
      1         17           0        2.647487    3.189079   -0.522341
      2          6           0        2.488174    1.449813   -0.212942
      3          6           0        3.689366    0.785756   -0.065824
      4          6           0        3.701385   -0.596161    0.184178
      5          6           0        2.510414   -1.279596    0.281833
      6          6           0        1.271439   -0.621105    0.135148
      7          6           0        0.065081   -1.454199    0.260610
      8          8           0        0.181958   -2.684862    0.489189
      9          6           0       -1.228612   -0.790584    0.109886
     10          6           0       -2.487182   -1.452088    0.201425
     11         17           0       -2.646521   -3.191217    0.511558
     12          6           0       -3.688378   -0.787997    0.054483
     13          6           0       -3.700391    0.593859   -0.195849
     14          6           0       -2.509406    1.277220   -0.293902
     15          6           0       -1.270431    0.618702   -0.147345
     16          6           0       -0.064063    1.451741   -0.273123
     17          8           0       -0.180922    2.682282   -0.502348
     18          6           0        1.229616    0.788211   -0.121916
     19          1           0        4.617303    1.337453   -0.144550
     20          1           0        4.648267   -1.111208    0.298261
     21          1           0        2.492557   -2.343839    0.474384
     22          1           0       -4.616323   -1.339620    0.133636
     23          1           0       -4.647275    1.108930   -0.309807
     24          1           0       -2.491541    2.341428   -0.486645
 ---------------------------------------------------------------------

 SCF Done:  E(UB3LYP) =  -1608.32158442     A.U. after    1 cycles

 Alpha  occ. eigenvalues -- -101.54766-101.54766 -19.07791 -19.07790 -10.24045
 Alpha  occ. eigenvalues --  -10.24045 -10.23382 -10.23381 -10.19273 -10.19273
 Alpha  occ. eigenvalues --  -10.18430 -10.18429 -10.18324 -10.18323 -10.18017
 Alpha  occ. eigenvalues --  -10.18017 -10.17410 -10.17410  -9.46247  -9.46247
 Alpha  occ. eigenvalues --   -7.22699  -7.22699  -7.21770  -7.21770  -7.21660
 Alpha  occ. eigenvalues --   -7.21660  -1.00898  -1.00623  -0.88967  -0.88772
 Alpha  occ. eigenvalues --   -0.84306  -0.83177  -0.79373  -0.75272  -0.74324
 Alpha  occ. eigenvalues --   -0.73679  -0.67367  -0.64629  -0.63175  -0.58529
 Alpha  occ. eigenvalues --   -0.55403  -0.54974  -0.52949  -0.48272  -0.47819
 Alpha  occ. eigenvalues --   -0.47018  -0.46977  -0.43460  -0.43420  -0.43276
 Alpha  occ. eigenvalues --   -0.42702  -0.41694  -0.41284  -0.39887  -0.38716
 Alpha  occ. eigenvalues --   -0.38424  -0.36691  -0.36407  -0.36050  -0.35010
 Alpha  occ. eigenvalues --   -0.33118  -0.32954  -0.31771  -0.31407  -0.27582
 Alpha  occ. eigenvalues --   -0.26003  -0.25393  -0.25214  -0.24412  -0.23360
 Alpha  occ. eigenvalues --   -0.14712
 Alpha virt. eigenvalues --   -0.06292  -0.03268  -0.01403  -0.00151   0.00427
 Alpha virt. eigenvalues --    0.00817   0.00851   0.02357   0.02382   0.03251
 Alpha virt. eigenvalues --    0.04203   0.04441   0.04609   0.04834   0.05317

  Beta  occ. eigenvalues -- -101.54763-101.54763 -19.07210 -19.07209 -10.24030
  Beta  occ. eigenvalues --  -10.24030 -10.23230 -10.23229 -10.19205 -10.19205
  Beta  occ. eigenvalues --  -10.18333 -10.18332 -10.18286 -10.18286 -10.17953
  Beta  occ. eigenvalues --  -10.17953 -10.17419 -10.17419  -9.46245  -9.46244
  Beta  occ. eigenvalues --   -7.22699  -7.22699  -7.21761  -7.21761  -7.21659
  Beta  occ. eigenvalues --   -7.21659  -0.99908  -0.99602  -0.88802  -0.88689
  Beta  occ. eigenvalues --   -0.84125  -0.83093  -0.79012  -0.75081  -0.74036
  Beta  occ. eigenvalues --   -0.73568  -0.66678  -0.64436  -0.62918  -0.58446
  Beta  occ. eigenvalues --   -0.55175  -0.54726  -0.52821  -0.48060  -0.47643
  Beta  occ. eigenvalues --   -0.46915  -0.46849  -0.43404  -0.43240  -0.42564
  Beta  occ. eigenvalues --   -0.42345  -0.41146  -0.40986  -0.39453  -0.38555
  Beta  occ. eigenvalues --   -0.36443  -0.36376  -0.35915  -0.35838  -0.34848
  Beta  occ. eigenvalues --   -0.32483  -0.32450  -0.31682  -0.31355  -0.25585
  Beta  occ. eigenvalues --   -0.25455  -0.24688  -0.24524  -0.23907  -0.22863
  Beta virt. eigenvalues --   -0.08814  -0.05324  -0.02180  -0.01165  -0.00135
  Beta virt. eigenvalues --    0.00433   0.00842   0.00863   0.02370   0.02394
  Beta virt. eigenvalues --    0.03278   0.04502   0.04617   0.04859   0.04894

 Mulliken charges and spin densities:
               1          2
     1  Cl   0.353220   0.000219
     2  C    0.878442   0.034315
     3  C   -0.112191   0.032469
     4  C   -0.639036   0.047449
     5  C    0.478785   0.026878
     6  C    0.248778   0.055869
     7  C   -1.778926   0.069911
     8  O   -0.334019   0.215224
     9  C   -0.166339   0.025286
    10  C    0.878378   0.034316
    11  Cl   0.353219   0.000219
    12  C   -0.112303   0.032466
    13  C   -0.639008   0.047451
    14  C    0.478746   0.026875
    15  C    0.248689   0.055869
    16  C   -1.779106   0.069907
    17  O   -0.334014   0.215220
    18  C   -0.166375   0.025287
    19  H    0.203857  -0.002498
    20  H    0.188279  -0.003787
    21  H    0.179393  -0.001330
    22  H    0.203856  -0.002498
    23  H    0.188280  -0.003787
    24  H    0.179393  -0.001330
 Sum of Mulliken charges =  -1.00000   1.00000

 Dipole moment (field-independent basis, Debye):
    X=             -0.0025    Y=              0.0061    Z=              0.0308  Tot=              0.0315
 Quadrupole moment (field-independent basis, Debye-Ang):
   XX=           -113.4577   YY=           -163.5970   ZZ=           -124.3777
   XY=            -11.0161   XZ=              2.1940   YZ=              7.1606

  Exact polarizability: 476.750  24.723 406.424   3.046 -47.786 149.249
 Approx polarizability: 490.066   5.717 478.211   6.272 -57.272 173.251

                      1                      2                      3
                      A                      A                      A
 Frequencies --      6.7067                44.1776                50.0605
 Red. masses --     15.9461                 6.9756                13.9176
 Frc consts  --      0.0004                 0.0080                 0.0205
 IR Inten    --      6.4679                10.4001                 0.0021

                      4                      5                      6
                      A                      A                      A
 Frequencies --    153.9978               162.3188               191.5631
 Red. masses --      6.3190                11.7803                 4.5038
 Frc consts  --      0.0883                 0.1829                 0.0974
 IR Inten    --      2.4977                 7.9289                 0.0000

                      7                      8                      9
                      A                      A                      A
 Frequencies --    202.8912               208.1413               262.3125
 Red. masses --     22.7810                 5.3341                 6.1481
 Frc consts  --      0.5525                 0.1362                 0.2492
 IR Inten    --      0.0000                 0.1050                 0.0000

                     10                     11                     12
                      A                      A                      A
 Frequencies --    326.4331               331.7108               358.4101
 Red. masses --     11.9210                16.9442                 6.2703
 Frc consts  --      0.7484                 1.0985                 0.4746
 IR Inten    --      0.3526                 0.0000                 0.0000

                     13                     14                     15
                      A                      A                      A
 Frequencies --    401.7653               412.2600               413.3079
 Red. masses --     12.9457                 8.2452                 8.1871
 Frc consts  --      1.2312                 0.8256                 0.8240
 IR Inten    --     24.3377                 0.0004                23.2974

                     16                     17                     18
                      A                      A                      A
 Frequencies --    416.3375               482.7569               489.1812
 Red. masses --      6.1444                 9.5051                 4.2300
 Frc consts  --      0.6275                 1.3052                 0.5964
 IR Inten    --      0.0002                 0.0000                 3.6763

                     19                     20                     21
                      A                      A                      A
 Frequencies --    504.2638               510.9047               551.1784
 Red. masses --     11.8409                 4.8844                 4.8486
 Frc consts  --      1.7740                 0.7512                 0.8679
 IR Inten    --      0.0000                 1.0734                 0.0000

                     22                     23                     24
                      A                      A                      A
 Frequencies --    611.6441               638.7848               694.5555
 Red. masses --      6.5612                 4.8994                 7.0928
 Frc consts  --      1.4462                 1.1779                 2.0160
 IR Inten    --     40.2962                 0.0000                 0.0000

                     25                     26                     27
                      A                      A                      A
 Frequencies --    703.7552               710.0797               744.1897
 Red. masses --      8.5687                 2.6255                 7.7501
 Frc consts  --      2.5004                 0.7800                 2.5289
 IR Inten    --    234.6523                77.4814                20.2494

                     28                     29                     30
                      A                      A                      A
 Frequencies --    771.0875               791.4395               804.9979
 Red. masses --      1.5293                 8.8530                 1.7086
 Frc consts  --      0.5357                 3.2672                 0.6524
 IR Inten    --      0.0000                 0.0000                93.4660

                     31                     32                     33
                      A                      A                      A
 Frequencies --    818.0539               820.9153               918.8455
 Red. masses --      6.9382                 3.7038                 1.3852
 Frc consts  --      2.7356                 1.4706                 0.6890
 IR Inten    --     51.2878                 0.0000                 0.0000

                     34                     35                     36
                      A                      A                      A
 Frequencies --    921.5799               930.4409               969.8026
 Red. masses --      1.3894                 6.8096                 8.6685
 Frc consts  --      0.6953                 3.4733                 4.8035
 IR Inten    --      0.0699                 0.0000               124.0108

                     37                     38                     39
                      A                      A                      A
 Frequencies --    999.1164               999.8444              1085.8205
 Red. masses --      1.3177                 1.3229                 2.2668
 Frc consts  --      0.7750                 0.7792                 1.5746
 IR Inten    --      0.0001                 2.9663                 0.0000

                     40                     41                     42
                      A                      A                      A
 Frequencies --   1092.0686              1121.4916              1125.3983
 Red. masses --      1.9473                 3.0422                 2.9451
 Frc consts  --      1.3683                 2.2544                 2.1977
 IR Inten    --     85.5835                40.3266                 0.0000

                     43                     44                     45
                      A                      A                      A
 Frequencies --   1158.0957              1179.6132              1192.8282
 Red. masses --      2.2782                 1.4609                 2.0520
 Frc consts  --      1.8003                 1.1977                 1.7202
 IR Inten    --     66.5904                 0.0000                 0.0000

                     46                     47                     48
                      A                      A                      A
 Frequencies --   1206.3088              1229.8225              1319.3616
 Red. masses --      2.4691                 2.1652                 3.0545
 Frc consts  --      2.1169                 1.9294                 3.1327
 IR Inten    --    137.7749                80.8068                 0.0000

                     49                     50                     51
                      A                      A                      A
 Frequencies --   1330.8379              1353.0509              1381.4337
 Red. masses --     10.5596                 5.3521                 3.7823
 Frc consts  --     11.0192                 5.7730                 4.2527
 IR Inten    --     29.8599                 0.0000               987.3473

                     52                     53                     54
                      A                      A                      A
 Frequencies --   1422.2924              1435.8571              1472.3196
 Red. masses --      2.4105                 4.0128                 2.9679
 Frc consts  --      2.8730                 4.8744                 3.7906
 IR Inten    --    381.6403                 0.0000                 0.0000

                     55                     56                     57
                      A                      A                      A
 Frequencies --   1503.6309              1525.3382              1547.4574
 Red. masses --      4.6887                 7.2963                 5.1417
 Frc consts  --      6.2457                10.0020                 7.2543
 IR Inten    --   1804.6117                 0.0001               172.3106

                     58                     59                     60
                      A                      A                      A
 Frequencies --   1598.0074              1610.7128              1620.6648
 Red. masses --      8.3289                 5.7590                 6.5287
 Frc consts  --     12.5313                 8.8031                10.1032
 IR Inten    --      0.0000                 0.0000                 6.6757

                     61                     62                     63
                      A                      A                      A
 Frequencies --   3175.4922              3175.7013              3197.5546
 Red. masses --      1.0879                 1.0881                 1.0927
 Frc consts  --      6.4635                 6.4654                 6.5826
 IR Inten    --     34.3363                 0.0026                11.6795

                     64                     65                     66
                      A                      A                      A
 Frequencies --   3197.5740              3207.3373              3207.6067
 Red. masses --      1.0927                 1.0931                 1.0931
 Frc consts  --      6.5823                 6.6250                 6.6264
 IR Inten    --      0.7436                38.3260                 0.0064

 - Thermochemistry -
 -------------------
 Temperature   298.150 Kelvin.  Pressure   1.00000 Atm.
 Atom     1 has atomic number 17 and mass  34.96885

 Molecular mass:   275.97448 amu.
 Principal axes and moments of inertia in atomic units:
                           1         2         3
     Eigenvalues --  2728.577487274.76433**********
           X            0.82026  -0.57156  -0.02230
           Y            0.56578   0.80500   0.17851
           Z           -0.08407  -0.15904   0.98369
 This molecule is an asymmetric top.
 Rotational symmetry number  1.
 Warning -- assumption of classical behavior for rotation
           may cause significant error
 Rotational temperatures (Kelvin)      0.03174     0.01191     0.00866
 Rotational constants (GHZ):           0.66142     0.24808     0.18041
 Zero-point vibrational energy     412732.5 (Joules/Mol)
                                   98.64544 (Kcal/Mol)
 Warning -- explicit consideration of  22 degrees of freedom as
           vibrations may cause significant error
 Vibrational temperatures:      9.65    63.56    72.03   221.57   233.54
          (Kelvin)            275.62   291.92   299.47   377.41   469.66
                              477.26   515.67   578.05   593.15   594.66
                              599.02   694.58   703.82   725.52   735.08
                              793.02   880.02   919.07   999.31  1012.55
                             1021.65  1070.72  1109.42  1138.70  1158.21
                             1177.00  1181.11  1322.01  1325.95  1338.70
                             1395.33  1437.51  1438.55  1562.25  1571.24
                             1613.58  1619.20  1666.24  1697.20  1716.21
                             1735.61  1769.44  1898.27  1914.78  1946.74
                             1987.57  2046.36  2065.88  2118.34  2163.39
                             2194.62  2226.45  2299.18  2317.46  2331.78
                             4568.82  4569.13  4600.57  4600.60  4614.64
                             4615.03

 Zero-point correction=                           0.157202 (Hartree/Particle)
 Thermal correction to Energy=                    0.171106
 Thermal correction to Enthalpy=                  0.172050
 Thermal correction to Gibbs Free Energy=         0.112884
 Sum of electronic and zero-point Energies=          -1608.164383
 Sum of electronic and thermal Energies=             -1608.150479
 Sum of electronic and thermal Enthalpies=           -1608.149534
 Sum of electronic and thermal Free Energies=        -1608.208701

                     E (Thermal)             CV                S
                      KCal/Mol        Cal/Mol-Kelvin    Cal/Mol-Kelvin
 Total                  107.371             53.981            124.526
 Electronic               0.000              0.000              1.377
 Translational            0.889              2.981             42.744
 Rotational               0.889              2.981             33.651
 Vibrational            105.593             48.020             46.754
 Vibration     1          0.593              1.987              8.805
 Vibration     2          0.595              1.980              5.062
 Vibration     3          0.595              1.978              4.815
 Vibration     4          0.620              1.898              2.622
 Vibration     5          0.622              1.889              2.523
 Vibration     6          0.634              1.852              2.213
 Vibration     7          0.639              1.836              2.107
 Vibration     8          0.641              1.828              2.060
 Vibration     9          0.670              1.742              1.646
 Vibration    10          0.710              1.623              1.278
 Vibration    11          0.714              1.612              1.252
 Vibration    12          0.733              1.558              1.129
 Vibration    13          0.767              1.466              0.956
 Vibration    14          0.776              1.444              0.919
 Vibration    15          0.777              1.441              0.915
 Vibration    16          0.780              1.435              0.905
 Vibration    17          0.839              1.288              0.703
 Vibration    18          0.845              1.274              0.686
 Vibration    19          0.860              1.241              0.648
 Vibration    20          0.866              1.226              0.631
 Vibration    21          0.906              1.137              0.542
 Vibration    22          0.971              1.007              0.430

 Optimization completed.
    -- Stationary point found.
 Normal termination of Gaussian 16 at Sun Feb 11 04:46:39 2024.
