 Q-Chem 5.4, Q-Chem, Inc., Pleasanton, CA (2021)
 Q-Chem 5.4.0 for Intel X86 EM64T Linux

User input:
--------------------------------------------------------------
$molecule
-2 1
O                  1.2604880000      0.8110080000      2.2445280000
C                  0.6877410000      0.4818820000      1.1437010000
C                 -0.7358280000      0.5371550000      0.9838340000
C                 -1.4267000000      0.2691550000     -0.1947960000
N                 -2.8415450000      0.4002640000     -0.3023260000
C                 -3.5773630000      1.2879020000      0.5882630000
C                 -4.5322050000      0.5317030000      1.5245890000
C                 -5.5917440000     -0.2464750000      0.7076670000
C                 -5.0628170000     -0.5894090000     -0.7034350000
C                 -3.5525200000     -0.8236090000     -0.6986250000
C                 -0.6951780000     -0.1546530000     -1.3842680000
O                 -1.2620860000     -0.4110480000     -2.5062230000
C                  0.7235030000     -0.2768100000     -1.2056310000
C                  1.4161820000      0.0317220000     -0.0380730000
N                  2.8376010000     -0.0209000000      0.0291300000
C                  3.6163980000     -0.0884420000     -1.1893320000
C                  4.9898820000      0.5994400000     -0.9785020000
C                  5.4154440000      0.5718600000      0.5018420000
C                  4.9450890000     -0.7341790000      1.1445660000
C                  3.4019750000     -0.8441150000      1.1022580000
H                 -1.2694520000      0.8537360000      1.8756460000
H                 -4.1771110000      2.0051740000     -0.0050630000
H                 -2.8699670000      1.8871580000      1.1596340000
H                 -5.0185950000      1.2288340000      2.2203750000
H                 -3.9405530000     -0.1625850000      2.1303480000
H                 -5.8682230000     -1.1658060000      1.2388220000
H                 -6.5150190000      0.3408360000      0.6265470000
H                 -5.5767130000     -1.4742760000     -1.0993860000
H                 -5.2834440000      0.2327050000     -1.3945340000
H                 -3.1764750000     -1.1129220000     -1.6830420000
H                 -3.3215220000     -1.6542210000     -0.0013980000
H                  1.2533690000     -0.6344740000     -2.0827840000
H                  3.7692440000     -1.1373440000     -1.5255710000
H                  3.0686550000      0.4127370000     -1.9867640000
H                  5.7471130000      0.0934310000     -1.5948870000
H                  4.9430000000      1.6377190000     -1.3270720000
H                  4.9545660000      1.4110580000      1.0300740000
H                  6.5045090000      0.6890300000      0.5890390000
H                  5.2905040000     -0.8086180000      2.1820980000
H                  5.4058170000     -1.5743260000      0.6075440000
H                  3.1163420000     -1.9072300000      0.9581700000
H                  2.9476390000     -0.4930680000      2.0290620000
$end
$rem
MAX_SCF_CYCLES=200
BASIS  =  6-311++G(d,p)
GUI  =  2
JOB_TYPE  =  SP
METHOD  =  B3LYP
SOLVENT_METHOD = COSMO
$end
$solvent
dielectric 37.219
opticaldielectric 1.43
$end

--------------------------------------------------------------

             Standard Nuclear Orientation (Angstroms)
    I     Atom           X                Y                Z
 ----------------------------------------------------------------
    1      O      -1.2813859182     2.2935220657     0.2551409883
    2      C      -0.6977423692     1.1526782145     0.1775610381
    3      C       0.7276169212     1.0232827342     0.2598347469
    4      C       1.4303890392    -0.1785519769     0.2586204261
    5      N       2.8466750528    -0.2400636391     0.4031503117
    6      C       3.5753574684     0.8337108105     1.0653500425
    7      C       4.5179164314     1.5865650666     0.1140038273
    8      C       5.5839949220     0.6267906220    -0.4672492273
    9      C       5.0693370139    -0.8304151221    -0.4832182956
   10      C       3.5584206625    -0.8930155248    -0.7047646175
   11      C       0.7105323259    -1.4398411132     0.1153119377
   12      O       1.2887702311    -2.5850674103     0.1133749504
   13      C      -0.7103303466    -1.3070629908    -0.0363736797
   14      C      -1.4146756186    -0.1069717541     0.0068309130
   15      N      -2.8368791121    -0.0672740971    -0.0521488342
   16      C      -3.6026896807    -1.2776020980     0.1585087977
   17      C      -4.9764180462    -0.9318298589     0.7889064259
   18      C      -5.4179820746     0.5005703928     0.4331919922
   19      C      -4.9582688888     0.8395164099    -0.9859081522
   20      C      -3.4151051368     0.7889255726    -1.0915628241
   21      H       1.2524924344     1.9685316023     0.3662162268
   22      H       4.1834863694     0.4217887121     1.8940308932
   23      H       2.8635407687     1.5176253518     1.5253060841
   24      H       4.9987474446     2.4254105760     0.6353719977
   25      H       3.9178139546     2.0158250652    -0.6950973734
   26      H       5.8521380750     0.9415764074    -1.4834898080
   27      H       6.5097448633     0.6882000054     0.1185556247
   28      H       5.5849692174    -1.4091515381    -1.2597770458
   29      H       5.2997179299    -1.3179218364     0.4714687563
   30      H       3.1921891693    -1.9208647396    -0.7646742917
   31      H       3.3175793689    -0.4015393718    -1.6690511529
   32      H      -1.2317220320    -2.2471764096    -0.1860946548
   33      H      -3.7548646265    -1.8414110965    -0.7878400648
   34      H      -3.0449734277    -1.9372938545     0.8224816482
   35      H      -5.7283891996    -1.6532170457     0.4374604487
   36      H      -4.9228517685    -1.0388696021     1.8785831651
   37      H      -4.9604550022     1.2076375063     1.1306272472
   38      H      -6.5075882451     0.6010105049     0.5335158529
   39      H      -5.3150519304     1.8306549815    -1.2886878265
   40      H      -5.4155539384     0.1236716364    -1.6823035455
   41      H      -3.1309388203     0.4135394942    -2.0969959957
   42      H      -2.9697924322     1.7752042567    -0.9590041431
 ----------------------------------------------------------------

   19    -883.0643157063      5.10e-06  Convergence criterion met
 Total energy in the final basis set =     -883.0643157063
    5    -883.3423218561      9.77e-06  Convergence criterion met
 Total energy in the final basis set =     -883.3423218561

                    Orbital Energies (a.u.)
 --------------------------------------------------------------

 Alpha MOs
 -- Occupied --
-19.0113 -19.0111 -14.2823 -14.2773 -10.1726 -10.1722 -10.1637 -10.1636
-10.1604 -10.1596 -10.1518 -10.1499 -10.1497 -10.1497 -10.1497 -10.1491
-10.1475 -10.1454 -10.1095 -10.1091  -0.9370  -0.9327  -0.9020  -0.8969
 -0.7857  -0.7779  -0.7472  -0.7320  -0.7302  -0.6869  -0.6447  -0.6335
 -0.6151  -0.6088  -0.5954  -0.5532  -0.5319  -0.5150  -0.5061  -0.4802
 -0.4753  -0.4701  -0.4576  -0.4436  -0.4244  -0.4168  -0.4064  -0.4043
 -0.3908  -0.3885  -0.3859  -0.3765  -0.3759  -0.3660  -0.3563  -0.3551
 -0.3489  -0.3472  -0.3424  -0.3391  -0.3217  -0.3201  -0.3126  -0.3105
 -0.3027  -0.2997  -0.2982  -0.2966  -0.2406  -0.2298  -0.1935  -0.1906
 -0.1862  -0.1589  -0.1020

          Ground-State Mulliken Net Atomic Charges

     Atom                 Charge (a.u.)
  ----------------------------------------
      1 O                    -0.758411
      2 C                    -0.222063
      3 C                    -0.150659
      4 C                    -0.448175
      5 N                     0.241115
      6 C                    -0.227415
      7 C                    -0.156216
      8 C                    -0.512285
      9 C                    -0.323525
     10 C                    -0.216760
     11 C                    -0.239255
     12 O                    -0.774841
     13 C                     0.031240
     14 C                    -0.417866
     15 N                     0.327611
     16 C                    -0.174740
     17 C                    -0.416040
     18 C                    -0.270559
     19 C                    -0.395414
     20 C                    -0.199290
     21 H                     0.135612
     22 H                     0.153334
     23 H                     0.160691
     24 H                     0.159671
     25 H                     0.146417
     26 H                     0.156917
     27 H                     0.139605
     28 H                     0.171297
     29 H                     0.160610
     30 H                     0.200676
     31 H                     0.098557
     32 H                     0.156411
     33 H                     0.122727
     34 H                     0.148724
     35 H                     0.132523
     36 H                     0.152007
     37 H                     0.132762
     38 H                     0.175887
     39 H                     0.160855
     40 H                     0.146782
     41 H                     0.096724
     42 H                     0.194753
  ----------------------------------------
  Sum of atomic charges =    -2.000007

                    Cartesian Multipole Moments
 -----------------------------------------------------------------
    Charge (ESU x 10^10)
                -9.6064
    Dipole Moment (Debye)
         X       0.0654      Y       1.8594      Z      -2.3337
       Tot       2.9846
    Quadrupole Moments (Debye-Ang)
        XX    -146.6620     XY      26.5147     YY    -180.5970
        XZ       0.5234     YZ      -0.6530     ZZ    -134.5954

 Total job time:  213.84s(wall), 1640.76s(cpu)
        *  Thank you very much for using Q-Chem.  Have a nice day.  *
