 Q-Chem 5.4, Q-Chem, Inc., Pleasanton, CA (2021)
 Q-Chem 5.4.0 for Intel X86 EM64T Linux

User input:
--------------------------------------------------------------
$molecule
-2 1
C                 -0.8823480000      3.8446880000     -0.1942380000
C                 -2.0327400000      3.0900680000     -0.0666780000
C                 -1.9480790000      1.6734900000      0.0017050000
C                  0.4034750000      3.2504170000     -0.2582410000
C                  0.4862990000      1.8084840000     -0.1782650000
C                 -0.7067100000      1.0636310000     -0.0552540000
C                  1.5756820000      4.0766600000     -0.4122050000
C                  2.8351840000      3.3884830000     -0.4785220000
C                  2.9146880000      1.9933930000     -0.3241790000
C                  1.7638940000      1.1394010000     -0.2180120000
O                  1.5331990000      5.3662290000     -0.5031080000
O                  1.9065390000     -0.1456560000     -0.1800650000
N                  3.9464460000      4.1939470000     -0.7610260000
H                 -0.9212600000      4.9279000000     -0.2542640000
H                 -3.0042740000      3.5794300000     -0.0205200000
H                 -2.8511880000      1.0745110000      0.0999740000
H                 -0.6078230000     -0.0163940000     -0.0031270000
H                  3.6701110000      5.1621730000     -0.6149500000
H                  4.7943630000      3.9082090000     -0.2778550000
N                  4.0975900000      1.2042580000     -0.3925360000
H                  3.7772120000      0.2342880000     -0.4975240000
C                  5.3724480000      1.3864840000      0.0056140000
C                  6.2489300000      0.1346840000     -0.0881280000
C                  7.4964060000      0.3508450000     -0.9546450000
O                  5.8691080000      2.4420940000      0.4355550000
H                  5.6742410000     -0.7196880000     -0.4588830000
H                  6.5665970000     -0.1054210000      0.9355380000
H                  7.2213460000      0.5395320000     -1.9976530000
H                  8.1542410000     -0.5261270000     -0.9332100000
H                  8.0613560000      1.2136080000     -0.5932170000
$end
$rem
MAX_SCF_CYCLES=200
BASIS  =  6-311++G(d,p)
GUI  =  2
JOB_TYPE  =  SP
METHOD  =  B3LYP
SOLVENT_METHOD = COSMO
$end
$solvent
dielectric 37.219
opticaldielectric 1.43
$end

--------------------------------------------------------------

             Standard Nuclear Orientation (Angstroms)
    I     Atom           X                Y                Z
 ----------------------------------------------------------------
    1      C       3.6276098877    -0.7725047498     0.0283508522
    2      C       4.5588507062     0.2475810350     0.0649593372
    3      C       4.1286927451     1.6016167304     0.0555564806
    4      C       2.2336269292    -0.5167811227    -0.0165059285
    5      C       1.7992850743     0.8629918671    -0.0158721048
    6      C       2.7741025257     1.8837690047     0.0150009214
    7      C       1.2982639668    -1.6132253692    -0.0744524740
    8      C      -0.0934788783    -1.2603700980    -0.1280792082
    9      C      -0.5111108307     0.0797857304    -0.0507186002
   10      C       0.3954197142     1.1946899972    -0.0411558964
   11      O       1.6556099131    -2.8562114933    -0.0930464630
   12      O      -0.0592045529     2.4053035934    -0.0709981547
   13      N      -0.9782629498    -2.3302257339    -0.3179477497
   14      H       3.9313215765    -1.8147256581     0.0288892219
   15      H       5.6220168512     0.0151906214     0.0989664708
   16      H       4.8580873451     2.4086606903     0.0820530631
   17      H       2.4128780709     2.9076994464     0.0092383402
   18      H      -0.4676417540    -3.1895393597    -0.1281928969
   19      H      -1.8576999039    -2.2297806126     0.1826170114
   20      N      -1.8536448660     0.5489265097    -0.1153186203
   21      H      -1.7856186782     1.5587714804    -0.2887888395
   22      C      -3.0332488328     0.0865537618     0.3448319869
   23      C      -4.1939063634     1.0766209839     0.2157874550
   24      C      -5.3713049222     0.5051100454    -0.5847633183
   25      O      -3.2424764977    -1.0279759628     0.8546164201
   26      H      -3.8578551628     2.0194856280    -0.2266535972
   27      H      -4.5344600958     1.2982740779     1.2362519937
   28      H      -5.0852243751     0.3214895081    -1.6257089914
   29      H      -6.2245996516     1.1937111071    -0.5864715079
   30      H      -5.6960907409    -0.4440983560    -0.1515471152
 ----------------------------------------------------------------

   18    -838.0483645903      9.43e-06  Convergence criterion met
 Total energy in the final basis set =     -838.0483645903
    6    -838.3221679468      3.18e-06  Convergence criterion met
 Total energy in the final basis set =     -838.3221679468

                    Orbital Energies (a.u.)
 --------------------------------------------------------------

 Alpha MOs
 -- Occupied --
-19.0863 -19.0363 -19.0254 -14.3311 -14.2783 -10.2659 -10.1819 -10.1710
-10.1707 -10.1683 -10.1677 -10.1552 -10.1496 -10.1485 -10.1474 -10.1459
-10.1397 -10.1393  -1.0299  -0.9620  -0.9454  -0.9119  -0.8697  -0.8270
 -0.7719  -0.7554  -0.7250  -0.7047  -0.6570  -0.6312  -0.6005  -0.5875
 -0.5559  -0.5353  -0.5090  -0.4914  -0.4783  -0.4727  -0.4454  -0.4434
 -0.4263  -0.4209  -0.4106  -0.4067  -0.3979  -0.3928  -0.3809  -0.3740
 -0.3671  -0.3557  -0.3516  -0.3423  -0.3387  -0.3300  -0.3264  -0.3086
 -0.2892  -0.2774  -0.2590  -0.2332  -0.2294  -0.2220  -0.2084  -0.1822
 -0.1146

          Ground-State Mulliken Net Atomic Charges

     Atom                 Charge (a.u.)
  ----------------------------------------
      1 C                    -0.003986
      2 C                    -0.384263
      3 C                    -0.471402
      4 C                     0.434854
      5 C                    -0.017045
      6 C                    -0.028982
      7 C                    -0.634775
      8 C                     0.266624
      9 C                     0.401029
     10 C                    -0.834824
     11 O                    -0.747623
     12 O                    -0.684519
     13 N                    -0.529419
     14 H                     0.154262
     15 H                     0.176054
     16 H                     0.176683
     17 H                     0.156641
     18 H                     0.288124
     19 H                     0.294302
     20 N                    -0.003572
     21 H                     0.346043
     22 C                     0.173965
     23 C                    -0.307753
     24 C                    -0.515119
     25 O                    -0.513719
     26 H                     0.149771
     27 H                     0.183366
     28 H                     0.148364
     29 H                     0.162006
     30 H                     0.164911
  ----------------------------------------
  Sum of atomic charges =    -2.000001

                    Cartesian Multipole Moments
 -----------------------------------------------------------------
    Charge (ESU x 10^10)
                -9.6064
    Dipole Moment (Debye)
         X      -7.5971      Y       5.9286      Z      -0.0409
       Tot       9.6367
    Quadrupole Moments (Debye-Ang)
        XX    -145.7510     XY       1.6072     YY    -163.6740
        XZ       4.6162     YZ      -1.3284     ZZ    -120.5231

 Total job time:  106.18s(wall), 823.48s(cpu)
        *  Thank you very much for using Q-Chem.  Have a nice day.  *
