 Q-Chem 5.4, Q-Chem, Inc., Pleasanton, CA (2021)
 Q-Chem 5.4.0 for Intel X86 EM64T Linux

User input:
--------------------------------------------------------------
$molecule
0 1
Br                 3.7335070000     -2.2105410000      0.6220850000
C                  2.2675290000     -1.0425990000      0.2855480000
C                  0.9975990000     -1.4903310000      0.3132360000
C                 -0.1594440000     -0.6372040000      0.0625750000
C                 -1.4517300000     -1.1726460000      0.1081200000
C                 -2.5606240000     -0.3626360000     -0.1304950000
C                 -2.3947310000      0.9918080000     -0.4175640000
C                 -1.1137180000      1.5371050000     -0.4658640000
C                  0.0012530000      0.7335100000     -0.2283540000
C                  1.3644250000      1.3200340000     -0.2812870000
O                  1.5800400000      2.4833130000     -0.5238250000
C                  2.5871260000      0.3726600000     -0.0064070000
O                  3.7041700000      0.8242250000     -0.0435440000
H                  0.8030460000     -2.5347730000      0.5309590000
H                 -1.5866520000     -2.2252980000      0.3309350000
H                 -3.5553080000     -0.7916630000     -0.0917400000
H                 -3.2588720000      1.6187790000     -0.6025720000
H                 -0.9576160000      2.5862570000     -0.6867050000
$end
$rem
MAX_SCF_CYCLES=200
BASIS  =  6-311++G(d,p)
GUI  =  2
JOB_TYPE  =  SP
METHOD  =  B3LYP
SOLVENT_METHOD = PCM
$end
$pcm
theory = CPCM
$end
$solvent
dielectric 37.219
opticaldielectric 1.43
$end

--------------------------------------------------------------

             Standard Nuclear Orientation (Angstroms)
    I     Atom           X                Y                Z
 ----------------------------------------------------------------
    1      Br      3.7335070000    -2.2105410000     0.6220850000
    2      C       2.2675290000    -1.0425990000     0.2855480000
    3      C       0.9975990000    -1.4903310000     0.3132360000
    4      C      -0.1594440000    -0.6372040000     0.0625750000
    5      C      -1.4517300000    -1.1726460000     0.1081200000
    6      C      -2.5606240000    -0.3626360000    -0.1304950000
    7      C      -2.3947310000     0.9918080000    -0.4175640000
    8      C      -1.1137180000     1.5371050000    -0.4658640000
    9      C       0.0012530000     0.7335100000    -0.2283540000
   10      C       1.3644250000     1.3200340000    -0.2812870000
   11      O       1.5800400000     2.4833130000    -0.5238250000
   12      C       2.5871260000     0.3726600000    -0.0064070000
   13      O       3.7041700000     0.8242250000    -0.0435440000
   14      H       0.8030460000    -2.5347730000     0.5309590000
   15      H      -1.5866520000    -2.2252980000     0.3309350000
   16      H      -3.5553080000    -0.7916630000    -0.0917400000
   17      H      -3.2588720000     1.6187790000    -0.6025720000
   18      H      -0.9576160000     2.5862570000    -0.6867050000
 ----------------------------------------------------------------

    9   -3108.8018313004      3.38e-06  Convergence criterion met
 Total energy in the final basis set =    -3108.8018313004

                    Orbital Energies (a.u.)
 --------------------------------------------------------------

 Alpha MOs
 -- Occupied --
******** -62.4982 -56.3188 -56.3149 -56.3147 -19.1540 -19.1526 -10.2972
-10.2954 -10.2531 -10.2281 -10.2208 -10.2107 -10.2043 -10.2026 -10.2017
-10.1985  -8.7070  -6.5387  -6.5256  -6.5250  -2.6495  -2.6458  -2.6455
 -2.6350  -2.6349  -1.1004  -1.0742  -0.9037  -0.8624  -0.8071  -0.7890
 -0.7488  -0.7179  -0.6430  -0.6320  -0.6096  -0.5568  -0.5252  -0.5175
 -0.4833  -0.4743  -0.4706  -0.4678  -0.4544  -0.4479  -0.4168  -0.4158
 -0.4008  -0.3848  -0.3718  -0.3564  -0.3291  -0.3115  -0.3060  -0.2854
 -0.2769  -0.2549

          Ground-State Mulliken Net Atomic Charges

     Atom                 Charge (a.u.)
  ----------------------------------------
      1 Br                   -0.144920
      2 C                     0.788649
      3 C                    -0.206782
      4 C                    -0.511026
      5 C                     0.015315
      6 C                    -0.339873
      7 C                    -0.340933
      8 C                     0.275645
      9 C                     0.762425
     10 C                    -0.392213
     11 O                    -0.267718
     12 C                    -0.498738
     13 O                    -0.249307
     14 H                     0.249180
     15 H                     0.202218
     16 H                     0.231213
     17 H                     0.229520
     18 H                     0.197345
  ----------------------------------------
  Sum of atomic charges =     0.000000

                    Cartesian Multipole Moments
 -----------------------------------------------------------------
    Charge (ESU x 10^10)
                -0.0000
    Dipole Moment (Debye)
         X      -8.9210      Y      -4.3873      Z       0.4671
       Tot       9.9525
    Quadrupole Moments (Debye-Ang)
        XX    -101.5485     XY      -9.0510     YY     -88.2873
        XZ       1.8254     YZ      -0.0940     ZZ     -87.7037

 Total job time:  51.38s(wall), 169.27s(cpu)
        *  Thank you very much for using Q-Chem.  Have a nice day.  *
