 Q-Chem 5.4, Q-Chem, Inc., Pleasanton, CA (2021)
 Q-Chem 5.4.0 for Intel X86 EM64T Linux

User input:
--------------------------------------------------------------
$molecule
0 1
C                 -0.1465940000      0.8399540000     -0.2447510000
C                 -1.2478010000      0.0161100000     -0.8496520000
C                 -1.5026350000     -1.2137500000     -0.3696200000
C                 -0.7345190000     -1.7974590000      0.7459960000
C                  0.3557080000     -0.9778100000      1.3303510000
C                  0.6598340000      0.2471660000      0.8671170000
O                  0.0524820000      1.9737570000     -0.6483740000
O                 -0.9769720000     -2.9129290000      1.1792500000
C                  1.8213080000      0.9888150000      1.5119060000
C                  2.6432220000      1.9453160000      0.6856020000
O                  2.0850560000      0.7538920000      2.6722770000
H                  2.0678640000      2.8529110000      0.4906980000
H                  2.8854550000      1.5173390000     -0.2909240000
H                  3.5537390000      2.1861930000      1.2328780000
H                  0.9085400000     -1.4159990000      2.1541160000
C                 -2.0152580000      0.6477020000     -1.9704850000
H                 -2.2924260000     -1.8370660000     -0.7758750000
H                 -2.4778970000      1.5818990000     -1.6409530000
H                 -2.7904720000     -0.0244910000     -2.3392910000
H                 -1.3474860000      0.9111100000     -2.7952940000
$end

$rem
BASIS  =  6-311++G(d,p)
GUI  =  2
JOB_TYPE  =  SP
METHOD  =  B3LYP
SCF_CONVERGENCE  = 8
SOLVENT_METHOD = sm12
$end

$smx
solvent dimethylformamide
charges CM5
$end

--------------------------------------------------------------

             Standard Nuclear Orientation (Angstroms)
    I     Atom           X                Y                Z
 ----------------------------------------------------------------
    1      C      -0.1465940000     0.8399540000    -0.2447510000
    2      C      -1.2478010000     0.0161100000    -0.8496520000
    3      C      -1.5026350000    -1.2137500000    -0.3696200000
    4      C      -0.7345190000    -1.7974590000     0.7459960000
    5      C       0.3557080000    -0.9778100000     1.3303510000
    6      C       0.6598340000     0.2471660000     0.8671170000
    7      O       0.0524820000     1.9737570000    -0.6483740000
    8      O      -0.9769720000    -2.9129290000     1.1792500000
    9      C       1.8213080000     0.9888150000     1.5119060000
   10      C       2.6432220000     1.9453160000     0.6856020000
   11      O       2.0850560000     0.7538920000     2.6722770000
   12      H       2.0678640000     2.8529110000     0.4906980000
   13      H       2.8854550000     1.5173390000    -0.2909240000
   14      H       3.5537390000     2.1861930000     1.2328780000
   15      H       0.9085400000    -1.4159990000     2.1541160000
   16      C      -2.0152580000     0.6477020000    -1.9704850000
   17      H      -2.2924260000    -1.8370660000    -0.7758750000
   18      H      -2.4778970000     1.5818990000    -1.6409530000
   19      H      -2.7904720000    -0.0244910000    -2.3392910000
   20      H      -1.3474860000     0.9111100000    -2.7952940000
 ----------------------------------------------------------------

   15    -573.5769011418      8.95e-09  Convergence criterion met
 Total energy in the final basis set =     -573.5939829771

                    Orbital Energies (a.u.)
 --------------------------------------------------------------

 Alpha MOs
 -- Occupied --
-19.1463 -19.1414 -19.1311 -10.2937 -10.2866 -10.2847 -10.2252 -10.2229
-10.2215 -10.2047 -10.1743 -10.1734  -1.0795  -1.0707  -1.0668  -0.8726
 -0.8193  -0.7579  -0.7315  -0.6961  -0.6487  -0.6000  -0.5577  -0.5353
 -0.5084  -0.4886  -0.4698  -0.4631  -0.4501  -0.4473  -0.4414  -0.4303
 -0.4276  -0.4092  -0.4051  -0.3989  -0.3908  -0.3767  -0.3162  -0.2953
 -0.2931  -0.2890  -0.2694

          Ground-State Mulliken Net Atomic Charges

     Atom                 Charge (a.u.)
  ----------------------------------------
      1 C                    -2.540352
      2 C                     1.894986
      3 C                    -0.279077
      4 C                    -0.859284
      5 C                    -0.255255
      6 C                     1.558984
      7 O                    -0.221553
      8 O                    -0.330441
      9 C                    -0.264333
     10 C                    -0.364324
     11 O                    -0.333222
     12 H                     0.204815
     13 H                     0.213634
     14 H                     0.188719
     15 H                     0.239219
     16 C                     0.248018
     17 H                     0.269750
     18 H                     0.195418
     19 H                     0.239569
     20 H                     0.194730
  ----------------------------------------
  Sum of atomic charges =     0.000000

                    Cartesian Multipole Moments
 -----------------------------------------------------------------
    Charge (ESU x 10^10)
                -0.0000
    Dipole Moment (Debye)
         X      -1.0643      Y       1.3678      Z      -4.0352
       Tot       4.3917
    Quadrupole Moments (Debye-Ang)
        XX     -64.7764     XY      -1.9019     YY     -81.4388
        XZ      -0.9077     YZ       3.9841     ZZ     -77.7299

 Total job time:  246.36s(wall), 1636.16s(cpu)
        *  Thank you very much for using Q-Chem.  Have a nice day.  *
