 Q-Chem 5.4, Q-Chem, Inc., Pleasanton, CA (2021)
 Q-Chem 5.4.0 for Intel X86 EM64T Linux

User input:
--------------------------------------------------------------
$molecule
-2 1
C                 -0.9280540000      2.1397990000      0.0110600000
C                 -2.0553870000      1.2817760000      0.0967840000
C                 -2.0110780000     -0.1002340000      0.1791770000
C                 -0.8336340000     -0.8879970000      0.1886520000
C                  0.3393610000     -0.0441890000      0.0833320000
C                  0.2959370000      1.3666960000      0.0004410000
O                 -0.9850000000      3.4356870000     -0.0347450000
O                 -0.8056340000     -2.1842760000      0.2670320000
C                  1.5758130000      2.1641320000     -0.1009160000
C                  1.6657130000     -0.7677600000      0.0453710000
O                 -3.3414910000     -0.5867720000      0.3017290000
O                 -3.4077240000      1.6959670000      0.2056420000
C                 -4.1113540000      0.5167060000     -0.1219300000
H                  2.1689040000      1.9106500000     -0.9956510000
H                  2.2444720000      2.0069980000      0.7625750000
H                  1.3112550000      3.2245060000     -0.1460560000
H                  1.4664340000     -1.8417630000      0.1021180000
H                  2.3281370000     -0.4895660000      0.8820670000
H                  2.2361550000     -0.5624900000     -0.8765100000
H                 -4.2435120000      0.4658960000     -1.2256500000
H                 -5.0843320000      0.5150230000      0.3813780000
$end
$rem
MAX_SCF_CYCLES=200
BASIS  =  6-311++G(d,p)
GUI  =  2
JOB_TYPE  =  SP
METHOD  =  B3LYP
SOLVENT_METHOD = COSMO
$end
$solvent
dielectric 37.219
opticaldielectric 1.43
$end

--------------------------------------------------------------

             Standard Nuclear Orientation (Angstroms)
    I     Atom           X                Y                Z
 ----------------------------------------------------------------
    1      C       0.2068160892    -1.5169934042    -0.0197441936
    2      C      -0.9472723150    -0.6910861219    -0.0394642799
    3      C      -0.9461692614     0.6940549920    -0.0487600878
    4      C       0.2066361829     1.5174257764    -0.0371475265
    5      C       1.4063104765     0.7060910293     0.0020829569
    6      C       1.4069702069    -0.7078696398     0.0103191998
    7      O       0.1897822052    -2.8146351724    -0.0421571785
    8      O       0.1940978140     2.8162782689    -0.0467215769
    9      C       2.7119848602    -1.4693890902     0.0461643140
   10      C       2.7107814032     1.4675129264     0.0549786412
   11      O      -2.2927473595     1.1448091333    -0.1214587713
   12      O      -2.2883967469    -1.1407733425    -0.1461707559
   13      C      -3.0206861141    -0.0028869598     0.2563487602
   14      H       3.3144578516    -1.2451944996     0.9424476726
   15      H       3.3587066218    -1.2461816934    -0.8194811565
   16      H       2.4803740619    -2.5383753528     0.0393537835
   17      H       2.4782172000     2.5363024076     0.0591884159
   18      H       3.3648892765     1.2546015579    -0.8070360298
   19      H       3.3049485445     1.2316801792     0.9542854576
   20      H      -3.1328382522    -0.0145537489     1.3633858036
   21      H      -4.0028717774    -0.0048669983    -0.2287443918
 ----------------------------------------------------------------

   10    -648.7690014074      9.44e-06  Convergence criterion met
 Total energy in the final basis set =     -648.7690014074
    5    -649.0742712248      8.33e-06  Convergence criterion met
 Total energy in the final basis set =     -649.0742712248

                    Orbital Energies (a.u.)
 --------------------------------------------------------------

 Alpha MOs
 -- Occupied --
-19.1356 -19.1356 -19.0226 -19.0225 -10.2597 -10.1788 -10.1781 -10.1754
-10.1753 -10.1349 -10.1347 -10.1294 -10.1289  -1.0942  -0.9989  -0.9352
 -0.9314  -0.7938  -0.7437  -0.6985  -0.6640  -0.6433  -0.6038  -0.5540
 -0.5425  -0.4967  -0.4781  -0.4630  -0.4299  -0.4111  -0.4043  -0.3760
 -0.3711  -0.3688  -0.3674  -0.3600  -0.3548  -0.3517  -0.3337  -0.3216
 -0.3161  -0.3026  -0.2949  -0.2193  -0.2079  -0.2023  -0.1776  -0.1226

          Ground-State Mulliken Net Atomic Charges

     Atom                 Charge (a.u.)
  ----------------------------------------
      1 C                    -0.807788
      2 C                     0.194361
      3 C                     0.235061
      4 C                    -0.814451
      5 C                     0.545560
      6 C                     0.557470
      7 O                    -0.788471
      8 O                    -0.790192
      9 C                    -0.499689
     10 C                    -0.498209
     11 O                    -0.262979
     12 O                    -0.255048
     13 C                    -0.063322
     14 H                     0.136147
     15 H                     0.138018
     16 H                     0.169822
     17 H                     0.169655
     18 H                     0.138153
     19 H                     0.135835
     20 H                     0.168824
     21 H                     0.191244
  ----------------------------------------
  Sum of atomic charges =    -2.000000

                    Cartesian Multipole Moments
 -----------------------------------------------------------------
    Charge (ESU x 10^10)
                -9.6064
    Dipole Moment (Debye)
         X      -0.2953      Y      -0.0454      Z       1.1827
       Tot       1.2198
    Quadrupole Moments (Debye-Ang)
        XX     -86.3079     XY       0.0108     YY    -154.3714
        XZ      -2.3646     YZ       0.0143     ZZ     -83.5468

 Total job time:  29.07s(wall), 210.88s(cpu)
        *  Thank you very much for using Q-Chem.  Have a nice day.  *
