 Q-Chem 5.4, Q-Chem, Inc., Pleasanton, CA (2021)
 Q-Chem 5.4.0 for Intel X86 EM64T Linux

User input:
--------------------------------------------------------------
$molecule
-2 1
C                  1.0080280000      4.2977880000      5.3424610000
C                  1.2297930000      4.0008060000      3.9424480000
C                  0.8424110000      2.8358000000      3.3333400000
C                  0.1462980000      1.7699750000      4.0160520000
C                 -0.0874750000      2.0479370000      5.4090640000
C                  0.3202130000      3.2654000000      6.0505450000
O                  1.4488860000      5.3800880000      5.8781500000
O                 -0.2466480000      0.7222430000      3.3932480000
H                  1.7488380000      4.7726440000      3.3746430000
H                  1.0316620000      2.6690610000      2.2739410000
S                 -1.1174830000      0.8843230000      6.2576960000
C                  0.2349790000      3.4993230000      7.5193170000
O                  0.9767400000      3.0666200000      8.3751240000
O                 -0.7640330000      4.3822940000      7.8404660000
C                 -0.8307770000      4.7409530000      9.2130590000
H                 -1.6568000000      5.4516750000      9.2974060000
H                  0.1018620000      5.2100440000      9.5422840000
H                 -1.0224740000      3.8632550000      9.8381520000
C                 -2.6829260000      0.8479310000      5.3313740000
C                 -2.8395070000      0.0109440000      4.2209900000
C                 -3.7205390000      1.6878870000      5.7432630000
C                 -4.0533660000      0.0205910000      3.5325810000
C                 -4.9286760000      1.6864750000      5.0498170000
C                 -5.1000110000      0.8500250000      3.9401620000
O                 -0.5994750000     -0.5005370000      6.2446090000
O                 -1.4921360000      1.4443040000      7.5817460000
H                 -2.0040100000     -0.5984810000      3.9093730000
H                 -3.5630040000      2.3256150000      6.6048140000
H                 -4.1783770000     -0.6213710000      2.6647460000
H                 -5.7364140000      2.3373920000      5.3730400000
H                 -6.0401570000      0.8522280000      3.3948480000
$end
$rem
MAX_SCF_CYCLES=200
BASIS  =  6-311++G(d,p)
GUI  =  2
JOB_TYPE  =  SP
METHOD  =  B3LYP
SOLVENT_METHOD = COSMO
$end
$solvent
dielectric 37.219
opticaldielectric 1.43
$end

--------------------------------------------------------------

             Standard Nuclear Orientation (Angstroms)
    I     Atom           X                Y                Z
 ----------------------------------------------------------------
    1      C       2.4994282749     1.3923726557     0.8341324412
    2      C       1.8741438064     2.6865601053     1.0116503349
    3      C       0.6499750153     3.0255624989     0.4970587514
    4      C      -0.1730635053     2.1199534889    -0.2704904840
    5      C       0.4296573813     0.8256736275    -0.4547791012
    6      C       1.7129788515     0.4689346310     0.0797738217
    7      O       3.6784153091     1.1479019096     1.2845937585
    8      O      -1.3359094001     2.4616795106    -0.6840681386
    9      H       2.4490235798     3.4113719623     1.5875888267
   10      H       0.2263171029     4.0142486698     0.6672283872
   11      S      -0.6069016822    -0.4001879132    -1.2017055256
   12      C       2.4213520135    -0.8022686011    -0.2388573112
   13      O       3.0232993724    -1.0712719071    -1.2562773263
   14      O       2.4186229970    -1.6704222044     0.8227929686
   15      C       3.1739706428    -2.8576319208     0.6302167326
   16      H       3.0829888236    -3.4249938998     1.5599354360
   17      H       4.2258011447    -2.6265104620     0.4340371264
   18      H       2.7799797488    -3.4406521477    -0.2080561157
   19      C      -2.0773000795    -0.5145579979    -0.1364090183
   20      C      -3.1607863402     0.3528118417    -0.3145790479
   21      C      -2.0934628676    -1.4773282802     0.8758318205
   22      C      -4.2653588227     0.2377125429     0.5304803997
   23      C      -3.2030070915    -1.5845367190     1.7112253358
   24      C      -4.2957983556    -0.7260938462     1.5402820967
   25      O      -1.1006559105    -0.0335920206    -2.5463820632
   26      O       0.0420782966    -1.7299092399    -1.0685958959
   27      H      -3.0988007737     1.1083920527    -1.0838745416
   28      H      -1.2355689065    -2.1295030617     0.9875028096
   29      H      -5.1065727692     0.9135684392     0.4021899071
   30      H      -3.2162756764    -2.3360090966     2.4959035727
   31      H      -5.1596442145    -0.8049783920     2.1951059459
 ----------------------------------------------------------------

   11   -1389.2778092210      9.67e-06  Convergence criterion met
 Total energy in the final basis set =    -1389.2778092210
    6   -1389.5587608938      4.03e-06  Convergence criterion met
 Total energy in the final basis set =    -1389.5587608938

                    Orbital Energies (a.u.)
 --------------------------------------------------------------

 Alpha MOs
 -- Occupied --
-89.0378 -19.1529 -19.1071 -19.1066 -19.1022 -19.0413 -19.0339 -10.2966
-10.2063 -10.2057 -10.1988 -10.1962 -10.1820 -10.1789 -10.1778 -10.1775
-10.1773 -10.1759 -10.1599 -10.1501 -10.1473  -8.1013  -6.0644  -6.0631
 -6.0619  -1.0972  -1.0928  -1.0110  -0.9899  -0.9637  -0.9534  -0.8633
 -0.8132  -0.7695  -0.7515  -0.7496  -0.7250  -0.6844  -0.6524  -0.6129
 -0.6087  -0.5925  -0.5578  -0.5467  -0.5244  -0.4952  -0.4821  -0.4758
 -0.4735  -0.4695  -0.4666  -0.4513  -0.4434  -0.4378  -0.4306  -0.4244
 -0.4098  -0.3874  -0.3847  -0.3828  -0.3722  -0.3684  -0.3597  -0.3575
 -0.3478  -0.3438  -0.3373  -0.3298  -0.3160  -0.3025  -0.2925  -0.2886
 -0.2835  -0.2660  -0.2610  -0.2477  -0.2402  -0.2184  -0.2142  -0.1447

          Ground-State Mulliken Net Atomic Charges

     Atom                 Charge (a.u.)
  ----------------------------------------
      1 C                    -0.449921
      2 C                    -0.236616
      3 C                    -0.017994
      4 C                    -0.189080
      5 C                     0.203297
      6 C                     0.634680
      7 O                    -0.685998
      8 O                    -0.575047
      9 H                     0.185347
     10 H                     0.190569
     11 S                    -0.108806
     12 C                    -0.478336
     13 O                    -0.262244
     14 O                     0.015414
     15 C                    -0.260092
     16 H                     0.165635
     17 H                     0.177552
     18 H                     0.174790
     19 C                     0.120649
     20 C                     0.030423
     21 C                    -0.049526
     22 C                    -0.433723
     23 C                    -0.483560
     24 C                    -0.335409
     25 O                    -0.234695
     26 O                    -0.252988
     27 H                     0.281769
     28 H                     0.219775
     29 H                     0.222799
     30 H                     0.228112
     31 H                     0.203224
  ----------------------------------------
  Sum of atomic charges =    -2.000000

                    Cartesian Multipole Moments
 -----------------------------------------------------------------
    Charge (ESU x 10^10)
                -9.6064
    Dipole Moment (Debye)
         X     -12.0954      Y      -8.6919      Z       6.4121
       Tot      16.2161
    Quadrupole Moments (Debye-Ang)
        XX    -189.9251     XY      -7.0331     YY    -156.0934
        XZ     -20.3613     YZ      -9.0650     ZZ    -161.5407

 Total job time:  102.08s(wall), 786.65s(cpu)
        *  Thank you very much for using Q-Chem.  Have a nice day.  *
