 Q-Chem 5.4, Q-Chem, Inc., Pleasanton, CA (2021)
 Q-Chem 5.4.0 for Intel X86 EM64T Linux

User input:
--------------------------------------------------------------
$molecule
-1 2
C                 -1.8391490000      1.7251060000     -0.7986380000
C                 -2.5618970000      0.8793390000     -1.6136100000
C                 -2.0700200000     -0.4118320000     -1.9022100000
C                 -0.6113920000      1.3200700000     -0.2461340000
C                 -0.1183300000      0.0248630000     -0.5360420000
C                 -0.8672670000     -0.8247750000     -1.3688370000
C                  0.1333670000      2.2452750000      0.6185300000
C                  1.3933240000      1.7604800000      1.1509370000
C                  1.8714330000      0.4852010000      0.8725930000
C                  1.1585640000     -0.4420610000      0.0171680000
O                 -0.3175420000      3.3954040000      0.8706960000
O                  1.5998870000     -1.5939070000     -0.2463200000
C                  2.1534090000      2.7186080000      2.0386840000
C                  3.1845480000     -0.0174280000      1.4284960000
C                  4.3637070000      0.1565170000      0.4509470000
C                  5.6835490000     -0.4017660000      0.9940800000
C                  6.8628970000     -0.2438650000      0.0273910000
C                  8.1830670000     -0.8093640000      0.5639560000
C                  9.3615560000     -0.6523970000     -0.4039110000
C                 10.6807950000     -1.2211230000      0.1312600000
C                 11.8586990000     -1.0647990000     -0.8370280000
C                 13.1780160000     -1.6342150000     -0.3030080000
C                 14.3483890000     -1.4735560000     -1.2780980000
Cl                -2.9719250000     -1.5182380000     -2.9417290000
Cl                -4.0979110000      1.4382450000     -2.2818210000
H                 -2.2006560000      2.7186540000     -0.5658420000
H                 -0.4730970000     -1.8109210000     -1.5792940000
H                  1.6642020000      3.6923660000      2.0131590000
H                  3.1949200000      2.8348340000      1.7213360000
H                  2.1710100000      2.3767370000      3.0814360000
H                  3.0762970000     -1.0861050000      1.6374860000
H                  3.4206810000      0.4850490000      2.3718890000
H                  4.4871450000      1.2204150000      0.2117490000
H                  4.1084030000     -0.3502720000     -0.4850040000
H                  5.5507830000     -1.4656010000      1.2305350000
H                  5.9273500000      0.0936950000      1.9443000000
H                  6.9959600000      0.8199480000     -0.2104260000
H                  6.6172740000     -0.7376400000     -0.9216070000
H                  8.0496730000     -1.8732150000      0.8005970000
H                  8.4283240000     -0.3164620000      1.5142600000
H                  9.4961110000      0.4114630000     -0.6398680000
H                  9.1155400000     -1.1438850000     -1.3542570000
H                 10.5459940000     -2.2849930000      0.3669130000
H                 10.9271200000     -0.7296590000      1.0818140000
H                 11.9949360000     -0.0010490000     -1.0729910000
H                 11.6132280000     -1.5560040000     -1.7878820000
H                 13.0426370000     -2.6971270000     -0.0678750000
H                 13.4243940000     -1.1430950000      0.6465230000
H                 14.1461650000     -1.9839050000     -2.2253600000
H                 15.2734540000     -1.8894760000     -0.8677800000
H                 14.5308960000     -0.4183050000     -1.5058230000
$end
$rem
MAX_SCF_CYCLES=200
BASIS  =  6-311++G(d,p)
GUI  =  2
JOB_TYPE  =  SP
METHOD  =  B3LYP
SCF_CONVERGENCE = 8
scf_guess = GWH
SCF_ALGORITHM = RCA_DIIS
THRESH = 14
SOLVENT_METHOD = PCM
$end
$pcm
theory = CPCM
$end
$solvent
dielectric 37.219
opticaldielectric 1.43
$end

--------------------------------------------------------------

             Standard Nuclear Orientation (Angstroms)
    I     Atom           X                Y                Z
 ----------------------------------------------------------------
    1      C      -1.8391490000     1.7251060000    -0.7986380000
    2      C      -2.5618970000     0.8793390000    -1.6136100000
    3      C      -2.0700200000    -0.4118320000    -1.9022100000
    4      C      -0.6113920000     1.3200700000    -0.2461340000
    5      C      -0.1183300000     0.0248630000    -0.5360420000
    6      C      -0.8672670000    -0.8247750000    -1.3688370000
    7      C       0.1333670000     2.2452750000     0.6185300000
    8      C       1.3933240000     1.7604800000     1.1509370000
    9      C       1.8714330000     0.4852010000     0.8725930000
   10      C       1.1585640000    -0.4420610000     0.0171680000
   11      O      -0.3175420000     3.3954040000     0.8706960000
   12      O       1.5998870000    -1.5939070000    -0.2463200000
   13      C       2.1534090000     2.7186080000     2.0386840000
   14      C       3.1845480000    -0.0174280000     1.4284960000
   15      C       4.3637070000     0.1565170000     0.4509470000
   16      C       5.6835490000    -0.4017660000     0.9940800000
   17      C       6.8628970000    -0.2438650000     0.0273910000
   18      C       8.1830670000    -0.8093640000     0.5639560000
   19      C       9.3615560000    -0.6523970000    -0.4039110000
   20      C      10.6807950000    -1.2211230000     0.1312600000
   21      C      11.8586990000    -1.0647990000    -0.8370280000
   22      C      13.1780160000    -1.6342150000    -0.3030080000
   23      C      14.3483890000    -1.4735560000    -1.2780980000
   24      Cl     -2.9719250000    -1.5182380000    -2.9417290000
   25      Cl     -4.0979110000     1.4382450000    -2.2818210000
   26      H      -2.2006560000     2.7186540000    -0.5658420000
   27      H      -0.4730970000    -1.8109210000    -1.5792940000
   28      H       1.6642020000     3.6923660000     2.0131590000
   29      H       3.1949200000     2.8348340000     1.7213360000
   30      H       2.1710100000     2.3767370000     3.0814360000
   31      H       3.0762970000    -1.0861050000     1.6374860000
   32      H       3.4206810000     0.4850490000     2.3718890000
   33      H       4.4871450000     1.2204150000     0.2117490000
   34      H       4.1084030000    -0.3502720000    -0.4850040000
   35      H       5.5507830000    -1.4656010000     1.2305350000
   36      H       5.9273500000     0.0936950000     1.9443000000
   37      H       6.9959600000     0.8199480000    -0.2104260000
   38      H       6.6172740000    -0.7376400000    -0.9216070000
   39      H       8.0496730000    -1.8732150000     0.8005970000
   40      H       8.4283240000    -0.3164620000     1.5142600000
   41      H       9.4961110000     0.4114630000    -0.6398680000
   42      H       9.1155400000    -1.1438850000    -1.3542570000
   43      H      10.5459940000    -2.2849930000     0.3669130000
   44      H      10.9271200000    -0.7296590000     1.0818140000
   45      H      11.9949360000    -0.0010490000    -1.0729910000
   46      H      11.6132280000    -1.5560040000    -1.7878820000
   47      H      13.0426370000    -2.6971270000    -0.0678750000
   48      H      13.4243940000    -1.1430950000     0.6465230000
   49      H      14.1461650000    -1.9839050000    -2.2253600000
   50      H      15.2734540000    -1.8894760000    -0.8677800000
   51      H      14.5308960000    -0.4183050000    -1.5058230000
 ----------------------------------------------------------------

   98   -1887.2287867211      6.15E-09 Convergence criterion met
 Total energy in the final basis set = -1887.22878672

                    Orbital Energies (a.u.)
 --------------------------------------------------------------

 Alpha MOs
 -- Occupied --
********-101.5619 -19.0790 -19.0783 -10.2477 -10.2472 -10.2240 -10.2231
-10.1873 -10.1873 -10.1824 -10.1819 -10.1722 -10.1686 -10.1574 -10.1556
-10.1550 -10.1547 -10.1545 -10.1544 -10.1542 -10.1541 -10.1539 -10.1516
-10.1511  -9.4764  -9.4764  -7.2411  -7.2409  -7.2313  -7.2313  -7.2308
 -7.2308  -1.0052  -1.0023  -0.9145  -0.8606  -0.8489  -0.8182  -0.8056
 -0.7894  -0.7665  -0.7575  -0.7477  -0.7339  -0.7059  -0.6797  -0.6610
 -0.6452  -0.6200  -0.6037  -0.5830  -0.5733  -0.5692  -0.5665  -0.5555
 -0.5202  -0.4925  -0.4886  -0.4797  -0.4686  -0.4593  -0.4426  -0.4417
 -0.4370  -0.4323  -0.4278  -0.4240  -0.4174  -0.4144  -0.4102  -0.4068
 -0.4004  -0.3939  -0.3857  -0.3844  -0.3813  -0.3766  -0.3748  -0.3618
 -0.3585  -0.3536  -0.3518  -0.3477  -0.3359  -0.3352  -0.3324  -0.3304
 -0.3254  -0.3222  -0.3181  -0.3174  -0.3154  -0.3145  -0.3138  -0.2961
 -0.2668  -0.2634  -0.2508  -0.2409  -0.2384  -0.1546

 Beta MOs
 -- Occupied --
********-101.5619 -19.0728 -19.0723 -10.2472 -10.2468 -10.2223 -10.2214
-10.1874 -10.1873 -10.1817 -10.1812 -10.1710 -10.1674 -10.1574 -10.1556
-10.1549 -10.1547 -10.1545 -10.1544 -10.1542 -10.1541 -10.1539 -10.1517
-10.1511  -9.4764  -9.4763  -7.2411  -7.2409  -7.2312  -7.2312  -7.2308
 -7.2308  -0.9945  -0.9915  -0.9136  -0.8602  -0.8461  -0.8160  -0.8052
 -0.7888  -0.7657  -0.7558  -0.7461  -0.7326  -0.7040  -0.6786  -0.6558
 -0.6433  -0.6195  -0.6027  -0.5808  -0.5729  -0.5686  -0.5665  -0.5528
 -0.5188  -0.4905  -0.4866  -0.4795  -0.4681  -0.4588  -0.4422  -0.4406
 -0.4322  -0.4288  -0.4259  -0.4211  -0.4162  -0.4121  -0.4094  -0.4039
 -0.3975  -0.3895  -0.3841  -0.3813  -0.3771  -0.3753  -0.3611  -0.3600
 -0.3562  -0.3525  -0.3468  -0.3458  -0.3353  -0.3348  -0.3317  -0.3296
 -0.3220  -0.3199  -0.3174  -0.3160  -0.3152  -0.3144  -0.3126  -0.2951
 -0.2573  -0.2469  -0.2451  -0.2335  -0.2316

          Ground-State Mulliken Net Atomic Charges

     Atom                 Charge (a.u.)    Spin (a.u.)
  --------------------------------------------------------
      1 C                    -0.504170       0.018432
      2 C                     0.426027       0.031047
      3 C                     0.333444       0.031361
      4 C                    -0.546597       0.021690
      5 C                    -0.386724       0.064051
      6 C                    -0.377267       0.029266
      7 C                    -0.584650       0.105490
      8 C                     0.482270       0.050077
      9 C                     0.578733       0.079364
     10 C                    -0.800763       0.083794
     11 O                    -0.497308       0.225175
     12 O                    -0.467076       0.224897
     13 C                    -0.412030       0.002445
     14 C                    -0.346877       0.019532
     15 C                    -0.991816       0.001568
     16 C                    -0.274889       0.004420
     17 C                     0.031446      -0.003664
     18 C                     0.071758      -0.000455
     19 C                    -0.009003      -0.000079
     20 C                    -0.243527       0.000158
     21 C                    -0.462481       0.000024
     22 C                    -0.293006       0.000011
     23 C                    -0.712201      -0.000005
     24 Cl                    0.504285       0.002427
     25 Cl                    0.499095       0.002442
     26 H                     0.220901      -0.001582
     27 H                     0.217563      -0.001854
     28 H                     0.178377      -0.001507
     29 H                     0.173439       0.003979
     30 H                     0.190236       0.005517
     31 H                     0.209630       0.002860
     32 H                     0.184186       0.000591
     33 H                     0.134825      -0.000782
     34 H                     0.195777      -0.000409
     35 H                     0.125481       0.000212
     36 H                     0.120942      -0.000451
     37 H                     0.134488       0.000122
     38 H                     0.128989      -0.000160
     39 H                     0.134937      -0.000001
     40 H                     0.135153      -0.000001
     41 H                     0.133864      -0.000005
     42 H                     0.134639       0.000004
     43 H                     0.130757       0.000002
     44 H                     0.131285      -0.000001
     45 H                     0.128224       0.000001
     46 H                     0.128468      -0.000001
     47 H                     0.135024      -0.000001
     48 H                     0.135219       0.000000
     49 H                     0.144802      -0.000000
     50 H                     0.151491      -0.000001
     51 H                     0.144629       0.000000
  --------------------------------------------------------
  Sum of atomic charges =    -1.000000

                    Cartesian Multipole Moments
 -----------------------------------------------------------------
    Charge (ESU x 10^10)
                -4.8032
    Dipole Moment (Debye)
         X       1.5638      Y      -3.3381      Z       1.7416
       Tot       4.0770
    Quadrupole Moments (Debye-Ang)
        XX    -189.7641     XY      10.7577     YY    -204.3962
        XZ      -3.9026     YZ      -6.3154     ZZ    -180.2804

 Total job time:  4056.60s(wall), 25607.62s(cpu)
        *  Thank you very much for using Q-Chem.  Have a nice day.  *
