 Q-Chem 5.4, Q-Chem, Inc., Pleasanton, CA (2021)
 Q-Chem 5.4.0 for Intel X86 EM64T Linux

User input:
--------------------------------------------------------------
$molecule
-1 2
C                 -1.9229320000     -0.2935880000      1.2230200000
C                 -2.7541370000      0.7634990000      0.6022820000
C                 -2.1694110000      1.6771850000     -0.2485450000
C                 -0.7664060000      1.6976720000     -0.5560680000
C                  0.0648280000      0.6405910000      0.0647030000
C                 -0.5199120000     -0.2731060000      0.9155040000
O                 -0.2151440000      2.5292110000     -1.3241690000
O                 -2.4741960000     -1.1251530000      1.9910910000
Br                 0.5317030000     -1.5748170000      1.8889240000
Br                -3.2210800000      2.9788370000     -1.2219770000
N                  1.4163330000      0.7427550000     -0.2718980000
N                 -4.1056810000      0.6614200000      0.9388590000
C                 -4.8496320000      1.7760990000      1.5421640000
C                 -6.3173750000      1.3577770000      1.7035980000
C                 -7.1630190000      2.4699270000      2.3416610000
C                 -6.5730670000      2.9403400000      3.6792670000
C                 -5.1038030000      3.3575000000      3.5221520000
C                 -4.2652430000      2.2349270000      2.8936160000
C                  2.1606390000     -0.3718940000     -0.8747790000
C                  3.6281290000      0.0470690000     -1.0368540000
C                  1.5761020000     -0.8317520000     -2.2258210000
C                  2.4150440000     -1.9542510000     -2.8539760000
C                  4.4741450000     -1.0650160000     -1.6745370000
C                  3.8840570000     -1.5364510000     -3.0117240000
H                  1.4852260000      1.5764630000     -0.8587550000
H                 -4.1746460000     -0.1723680000      1.5255930000
H                 -4.8141650000      2.6204450000      0.8506760000
H                 -6.3636370000      0.4575960000      2.3329320000
H                 -6.7185930000      1.0787440000      0.7246280000
H                 -8.1939370000      2.1244690000      2.4816890000
H                 -7.2124870000      3.3232090000      1.6522950000
H                 -6.6380630000      2.1219880000      4.4090140000
H                 -7.1656450000      3.7691350000      4.0846320000
H                 -4.6844520000      3.6436190000      4.4934870000
H                 -5.0491830000      4.2505350000      2.8854280000
H                 -4.2279630000      1.3734950000      3.5732460000
H                 -3.2321210000      2.5633000000      2.7476200000
H                  2.1257850000     -1.2158900000     -0.1828330000
H                  4.0294910000      0.3268410000     -0.0581520000
H                  3.6737730000      0.9469240000     -1.6667000000
H                  1.5382110000      0.0292960000     -2.9059040000
H                  0.5431860000     -1.1605600000     -2.0793530000
H                  1.9955670000     -2.2411050000     -3.8250400000
H                  2.3610360000     -2.8469660000     -2.2167520000
H                  4.5242210000     -1.9178960000     -0.9847180000
H                  5.5048530000     -0.7191260000     -1.8150350000
H                  4.4769340000     -2.3651730000     -3.4167970000
H                  3.9484490000     -0.7184650000     -3.7419340000
$end

$rem
BASIS  =  6-311++G(d,p)
GUI  =  2
JOB_TYPE  =  SP
METHOD  =  B3LYP
SCF_CONVERGENCE  = 8
SOLVENT_METHOD = sm12
$end

$smx
solvent dimethylformamide
charges CM5
$end

--------------------------------------------------------------

             Standard Nuclear Orientation (Angstroms)
    I     Atom           X                Y                Z
 ----------------------------------------------------------------
    1      C      -1.9229320000    -0.2935880000     1.2230200000
    2      C      -2.7541370000     0.7634990000     0.6022820000
    3      C      -2.1694110000     1.6771850000    -0.2485450000
    4      C      -0.7664060000     1.6976720000    -0.5560680000
    5      C       0.0648280000     0.6405910000     0.0647030000
    6      C      -0.5199120000    -0.2731060000     0.9155040000
    7      O      -0.2151440000     2.5292110000    -1.3241690000
    8      O      -2.4741960000    -1.1251530000     1.9910910000
    9      Br      0.5317030000    -1.5748170000     1.8889240000
   10      Br     -3.2210800000     2.9788370000    -1.2219770000
   11      N       1.4163330000     0.7427550000    -0.2718980000
   12      N      -4.1056810000     0.6614200000     0.9388590000
   13      C      -4.8496320000     1.7760990000     1.5421640000
   14      C      -6.3173750000     1.3577770000     1.7035980000
   15      C      -7.1630190000     2.4699270000     2.3416610000
   16      C      -6.5730670000     2.9403400000     3.6792670000
   17      C      -5.1038030000     3.3575000000     3.5221520000
   18      C      -4.2652430000     2.2349270000     2.8936160000
   19      C       2.1606390000    -0.3718940000    -0.8747790000
   20      C       3.6281290000     0.0470690000    -1.0368540000
   21      C       1.5761020000    -0.8317520000    -2.2258210000
   22      C       2.4150440000    -1.9542510000    -2.8539760000
   23      C       4.4741450000    -1.0650160000    -1.6745370000
   24      C       3.8840570000    -1.5364510000    -3.0117240000
   25      H       1.4852260000     1.5764630000    -0.8587550000
   26      H      -4.1746460000    -0.1723680000     1.5255930000
   27      H      -4.8141650000     2.6204450000     0.8506760000
   28      H      -6.3636370000     0.4575960000     2.3329320000
   29      H      -6.7185930000     1.0787440000     0.7246280000
   30      H      -8.1939370000     2.1244690000     2.4816890000
   31      H      -7.2124870000     3.3232090000     1.6522950000
   32      H      -6.6380630000     2.1219880000     4.4090140000
   33      H      -7.1656450000     3.7691350000     4.0846320000
   34      H      -4.6844520000     3.6436190000     4.4934870000
   35      H      -5.0491830000     4.2505350000     2.8854280000
   36      H      -4.2279630000     1.3734950000     3.5732460000
   37      H      -3.2321210000     2.5633000000     2.7476200000
   38      H       2.1257850000    -1.2158900000    -0.1828330000
   39      H       4.0294910000     0.3268410000    -0.0581520000
   40      H       3.6737730000     0.9469240000    -1.6667000000
   41      H       1.5382110000     0.0292960000    -2.9059040000
   42      H       0.5431860000    -1.1605600000    -2.0793530000
   43      H       1.9955670000    -2.2411050000    -3.8250400000
   44      H       2.3610360000    -2.8469660000    -2.2167520000
   45      H       4.5242210000    -1.9178960000    -0.9847180000
   46      H       5.5048530000    -0.7191260000    -1.8150350000
   47      H       4.4769340000    -2.3651730000    -3.4167970000
   48      H       3.9484490000    -0.7184650000    -3.7419340000
 ----------------------------------------------------------------

   15   -6108.9486412946      8.29e-09  Convergence criterion met
 Total energy in the final basis set =    -6109.0286334614

                    Orbital Energies (a.u.)
 --------------------------------------------------------------

 Alpha MOs
 -- Occupied --
********-482.8141 -62.4668 -62.4668 -56.2872 -56.2872 -56.2835 -56.2835
-56.2833 -56.2833 -19.0753 -19.0753 -14.3106 -14.3106 -10.2270 -10.2270
-10.2106 -10.2106 -10.2043 -10.2043 -10.1991 -10.1991 -10.1671 -10.1671
-10.1671 -10.1671 -10.1659 -10.1659 -10.1658 -10.1658 -10.1638 -10.1638
 -8.6754  -8.6754  -6.5064  -6.5064  -6.4944  -6.4944  -6.4935  -6.4935
 -2.6174  -2.6174  -2.6142  -2.6142  -2.6134  -2.6134  -2.6039  -2.6039
 -2.6038  -2.6038  -1.0081  -1.0046  -0.9246  -0.9242  -0.8394  -0.8291
 -0.8172  -0.7981  -0.7639  -0.7477  -0.7451  -0.7432  -0.7283  -0.6868
 -0.6672  -0.6225  -0.6143  -0.6134  -0.6063  -0.5813  -0.5649  -0.5620
 -0.5514  -0.5173  -0.4909  -0.4874  -0.4855  -0.4748  -0.4514  -0.4468
 -0.4451  -0.4438  -0.4341  -0.4332  -0.4169  -0.4122  -0.4117  -0.4033
 -0.3958  -0.3940  -0.3915  -0.3825  -0.3821  -0.3818  -0.3768  -0.3605
 -0.3517  -0.3512  -0.3482  -0.3481  -0.3318  -0.3265  -0.3256  -0.3196
 -0.3182  -0.3137  -0.3071  -0.3037  -0.2803  -0.2734  -0.2729  -0.2704
 -0.2505  -0.2412  -0.2343  -0.2028  -0.1494

 Beta MOs
 -- Occupied --
********-482.8141 -62.4668 -62.4668 -56.2872 -56.2872 -56.2835 -56.2835
-56.2833 -56.2833 -19.0693 -19.0693 -14.3096 -14.3096 -10.2253 -10.2253
-10.2084 -10.2084 -10.2046 -10.2046 -10.1990 -10.1990 -10.1672 -10.1672
-10.1671 -10.1671 -10.1659 -10.1659 -10.1658 -10.1658 -10.1638 -10.1638
 -8.6754  -8.6754  -6.5065  -6.5065  -6.4944  -6.4944  -6.4935  -6.4935
 -2.6174  -2.6174  -2.6142  -2.6142  -2.6134  -2.6134  -2.6039  -2.6039
 -2.6038  -2.6038  -0.9983  -0.9944  -0.9219  -0.9208  -0.8369  -0.8287
 -0.8161  -0.7976  -0.7622  -0.7468  -0.7450  -0.7423  -0.7275  -0.6855
 -0.6588  -0.6216  -0.6141  -0.6132  -0.6053  -0.5784  -0.5646  -0.5604
 -0.5492  -0.5157  -0.4893  -0.4860  -0.4836  -0.4740  -0.4511  -0.4453
 -0.4443  -0.4434  -0.4329  -0.4286  -0.4107  -0.4104  -0.4076  -0.4000
 -0.3933  -0.3923  -0.3881  -0.3822  -0.3820  -0.3784  -0.3607  -0.3572
 -0.3515  -0.3491  -0.3481  -0.3461  -0.3282  -0.3264  -0.3253  -0.3186
 -0.3178  -0.3106  -0.3060  -0.2930  -0.2734  -0.2724  -0.2679  -0.2672
 -0.2449  -0.2358  -0.2195  -0.1965

          Ground-State Mulliken Net Atomic Charges

     Atom                 Charge (a.u.)    Spin (a.u.)
  --------------------------------------------------------
      1 C                    -0.672568       0.115722
      2 C                    -1.059015       0.167031
      3 C                     0.447775      -0.047781
      4 C                    -0.672385       0.115720
      5 C                    -1.058094       0.166971
      6 C                     0.448478      -0.047733
      7 O                    -0.281280       0.222687
      8 O                    -0.281278       0.222686
      9 Br                    0.134251       0.001254
     10 Br                    0.134167       0.001256
     11 N                     0.271407       0.043473
     12 N                     0.271584       0.043454
     13 C                    -0.770382      -0.005741
     14 C                     0.131353       0.002794
     15 C                     0.262442      -0.000713
     16 C                     0.139441      -0.000020
     17 C                     0.141026       0.000381
     18 C                    -0.792355       0.001051
     19 C                    -0.770203      -0.005750
     20 C                     0.131276       0.002786
     21 C                    -0.792410       0.001062
     22 C                     0.141138       0.000381
     23 C                     0.262452      -0.000711
     24 C                     0.139448      -0.000019
     25 H                     0.229838      -0.000670
     26 H                     0.229887      -0.000669
     27 H                    -0.168059      -0.001266
     28 H                     0.109332      -0.000621
     29 H                     0.155271       0.001957
     30 H                     0.286383      -0.000265
     31 H                     0.123608       0.000272
     32 H                     0.112618       0.000270
     33 H                     0.273951      -0.000160
     34 H                     0.224949       0.000508
     35 H                     0.150903       0.000099
     36 H                     0.051662       0.000239
     37 H                    -0.003695      -0.000485
     38 H                    -0.167900      -0.001265
     39 H                     0.155327       0.001957
     40 H                     0.109358      -0.000621
     41 H                     0.051613       0.000242
     42 H                    -0.003741      -0.000487
     43 H                     0.224947       0.000508
     44 H                     0.150896       0.000099
     45 H                     0.123633       0.000272
     46 H                     0.286395      -0.000265
     47 H                     0.273946      -0.000160
     48 H                     0.112610       0.000270
  --------------------------------------------------------
  Sum of atomic charges =    -1.000000

                    Cartesian Multipole Moments
 -----------------------------------------------------------------
    Charge (ESU x 10^10)
                -4.8032
    Dipole Moment (Debye)
         X       6.4598      Y      -3.3721      Z      -1.6017
       Tot       7.4609
    Quadrupole Moments (Debye-Ang)
        XX    -193.3270     XY       0.4991     YY    -199.7827
        XZ      -1.2038     YZ      16.3798     ZZ    -190.5497

 Total job time:  2757.98s(wall), 19720.84s(cpu)
        *  Thank you very much for using Q-Chem.  Have a nice day.  *
