 Q-Chem 5.4, Q-Chem, Inc., Pleasanton, CA (2021)
 Q-Chem 5.4.0 for Intel X86 EM64T Linux

User input:
--------------------------------------------------------------
$molecule
-2 1
C                  4.8107760000     -0.6218120000      0.1861410000
C                  3.4728310000     -0.3688970000     -0.5256430000
O                  3.4522430000     -0.2148720000     -1.7614720000
O                  2.6022560000     -1.5636770000     -0.0111670000
C                  1.2616400000     -1.3942430000     -0.1219160000
C                  0.4085300000     -2.4695740000     -0.3016350000
C                 -0.9974380000     -2.2904280000     -0.3442180000
C                 -1.5616150000     -1.0306840000     -0.2388340000
O                 -2.8998490000     -0.8417400000     -0.3475850000
C                 -3.4725880000      0.3691700000      0.4615410000
C                 -4.8108340000      0.6217250000     -0.2498470000
O                 -3.4516250000      0.2154860000      1.6973970000
C                 -0.7053040000      0.0906490000     -0.0603700000
C                 -1.2615930000      1.3942030000      0.0575010000
O                 -2.6023530000      1.5635950000     -0.0535640000
C                 -0.4085970000      2.4695390000      0.2373050000
C                  0.9974070000      2.2903840000      0.2800310000
C                  1.5615590000      1.0306460000      0.1746280000
O                  2.8997500000      0.8417480000      0.2836370000
C                  0.7052750000     -0.0907300000     -0.0040250000
H                  5.2537870000     -1.5291610000     -0.2333520000
H                  5.4709380000      0.2255930000     -0.0179260000
H                  4.6848340000     -0.7386670000      1.2648640000
H                  0.8369940000     -3.4628540000     -0.3994920000
H                 -1.6545960000     -3.1457340000     -0.4721000000
H                 -4.6854650000      0.7368430000     -1.3288210000
H                 -5.2530850000      1.5299980000      0.1684800000
H                 -5.4713530000     -0.2249700000     -0.0440390000
H                 -0.8370940000      3.4627970000      0.3351800000
H                  1.6545680000      3.1456660000      0.4080380000
$end
$rem
MAX_SCF_CYCLES=200
BASIS  =  6-311++G(d,p)
GUI  =  2
JOB_TYPE  =  SP
METHOD  =  B3LYP
SOLVENT_METHOD = COSMO
$end
$solvent
dielectric 37.219
opticaldielectric 1.43
$end

--------------------------------------------------------------

             Standard Nuclear Orientation (Angstroms)
    I     Atom           X                Y                Z
 ----------------------------------------------------------------
    1      C      -4.8221094826     0.0002441997     0.5700142960
    2      C      -3.5186419476    -0.0002422283    -0.2434175890
    3      O      -3.5694235746    -0.0007248464    -1.4879423485
    4      O      -2.7549842051     1.2210251546     0.3692964272
    5      C      -1.4152262254     1.2307643971     0.1615028189
    6      C      -0.7051132100     2.4157808671     0.0725768836
    7      C       0.7054005801     2.4157087913    -0.0726934192
    8      C       1.4153375907     1.2306321845    -0.1617961538
    9      O       2.7550983294     1.2206189875    -0.3699733688
   10      C       3.5184772798    -0.0000122047     0.2434840010
   11      C       4.8222305454    -0.0001549456    -0.5695268681
   12      O       3.5689280498     0.0000855126     1.4880132222
   13      C       0.7071963332     0.0000545044    -0.0798195875
   14      C       1.4151976987    -1.2306488985    -0.1617174232
   15      O       2.7550709091    -1.2208126946    -0.3698267472
   16      C       0.7052043172    -2.4156666365    -0.0727144676
   17      C      -0.7053359053    -2.4156072930     0.0727006289
   18      C      -1.4152488243    -1.2305312645     0.1617823574
   19      O      -2.7549432014    -1.2205892045     0.3702066850
   20      C      -0.7071527797     0.0001082407     0.0796257009
   21      H      -5.3944354481     0.8907051546     0.2960843635
   22      H      -5.3945075860    -0.8905088816     0.2971190778
   23      H      -4.6331776931     0.0008700663     1.6458693868
   24      H      -1.2497143258     3.3539598079     0.1272801737
   25      H       1.2500961952     3.3538371869    -0.1272882621
   26      H       4.6336509090     0.0010305484    -1.6454407811
   27      H       5.3938248503    -0.8914784920    -0.2968263829
   28      H       5.3951881488     0.8897325570    -0.2950190857
   29      H       1.2498369220    -3.3538220484    -0.1273990006
   30      H      -1.2500282513    -3.3537274551     0.1274224818
 ----------------------------------------------------------------

   10    -991.1523465744      6.07e-06  Convergence criterion met
 Total energy in the final basis set =     -991.1523465744
    5    -991.4205478172      9.46e-06  Convergence criterion met
 Total energy in the final basis set =     -991.4205478172

                    Orbital Energies (a.u.)
 --------------------------------------------------------------

 Alpha MOs
 -- Occupied --
-19.1156 -19.1156 -19.1155 -19.1155 -19.0501 -19.0499 -10.2922 -10.2921
-10.2127 -10.2127 -10.2127 -10.2127 -10.1692 -10.1687 -10.1576 -10.1576
-10.1571 -10.1571 -10.1447 -10.1446  -1.0606  -1.0597  -0.9993  -0.9982
 -0.9715  -0.9700  -0.8514  -0.7994  -0.7547  -0.7344  -0.7199  -0.6972
 -0.6886  -0.6298  -0.6087  -0.5992  -0.5561  -0.5388  -0.5226  -0.5072
 -0.4886  -0.4863  -0.4473  -0.4464  -0.4413  -0.4359  -0.4267  -0.4093
 -0.4081  -0.4080  -0.3931  -0.3898  -0.3830  -0.3769  -0.3767  -0.3701
 -0.3698  -0.3631  -0.3595  -0.3480  -0.3363  -0.3125  -0.2963  -0.2944
 -0.2609  -0.2602  -0.2461  -0.2432  -0.2376  -0.2343  -0.2151  -0.1619

          Ground-State Mulliken Net Atomic Charges

     Atom                 Charge (a.u.)
  ----------------------------------------
      1 C                    -0.392803
      2 C                    -0.429787
      3 O                    -0.502593
      4 O                    -0.208965
      5 C                    -0.162117
      6 C                    -0.308249
      7 C                    -0.305738
      8 C                    -0.162026
      9 O                    -0.209291
     10 C                    -0.431260
     11 C                    -0.392870
     12 O                    -0.501947
     13 C                     0.748040
     14 C                    -0.162326
     15 O                    -0.208939
     16 C                    -0.305671
     17 C                    -0.306255
     18 C                    -0.163189
     19 O                    -0.208782
     20 C                     0.750843
     21 H                     0.175953
     22 H                     0.175812
     23 H                     0.176876
     24 H                     0.201563
     25 H                     0.201667
     26 H                     0.176959
     27 H                     0.175895
     28 H                     0.175843
     29 H                     0.201664
     30 H                     0.201690
  ----------------------------------------
  Sum of atomic charges =    -2.000000

                    Cartesian Multipole Moments
 -----------------------------------------------------------------
    Charge (ESU x 10^10)
                -9.6064
    Dipole Moment (Debye)
         X      -0.0049      Y      -0.0006      Z       0.0036
       Tot       0.0061
    Quadrupole Moments (Debye-Ang)
        XX    -208.9669     XY      -0.0026     YY    -128.0023
        XZ     -28.2788     YZ       0.0015     ZZ    -143.3758

 Total job time:  89.26s(wall), 662.27s(cpu)
        *  Thank you very much for using Q-Chem.  Have a nice day.  *
