 Q-Chem 5.4, Q-Chem, Inc., Pleasanton, CA (2021)
 Q-Chem 5.4.0 for Intel X86 EM64T Linux

User input:
--------------------------------------------------------------
$molecule
0 1
C                 -0.9266980000      2.0953680000      0.0243730000
C                 -2.1246160000      1.2551420000     -0.0122780000
C                 -2.0833030000     -0.0823910000     -0.0782180000
C                 -0.8358350000     -0.8468660000     -0.1202410000
C                  0.4220010000     -0.0137730000     -0.0539270000
C                  0.3802160000      1.3387710000      0.0121980000
O                 -0.9788690000      3.3116420000      0.0569860000
O                 -0.8129910000     -2.0613800000     -0.2070320000
C                  1.6243350000      2.1802000000      0.0752860000
C                  1.7158180000     -0.7790360000     -0.0696360000
O                 -3.3390790000     -0.6063830000     -0.1682970000
O                 -3.4105370000      1.7071430000     -0.0543090000
C                 -4.2104310000      0.5151360000      0.0803320000
H                  2.2185280000      1.9349850000      0.9614390000
H                  1.3686590000      3.2378940000      0.1098790000
H                  2.2621570000      2.0031900000     -0.7964140000
H                  1.5257110000     -1.8496880000     -0.1229910000
H                  2.3046460000     -0.5718570000      0.8295520000
H                  2.3310140000     -0.4911490000     -0.9280950000
H                 -5.0096460000      0.5268520000     -0.6586490000
H                 -4.5941020000      0.4527930000      1.1049390000
$end
$rem
MAX_SCF_CYCLES=200
BASIS  =  6-311++G(d,p)
GUI  =  2
JOB_TYPE  =  SP
METHOD  =  B3LYP
SOLVENT_METHOD = PCM
$end
$pcm
theory = CPCM
$end
$solvent
dielectric 37.219
opticaldielectric 1.43
$end

--------------------------------------------------------------

             Standard Nuclear Orientation (Angstroms)
    I     Atom           X                Y                Z
 ----------------------------------------------------------------
    1      C      -0.9266980000     2.0953680000     0.0243730000
    2      C      -2.1246160000     1.2551420000    -0.0122780000
    3      C      -2.0833030000    -0.0823910000    -0.0782180000
    4      C      -0.8358350000    -0.8468660000    -0.1202410000
    5      C       0.4220010000    -0.0137730000    -0.0539270000
    6      C       0.3802160000     1.3387710000     0.0121980000
    7      O      -0.9788690000     3.3116420000     0.0569860000
    8      O      -0.8129910000    -2.0613800000    -0.2070320000
    9      C       1.6243350000     2.1802000000     0.0752860000
   10      C       1.7158180000    -0.7790360000    -0.0696360000
   11      O      -3.3390790000    -0.6063830000    -0.1682970000
   12      O      -3.4105370000     1.7071430000    -0.0543090000
   13      C      -4.2104310000     0.5151360000     0.0803320000
   14      H       2.2185280000     1.9349850000     0.9614390000
   15      H       1.3686590000     3.2378940000     0.1098790000
   16      H       2.2621570000     2.0031900000    -0.7964140000
   17      H       1.5257110000    -1.8496880000    -0.1229910000
   18      H       2.3046460000    -0.5718570000     0.8295520000
   19      H       2.3310140000    -0.4911490000    -0.9280950000
   20      H      -5.0096460000     0.5268520000    -0.6586490000
   21      H      -4.5941020000     0.4527930000     1.1049390000
 ----------------------------------------------------------------

    8    -648.8125156730      9.16e-06  Convergence criterion met
 Total energy in the final basis set =     -648.8125156730

                    Orbital Energies (a.u.)
 --------------------------------------------------------------

 Alpha MOs
 -- Occupied --
-19.1933 -19.1933 -19.1473 -19.1473 -10.3016 -10.2964 -10.2964 -10.2641
-10.2633 -10.2148 -10.2141 -10.1717 -10.1717  -1.1577  -1.0830  -1.0792
 -1.0597  -0.8720  -0.8170  -0.7522  -0.7222  -0.7069  -0.6733  -0.6191
 -0.6179  -0.5575  -0.5402  -0.5361  -0.4963  -0.4845  -0.4748  -0.4660
 -0.4389  -0.4381  -0.4257  -0.4190  -0.4157  -0.4099  -0.4012  -0.3871
 -0.3851  -0.3805  -0.3756  -0.3009  -0.2904  -0.2877  -0.2371

          Ground-State Mulliken Net Atomic Charges

     Atom                 Charge (a.u.)
  ----------------------------------------
      1 C                    -0.991988
      2 C                     0.425899
      3 C                     0.427188
      4 C                    -0.993089
      5 C                     0.728974
      6 C                     0.729396
      7 O                    -0.314684
      8 O                    -0.314762
      9 C                    -0.461643
     10 C                    -0.461923
     11 O                    -0.172131
     12 O                    -0.172426
     13 C                    -0.042203
     14 H                     0.186712
     15 H                     0.196111
     16 H                     0.185077
     17 H                     0.195714
     18 H                     0.185504
     19 H                     0.186409
     20 H                     0.226861
     21 H                     0.251005
  ----------------------------------------
  Sum of atomic charges =     0.000000

                    Cartesian Multipole Moments
 -----------------------------------------------------------------
    Charge (ESU x 10^10)
                 0.0000
    Dipole Moment (Debye)
         X       0.8280      Y      -0.0058      Z       0.6501
       Tot       1.0528
    Quadrupole Moments (Debye-Ang)
        XX     -55.9012     XY       2.0226     YY    -100.8658
        XZ      -1.8571     YZ      -1.0318     ZZ     -72.4583

 Total job time:  82.56s(wall), 155.45s(cpu)
        *  Thank you very much for using Q-Chem.  Have a nice day.  *
