 Q-Chem 5.4, Q-Chem, Inc., Pleasanton, CA (2021)
 Q-Chem 5.4.0 for Intel X86 EM64T Linux

User input:
--------------------------------------------------------------
$molecule
-2 1
O                  4.6107690000      1.5369120000     -1.4456830000
C                  3.4761890000      0.9818780000     -0.8527360000
C                  2.2186440000      1.2256160000     -1.3494790000
C                  1.0829390000      0.6336010000     -0.7066140000
C                 -0.2282790000      0.8497020000     -1.1733110000
O                 -0.4167630000      1.6487740000     -2.2734800000
C                 -1.3383540000      0.2620780000     -0.5327440000
C                 -2.6829190000      0.4926960000     -1.0234790000
O                 -2.9483690000      1.2431920000     -2.0682230000
C                 -3.7591710000     -0.1098950000     -0.3577810000
O                 -5.0185270000      0.1509160000     -0.8776180000
C                 -3.5587260000     -0.9254450000      0.7660170000
O                 -4.6872030000     -1.4867740000      1.3692320000
C                 -2.2905060000     -1.1635370000      1.2564240000
C                 -1.1511870000     -0.5795490000      0.6241810000
C                  0.1573060000     -0.7970200000      1.0926390000
O                  0.3413980000     -1.5990920000      2.1956820000
C                  1.2655400000     -0.2113010000      0.4536060000
C                  2.6081610000     -0.4468440000      0.9507280000
O                  2.8847460000     -1.1961740000      1.9959160000
C                  3.6591680000      0.1618040000      0.2732670000
O                  4.9491030000     -0.0720780000      0.7619670000
H                  5.3546760000      1.2210560000     -0.9180450000
H                  2.0769850000      1.8565840000     -2.2162300000
H                 -1.4080560000      1.6551600000     -2.4155210000
H                 -4.7792020000      0.7333760000     -1.6286510000
H                 -4.3569000000     -2.0052760000      2.1095220000
H                 -2.1409320000     -1.7953380000      2.1263830000
H                  1.3308530000     -1.6082640000      2.3413840000
H                  4.7486180000     -0.6567590000      1.5226490000
$end
$rem
MAX_SCF_CYCLES=200
BASIS  =  6-311++G(d,p)
GUI  =  2
JOB_TYPE  =  SP
METHOD  =  B3LYP
SOLVENT_METHOD = COSMO
$end
$solvent
dielectric 37.219
opticaldielectric 1.43
$end

--------------------------------------------------------------

             Standard Nuclear Orientation (Angstroms)
    I     Atom           X                Y                Z
 ----------------------------------------------------------------
    1      O       4.7169398221    -1.8910586294    -0.0005552550
    2      C       3.5541336482    -1.1198243828    -0.0001067619
    3      C       2.3100758591    -1.7028350727    -0.0001297479
    4      C       1.1442264945    -0.8695414773     0.0001115769
    5      C      -0.1549083077    -1.4136436129     0.0000265489
    6      O      -0.3016511254    -2.7785174437     0.0003086039
    7      C      -1.2949112885    -0.5840125293     0.0001728232
    8      C      -2.6266166748    -1.1570930660     0.0001094523
    9      O      -2.8527977629    -2.4509400776     0.0001163752
   10      C      -3.7335871663    -0.2973230836    -0.0000181474
   11      O      -4.9785628974    -0.9090957871    -0.0001030959
   12      C      -3.5757524318     1.0967034947    -0.0002205849
   13      O      -4.7327650216     1.8801195849    -0.0003573519
   14      C      -2.3207362496     1.6715975371    -0.0000904082
   15      C      -1.1517083118     0.8517227677     0.0000586364
   16      C       0.1446383100     1.3979698671    -0.0000261193
   17      O       0.2868226166     2.7668003304     0.0000303173
   18      C       1.2826844399     0.5706468188     0.0002914699
   19      C       2.6121910430     1.1517269574     0.0003389577
   20      O       2.8495726278     2.4455826493     0.0000259076
   21      C       3.6942427930     0.2781220980     0.0006005207
   22      O       4.9712032699     0.8498147509     0.0001157108
   23      H       5.4439914921    -1.2562694658    -0.0023111652
   24      H       2.2013952025    -2.7787688805    -0.0005058558
   25      H      -1.2919951600    -2.9271677733     0.0004137450
   26      H      -4.7090418265    -1.8514041568    -0.0000485320
   27      H      -4.4297125444     2.7934280360     0.0003835931
   28      H      -2.2041656448     2.7508494940    -0.0003233826
   29      H       1.2751883371     2.9199915749    -0.0001713951
   30      H       4.7404149689     1.8024002541    -0.0007960016
 ----------------------------------------------------------------

   10   -1140.5050072700      5.09e-06  Convergence criterion met
 Total energy in the final basis set =    -1140.5050072700
    5   -1140.7558145955      5.85e-06  Convergence criterion met
 Total energy in the final basis set =    -1140.7558145955

                    Orbital Energies (a.u.)
 --------------------------------------------------------------

 Alpha MOs
 -- Occupied --
-19.1462 -19.1462 -19.1381 -19.1321 -19.1177 -19.1172 -19.0682 -19.0681
-10.2227 -10.2214 -10.2091 -10.2085 -10.2083 -10.2083 -10.1973 -10.1968
-10.1650 -10.1642 -10.1621 -10.1615 -10.1464 -10.1452  -1.0594  -1.0547
 -1.0391  -1.0366  -1.0309  -1.0295  -0.9678  -0.9671  -0.8491  -0.8205
 -0.7723  -0.7372  -0.7197  -0.7109  -0.6678  -0.6336  -0.6180  -0.5954
 -0.5773  -0.5531  -0.5348  -0.5306  -0.5175  -0.5101  -0.4984  -0.4778
 -0.4609  -0.4482  -0.4329  -0.4319  -0.4215  -0.4208  -0.4125  -0.4080
 -0.4056  -0.3966  -0.3852  -0.3840  -0.3770  -0.3682  -0.3675  -0.3661
 -0.3621  -0.3512  -0.3445  -0.3343  -0.3280  -0.3258  -0.3038  -0.2882
 -0.2541  -0.2456  -0.2386  -0.2185  -0.2012  -0.1845  -0.1354

          Ground-State Mulliken Net Atomic Charges

     Atom                 Charge (a.u.)
  ----------------------------------------
      1 O                    -0.351147
      2 C                    -0.420729
      3 C                    -0.478381
      4 C                     0.738918
      5 C                    -0.234787
      6 O                    -0.492017
      7 C                     0.747808
      8 C                    -0.624823
      9 O                    -0.684292
     10 C                    -0.233824
     11 O                    -0.397343
     12 C                    -0.456077
     13 O                    -0.352017
     14 C                    -0.191563
     15 C                     0.740835
     16 C                    -0.178676
     17 O                    -0.493793
     18 C                     0.716672
     19 C                    -0.640292
     20 O                    -0.689718
     21 C                    -0.075993
     22 O                    -0.406638
     23 H                     0.319492
     24 H                     0.179386
     25 H                     0.414202
     26 H                     0.326152
     27 H                     0.322054
     28 H                     0.162603
     29 H                     0.407284
     30 H                     0.326704
  ----------------------------------------
  Sum of atomic charges =    -2.000000

                    Cartesian Multipole Moments
 -----------------------------------------------------------------
    Charge (ESU x 10^10)
                -9.6064
    Dipole Moment (Debye)
         X       2.0079      Y       3.1784      Z      -0.0073
       Tot       3.7595
    Quadrupole Moments (Debye-Ang)
        XX    -230.8350     XY     -17.5477     YY    -172.0651
        XZ      -0.0377     YZ       0.0031     ZZ    -136.3559

 Total job time:  142.03s(wall), 697.87s(cpu)
        *  Thank you very much for using Q-Chem.  Have a nice day.  *
