 Gaussian 16, Revision A.03,
 Gaussian 16:  ES64L-G16RevA.03 25-Dec-2016

 --------------------------------------
 #P UB3LYP/6-311++G(d,p) nosym opt freq
 --------------------------------------

 -------
 Radical
 -------
 Symbolic Z-matrix:
 Charge = -1 Multiplicity = 2

 SCF Done:  E(UB3LYP) =  -783.656477092     A.U. after   24 cycles
 SCF Done:  E(UB3LYP) =  -783.685062007     A.U. after   19 cycles
 SCF Done:  E(UB3LYP) =  -783.697561710     A.U. after   18 cycles
 SCF Done:  E(UB3LYP) =  -783.707981219     A.U. after   18 cycles
 SCF Done:  E(UB3LYP) =  -783.712510218     A.U. after   18 cycles
 SCF Done:  E(UB3LYP) =  -783.715919845     A.U. after   16 cycles
 SCF Done:  E(UB3LYP) =  -783.720539907     A.U. after   18 cycles
 SCF Done:  E(UB3LYP) =  -783.724044788     A.U. after   18 cycles
 SCF Done:  E(UB3LYP) =  -783.725259161     A.U. after   17 cycles
 SCF Done:  E(UB3LYP) =  -783.725514040     A.U. after   17 cycles
 SCF Done:  E(UB3LYP) =  -783.725871008     A.U. after   15 cycles
 SCF Done:  E(UB3LYP) =  -783.725927034     A.U. after   15 cycles
 SCF Done:  E(UB3LYP) =  -783.725960456     A.U. after   14 cycles
 SCF Done:  E(UB3LYP) =  -783.725976577     A.U. after   13 cycles
 SCF Done:  E(UB3LYP) =  -783.725984580     A.U. after   12 cycles
 SCF Done:  E(UB3LYP) =  -783.725985727     A.U. after   12 cycles
 SCF Done:  E(UB3LYP) =  -783.725985798     A.U. after   10 cycles
 Optimization completed.
    -- Stationary point found.
 Normal termination of Gaussian 16 at Thu Dec 21 06:50:24 2023.

 ----------------------------------------------------------------------
 #P Geom=AllCheck Guess=TCheck SCRF=Check GenChk UB3LYP/6-311++G(d,p) F
 req
 ----------------------------------------------------------------------

 Structure from the checkpoint file:  "154-rad.chk"
 -------
 Radical
 -------
 Charge = -1 Multiplicity = 2

                          Input orientation:
 ---------------------------------------------------------------------
 Center     Atomic      Atomic             Coordinates (Angstroms)
 Number     Number       Type             X           Y           Z
 ---------------------------------------------------------------------
      1          6           0       -4.394322   -0.339047    0.215557
      2          6           0       -2.914522   -0.624885    0.244297
      3          6           0       -2.439030   -1.937903    0.407331
      4          6           0       -1.089008   -2.215738    0.465400
      5          6           0       -0.140293   -1.182439    0.343986
      6          6           0        1.279614   -1.546100    0.399443
      7          8           0        1.653535   -2.732946    0.572495
      8          6           0        2.237316   -0.455374    0.237807
      9          6           0        3.621835   -0.731119    0.279508
     10          6           0        4.555621    0.273138    0.122381
     11          6           0        4.127908    1.603816   -0.085412
     12          6           0        2.779353    1.895398   -0.130381
     13          6           0        1.805291    0.883750    0.029762
     14          6           0        0.389804    1.244118   -0.022745
     15          8           0        0.055697    2.453707   -0.232285
     16          6           0       -0.578110    0.167897    0.161816
     17          6           0       -1.992552    0.427779    0.132187
     18          7           0       -2.453083    1.732716    0.039446
     19          1           0       -4.720549    0.096659   -0.740650
     20          1           0       -4.687137    0.370011    1.000897
     21          1           0       -4.968228   -1.257554    0.361510
     22          1           0       -3.161446   -2.745851    0.497568
     23          1           0       -0.719182   -3.224283    0.600299
     24          1           0        3.918047   -1.761675    0.438456
     25          1           0        5.616559    0.043116    0.157593
     26          1           0        4.860669    2.396032   -0.208850
     27          1           0        2.424947    2.907135   -0.288147
     28          1           0       -3.357569    1.864669   -0.384674
     29          1           0       -1.711164    2.394974   -0.203165
 ---------------------------------------------------------------------

 SCF Done:  E(UB3LYP) =  -783.725985798     A.U. after    1 cycles

 Alpha  occ. eigenvalues --  -18.94955 -18.94217 -14.18903 -10.09947 -10.09401
 Alpha  occ. eigenvalues --  -10.09221 -10.07156 -10.05642 -10.05595 -10.05566
 Alpha  occ. eigenvalues --  -10.05185 -10.04949 -10.04943 -10.04923 -10.04779
 Alpha  occ. eigenvalues --  -10.04622 -10.04522 -10.03556  -0.87508  -0.86781
 Alpha  occ. eigenvalues --   -0.79682  -0.73548  -0.71753  -0.67265  -0.63946
 Alpha  occ. eigenvalues --   -0.62854  -0.60954  -0.58164  -0.53737  -0.51090
 Alpha  occ. eigenvalues --   -0.49444  -0.46210  -0.43605  -0.42729  -0.39910
 Alpha  occ. eigenvalues --   -0.38273  -0.35732  -0.34751  -0.33525  -0.32717
 Alpha  occ. eigenvalues --   -0.32133  -0.31839  -0.30420  -0.30174  -0.29300
 Alpha  occ. eigenvalues --   -0.28040  -0.27670  -0.26776  -0.25525  -0.25256
 Alpha  occ. eigenvalues --   -0.24523  -0.23348  -0.22528  -0.21817  -0.21219
 Alpha  occ. eigenvalues --   -0.18744  -0.14093  -0.13380  -0.12344  -0.11819
 Alpha  occ. eigenvalues --   -0.10609  -0.08971  -0.01175
 Alpha virt. eigenvalues --    0.07171   0.07489   0.08366   0.09224   0.09847
 Alpha virt. eigenvalues --    0.10299   0.10723   0.11474   0.12228   0.12531
 Alpha virt. eigenvalues --    0.12709   0.13904   0.14482   0.15191   0.15656

  Beta  occ. eigenvalues --  -18.94413 -18.93636 -14.18893 -10.09760 -10.09398
  Beta  occ. eigenvalues --  -10.09094 -10.07162 -10.05589 -10.05540 -10.05476
  Beta  occ. eigenvalues --  -10.05137 -10.04950 -10.04938 -10.04931 -10.04690
  Beta  occ. eigenvalues --  -10.04521 -10.04423 -10.03547  -0.86584  -0.85773
  Beta  occ. eigenvalues --   -0.79596  -0.73320  -0.71614  -0.66957  -0.63731
  Beta  occ. eigenvalues --   -0.62661  -0.60786  -0.57956  -0.53088  -0.50923
  Beta  occ. eigenvalues --   -0.49234  -0.46134  -0.43402  -0.42560  -0.39758
  Beta  occ. eigenvalues --   -0.38172  -0.35572  -0.34456  -0.33450  -0.32595
  Beta  occ. eigenvalues --   -0.32031  -0.31746  -0.30332  -0.30131  -0.28190
  Beta  occ. eigenvalues --   -0.27768  -0.27245  -0.26579  -0.25369  -0.24668
  Beta  occ. eigenvalues --   -0.23260  -0.22740  -0.22378  -0.21138  -0.20632
  Beta  occ. eigenvalues --   -0.18136  -0.12743  -0.12023  -0.11686  -0.11322
  Beta  occ. eigenvalues --   -0.10069  -0.08269
  Beta virt. eigenvalues --    0.04561   0.07162   0.08356   0.08370   0.09212
  Beta virt. eigenvalues --    0.10291   0.10558   0.10799   0.11723   0.12228
  Beta virt. eigenvalues --    0.12674   0.12842   0.13902   0.14464   0.15187

 Mulliken charges and spin densities:
               1          2
     1  C   -0.483586  -0.001762
     2  C    0.752939   0.054630
     3  C   -0.803227   0.038314
     4  C   -0.159782   0.031111
     5  C    0.572931   0.062798
     6  C   -0.849240   0.063913
     7  O   -0.360060   0.217915
     8  C    0.130575   0.053813
     9  C    0.072430   0.015553
    10  C   -0.394970   0.046842
    11  C   -0.488726   0.039134
    12  C    0.146185   0.023764
    13  C    0.210305   0.033803
    14  C   -0.604645   0.099010
    15  O   -0.377808   0.199941
    16  C    0.118130   0.011669
    17  C    0.138992   0.014080
    18  N   -0.369432   0.006735
    19  H    0.137181   0.003527
    20  H    0.155944   0.003552
    21  H    0.142778   0.000094
    22  H    0.079381  -0.003569
    23  H    0.156942  -0.002530
    24  H    0.153633  -0.001057
    25  H    0.121931  -0.003758
    26  H    0.121226  -0.003427
    27  H    0.155785  -0.000722
    28  H    0.210588  -0.000811
    29  H    0.313601  -0.002560
 Sum of Mulliken charges =  -1.00000   1.00000

 Dipole moment (field-independent basis, Debye):
    X=             -4.1735    Y=              1.4690    Z=             -1.6559  Tot=              4.7243
 Quadrupole moment (field-independent basis, Debye-Ang):
   XX=           -124.6023   YY=           -135.9962   ZZ=           -114.2109
   XY=              4.8356   XZ=              0.9430   YZ=              2.0077

  Exact polarizability: 363.275  20.275 241.306  -2.766 -18.816 110.898
 Approx polarizability: 523.510  10.165 457.109  -0.949 -39.912 178.066

                      1                      2                      3
                      A                      A                      A
 Frequencies --     47.3849                85.1494               120.1381
 Red. masses --      5.7033                 4.4175                 4.1625
 Frc consts  --      0.0075                 0.0189                 0.0354
 IR Inten    --      5.0348                 0.0286                 1.6877

                      4                      5                      6
                      A                      A                      A
 Frequencies --    135.7838               181.7847               189.8412
 Red. masses --      4.7076                 5.9373                 1.1186
 Frc consts  --      0.0511                 0.1156                 0.0238
 IR Inten    --      0.0175                 0.8747                 1.8097

                      7                      8                      9
                      A                      A                      A
 Frequencies --    202.6850               266.6387               285.1394
 Red. masses --      4.3258                 3.9943                 3.9951
 Frc consts  --      0.1047                 0.1673                 0.1914
 IR Inten    --      4.3729                 5.4404                 3.0984

                     10                     11                     12
                      A                      A                      A
 Frequencies --    293.9974               334.4225               344.7760
 Red. masses --      4.1984                 6.3743                 3.5673
 Frc consts  --      0.2138                 0.4200                 0.2498
 IR Inten    --      0.9488                 0.8589                19.2217

                     13                     14                     15
                      A                      A                      A
 Frequencies --    381.5245               402.1511               424.1857
 Red. masses --      3.8524                 2.4589                 5.0847
 Frc consts  --      0.3304                 0.2343                 0.5390
 IR Inten    --     25.6426                52.5423                15.3459

                     16                     17                     18
                      A                      A                      A
 Frequencies --    429.3181               445.1223               477.0230
 Red. masses --      3.5740                 3.3588                 4.0449
 Frc consts  --      0.3881                 0.3921                 0.5423
 IR Inten    --     33.7444                17.2578                16.2912

                     19                     20                     21
                      A                      A                      A
 Frequencies --    488.4285               510.2056               566.7204
 Red. masses --      7.3032                 3.9952                 5.5319
 Frc consts  --      1.0265                 0.6127                 1.0468
 IR Inten    --      4.7448                13.2314                 5.0219

                     22                     23                     24
                      A                      A                      A
 Frequencies --    575.6783               600.9926               661.5095
 Red. masses --      4.8695                 4.8529                 5.2256
 Frc consts  --      0.9508                 1.0327                 1.3473
 IR Inten    --      2.1814                 8.5325                 2.2861

                     25                     26                     27
                      A                      A                      A
 Frequencies --    665.9277               688.7485               708.0903
 Red. masses --      6.3090                 5.7911                 2.1989
 Frc consts  --      1.6484                 1.6186                 0.6496
 IR Inten    --      4.5404                 2.4831                52.7552

                     28                     29                     30
                      A                      A                      A
 Frequencies --    742.4464               752.5108               772.5697
 Red. masses --      3.1173                 5.4975                 1.5092
 Frc consts  --      1.0124                 1.8342                 0.5307
 IR Inten    --     15.7428                 6.9696                90.4984

                     31                     32                     33
                      A                      A                      A
 Frequencies --    778.1213               803.2550               824.6591
 Red. masses --      1.7752                 3.0772                 1.9923
 Frc consts  --      0.6333                 1.1698                 0.7983
 IR Inten    --     27.0451                 5.3892                16.0986

                     34                     35                     36
                      A                      A                      A
 Frequencies --    827.7139               866.6583               904.1109
 Red. masses --      3.8543                 1.5436                 6.0242
 Frc consts  --      1.5558                 0.6831                 2.9013
 IR Inten    --     21.4537                 0.1081                 7.8861

                     37                     38                     39
                      A                      A                      A
 Frequencies --    954.6116               967.5487               981.0949
 Red. masses --      1.2914                 2.3954                 1.3634
 Frc consts  --      0.6933                 1.3212                 0.7732
 IR Inten    --      0.3326                 3.1626                 2.6759

                     40                     41                     42
                      A                      A                      A
 Frequencies --    981.9488              1005.0642              1038.5030
 Red. masses --      1.2626                 2.6663                 1.9118
 Frc consts  --      0.7173                 1.5869                 1.2148
 IR Inten    --      0.0604                57.2890                10.3304

                     43                     44                     45
                      A                      A                      A
 Frequencies --   1046.0760              1057.9694              1110.8526
 Red. masses --      1.4543                 2.4790                 2.0253
 Frc consts  --      0.9377                 1.6348                 1.4725
 IR Inten    --      0.3264                41.6279                10.2708

                     46                     47                     48
                      A                      A                      A
 Frequencies --   1146.5714              1170.9328              1176.2822
 Red. masses --      1.3568                 1.3604                 2.1446
 Frc consts  --      1.0509                 1.0990                 1.7483
 IR Inten    --     11.6232                 0.6582                13.1466

                     49                     50                     51
                      A                      A                      A
 Frequencies --   1209.2283              1223.0433              1235.2115
 Red. masses --      2.0146                 2.7027                 3.5082
 Frc consts  --      1.7356                 2.3820                 3.1537
 IR Inten    --      8.9597                58.0494                56.3137

                     52                     53                     54
                      A                      A                      A
 Frequencies --   1260.0403              1297.4440              1354.2147
 Red. masses --      2.1646                 2.6195                 2.7926
 Frc consts  --      2.0248                 2.5980                 3.0174
 IR Inten    --     44.7144                 8.5895                 2.9456

                     55                     56                     57
                      A                      A                      A
 Frequencies --   1356.9279              1365.3281              1399.2150
 Red. masses --      5.9375                 9.7612                 2.3204
 Frc consts  --      6.4412                10.7208                 2.6766
 IR Inten    --      1.5319                21.2036                84.5197

                     58                     59                     60
                      A                      A                      A
 Frequencies --   1406.0062              1444.2890              1474.7923
 Red. masses --      1.5359                 3.3457                 2.8025
 Frc consts  --      1.7889                 4.1119                 3.5914
 IR Inten    --    100.7985               103.8146               106.7027

                     61                     62                     63
                      A                      A                      A
 Frequencies --   1479.5955              1480.9543              1498.9846
 Red. masses --      2.7118                 1.1119                 1.2786
 Frc consts  --      3.4978                 1.4368                 1.6927
 IR Inten    --      2.9165                 5.2964                 9.3593

                     64                     65                     66
                      A                      A                      A
 Frequencies --   1519.3266              1529.8466              1560.8258
 Red. masses --      3.6103                 4.9654                 4.1595
 Frc consts  --      4.9102                 6.8470                 5.9703
 IR Inten    --    175.7298               552.6028                54.4596

                     67                     68                     69
                      A                      A                      A
 Frequencies --   1604.4997              1615.5345              1623.3880
 Red. masses --      2.5504                 6.2589                 2.2435
 Frc consts  --      3.8685                 9.6246                 3.4835
 IR Inten    --     39.8986                 8.9779                69.2260

                     70                     71                     72
                      A                      A                      A
 Frequencies --   1625.3823              2966.3286              3007.0302
 Red. masses --      5.2120                 1.0506                 1.0881
 Frc consts  --      8.1128                 5.4465                 5.7970
 IR Inten    --     42.1564               142.4931                57.4801

                     73                     74                     75
                      A                      A                      A
 Frequencies --   3078.1415              3126.7530              3132.6568
 Red. masses --      1.0947                 1.0879                 1.0846
 Frc consts  --      6.1112                 6.2664                 6.2713
 IR Inten    --     26.7549                54.2585                18.7348

                     76                     77                     78
                      A                      A                      A
 Frequencies --   3152.0033              3182.6855              3187.4083
 Red. masses --      1.0913                 1.0917                 1.0921
 Frc consts  --      6.3879                 6.5155                 6.5373
 IR Inten    --     55.7588                17.0086                26.2153

                     79                     80                     81
                      A                      A                      A
 Frequencies --   3193.7932              3331.4755              3638.2153
 Red. masses --      1.0912                 1.0650                 1.0843
 Frc consts  --      6.5579                 6.9643                 8.4566
 IR Inten    --      9.9345               164.1622                16.4914

 - Thermochemistry -
 -------------------
 Temperature   298.150 Kelvin.  Pressure   1.00000 Atm.
 Atom     1 has atomic number  6 and mass  12.00000

 Molecular mass:   237.07898 amu.
 Principal axes and moments of inertia in atomic units:
                           1         2         3
     Eigenvalues --  2044.157735674.897557705.20342
           X            0.99257  -0.12167   0.00232
           Y            0.12012   0.98258   0.14179
           Z           -0.01953  -0.14046   0.98989
 This molecule is an asymmetric top.
 Rotational symmetry number  1.
 Warning -- assumption of classical behavior for rotation
           may cause significant error
 Rotational temperatures (Kelvin)      0.04237     0.01526     0.01124
 Rotational constants (GHZ):           0.88288     0.31802     0.23422
 Zero-point vibrational energy     580089.8 (Joules/Mol)
                                  138.64478 (Kcal/Mol)
 Warning -- explicit consideration of  23 degrees of freedom as
           vibrations may cause significant error
 Vibrational temperatures:     68.18   122.51   172.85   195.36   261.55
          (Kelvin)            273.14   291.62   383.63   410.25   423.00
                              481.16   496.06   548.93   578.61   610.31
                              617.69   640.43   686.33   702.74   734.07
                              815.38   828.27   864.69   951.76   958.12
                              990.96  1018.78  1068.21  1082.70  1111.56
                             1119.54  1155.70  1186.50  1190.90  1246.93
                             1300.81  1373.47  1392.09  1411.58  1412.81
                             1446.06  1494.17  1505.07  1522.18  1598.27
                             1649.66  1684.71  1692.41  1739.81  1759.69
                             1777.19  1812.92  1866.73  1948.41  1952.32
                             1964.40  2013.16  2022.93  2078.01  2121.90
                             2128.81  2130.76  2156.70  2185.97  2201.11
                             2245.68  2308.52  2324.39  2335.69  2338.56
                             4267.89  4326.45  4428.76  4498.70  4507.19
                             4535.03  4579.17  4585.97  4595.16  4793.25
                             5234.58

 Zero-point correction=                           0.220945 (Hartree/Particle)
 Thermal correction to Energy=                    0.234938
 Thermal correction to Enthalpy=                  0.235882
 Thermal correction to Gibbs Free Energy=         0.180120
 Sum of electronic and zero-point Energies=           -783.505041
 Sum of electronic and thermal Energies=              -783.491048
 Sum of electronic and thermal Enthalpies=            -783.490104
 Sum of electronic and thermal Free Energies=         -783.545866

                     E (Thermal)             CV                S
                      KCal/Mol        Cal/Mol-Kelvin    Cal/Mol-Kelvin
 Total                  147.426             57.270            117.361
 Electronic               0.000              0.000              1.377
 Translational            0.889              2.981             42.291
 Rotational               0.889              2.981             32.858
 Vibrational            145.648             51.308             40.835
 Vibration     1          0.595              1.979              4.924
 Vibration     2          0.601              1.959              3.769
 Vibration     3          0.609              1.932              3.098
 Vibration     4          0.614              1.918              2.862
 Vibration     5          0.630              1.865              2.310
 Vibration     6          0.633              1.854              2.229
 Vibration     7          0.639              1.836              2.109
 Vibration     8          0.672              1.734              1.618
 Vibration     9          0.683              1.701              1.503
 Vibration    10          0.689              1.685              1.451
 Vibration    11          0.716              1.607              1.239
 Vibration    12          0.723              1.586              1.190
 Vibration    13          0.751              1.510              1.033
 Vibration    14          0.768              1.465              0.955
 Vibration    15          0.786              1.418              0.878
 Vibration    16          0.791              1.406              0.861
 Vibration    17          0.805              1.372              0.811
 Vibration    18          0.834              1.301              0.718
 Vibration    19          0.844              1.276              0.688
 Vibration    20          0.865              1.227              0.633
 Vibration    21          0.923              1.103              0.511
 Vibration    22          0.932              1.084              0.493
 Vibration    23          0.959              1.030              0.448

 Optimization completed.
    -- Stationary point found.
 Normal termination of Gaussian 16 at Thu Dec 21 07:35:23 2023.
