 Q-Chem 5.4, Q-Chem, Inc., Pleasanton, CA (2021)
 Q-Chem 5.4.0 for Intel X86 EM64T Linux

User input:
--------------------------------------------------------------
$molecule
0 1
C                 -1.2717780000      2.4943010000     -0.8187370000
C                 -2.3084110000      1.8285190000     -0.2070210000
C                 -2.1012190000      0.5466820000      0.3528780000
C                  0.0164530000      1.9066820000     -0.8965750000
C                  0.2267710000      0.6101750000     -0.3299050000
C                 -0.8624750000     -0.0495180000      0.2932440000
C                  1.1081430000      2.5587760000     -1.5187320000
C                  2.3524150000      1.9741060000     -1.5860060000
C                  2.5650730000      0.6780140000     -1.0177950000
C                  1.5162230000      0.0239750000     -0.4080560000
C                  3.4635180000      2.7058910000     -2.2557890000
C                  4.8462720000      1.9992700000     -2.3141620000
C                  4.9555830000      0.6851530000     -1.7028800000
C                  3.9036160000      0.0695300000     -1.0983210000
O                  3.3254190000      3.8048940000     -2.7439980000
O                  5.7801040000      2.5569040000     -2.8591840000
H                 -1.4260850000      3.4774660000     -1.2498610000
H                 -3.2901550000      2.2845530000     -0.1517830000
H                 -2.9270900000      0.0330070000      0.8317160000
H                 -0.7049950000     -1.0330060000      0.7227890000
H                  0.9761490000      3.5417630000     -1.9573620000
H                  1.6750230000     -0.9575850000      0.0196260000
H                  5.9330060000      0.2263570000     -1.7616820000
O                  3.9632980000     -1.1433090000     -0.5180680000
C                  5.2148690000     -1.8616720000     -0.5041260000
C                  5.0064040000     -3.1334480000      0.2541130000
C                  5.2747670000     -4.3382820000     -0.2396000000
H                  5.9687520000     -1.2347080000     -0.0134840000
H                  5.5357790000     -2.0593630000     -1.5313020000
H                  4.6387910000     -3.0230200000      1.2708870000
H                  5.6385680000     -4.4714120000     -1.2537910000
H                  5.1469900000     -5.2351970000      0.3550940000
$end
$rem
MAX_SCF_CYCLES=200
BASIS  =  6-311++G(d,p)
GUI  =  2
JOB_TYPE  =  SP
METHOD  =  B3LYP
SOLVENT_METHOD = PCM
$end
$pcm
theory = CPCM
$end
$solvent
dielectric 37.219
opticaldielectric 1.43
$end

--------------------------------------------------------------

             Standard Nuclear Orientation (Angstroms)
    I     Atom           X                Y                Z
 ----------------------------------------------------------------
    1      C      -1.2717780000     2.4943010000    -0.8187370000
    2      C      -2.3084110000     1.8285190000    -0.2070210000
    3      C      -2.1012190000     0.5466820000     0.3528780000
    4      C       0.0164530000     1.9066820000    -0.8965750000
    5      C       0.2267710000     0.6101750000    -0.3299050000
    6      C      -0.8624750000    -0.0495180000     0.2932440000
    7      C       1.1081430000     2.5587760000    -1.5187320000
    8      C       2.3524150000     1.9741060000    -1.5860060000
    9      C       2.5650730000     0.6780140000    -1.0177950000
   10      C       1.5162230000     0.0239750000    -0.4080560000
   11      C       3.4635180000     2.7058910000    -2.2557890000
   12      C       4.8462720000     1.9992700000    -2.3141620000
   13      C       4.9555830000     0.6851530000    -1.7028800000
   14      C       3.9036160000     0.0695300000    -1.0983210000
   15      O       3.3254190000     3.8048940000    -2.7439980000
   16      O       5.7801040000     2.5569040000    -2.8591840000
   17      H      -1.4260850000     3.4774660000    -1.2498610000
   18      H      -3.2901550000     2.2845530000    -0.1517830000
   19      H      -2.9270900000     0.0330070000     0.8317160000
   20      H      -0.7049950000    -1.0330060000     0.7227890000
   21      H       0.9761490000     3.5417630000    -1.9573620000
   22      H       1.6750230000    -0.9575850000     0.0196260000
   23      H       5.9330060000     0.2263570000    -1.7616820000
   24      O       3.9632980000    -1.1433090000    -0.5180680000
   25      C       5.2148690000    -1.8616720000    -0.5041260000
   26      C       5.0064040000    -3.1334480000     0.2541130000
   27      C       5.2747670000    -4.3382820000    -0.2396000000
   28      H       5.9687520000    -1.2347080000    -0.0134840000
   29      H       5.5357790000    -2.0593630000    -1.5313020000
   30      H       4.6387910000    -3.0230200000     1.2708870000
   31      H       5.6385680000    -4.4714120000    -1.2537910000
   32      H       5.1469900000    -5.2351970000     0.3550940000
 ----------------------------------------------------------------

    9    -880.9299422504      3.65e-06  Convergence criterion met
 Total energy in the final basis set =     -880.9299422504

                    Orbital Energies (a.u.)
 --------------------------------------------------------------

 Alpha MOs
 -- Occupied --
-19.1875 -19.1413 -19.1278 -10.2834 -10.2812 -10.2750 -10.2410 -10.2138
-10.2067 -10.2065 -10.2054 -10.2039 -10.1998 -10.1916 -10.1913 -10.1905
-10.1897 -10.1865 -10.1862 -10.1768  -1.1031  -1.0826  -1.0531  -0.9041
 -0.8648  -0.8237  -0.8039  -0.7977  -0.7620  -0.7549  -0.7196  -0.6875
 -0.6581  -0.6344  -0.6175  -0.5973  -0.5793  -0.5566  -0.5501  -0.5421
 -0.5165  -0.5036  -0.4905  -0.4811  -0.4698  -0.4651  -0.4597  -0.4553
 -0.4466  -0.4440  -0.4348  -0.4312  -0.4237  -0.4152  -0.3956  -0.3924
 -0.3851  -0.3813  -0.3661  -0.3565  -0.3503  -0.3432  -0.3121  -0.3096
 -0.2871  -0.2825  -0.2631  -0.2557  -0.2405

          Ground-State Mulliken Net Atomic Charges

     Atom                 Charge (a.u.)
  ----------------------------------------
      1 C                    -0.139372
      2 C                    -0.309039
      3 C                    -0.353151
      4 C                     0.163468
      5 C                     0.009105
      6 C                    -0.140444
      7 C                     0.106202
      8 C                     0.653961
      9 C                     0.110632
     10 C                    -0.093805
     11 C                    -0.572352
     12 C                     0.003166
     13 C                     0.163146
     14 C                    -0.501872
     15 O                    -0.298536
     16 O                    -0.354428
     17 H                     0.196462
     18 H                     0.215087
     19 H                     0.220803
     20 H                     0.197970
     21 H                     0.175349
     22 H                     0.159447
     23 H                     0.269593
     24 O                    -0.029392
     25 C                    -0.397866
     26 C                     0.095135
     27 C                    -0.500268
     28 H                     0.198064
     29 H                     0.191858
     30 H                     0.217483
     31 H                     0.165386
     32 H                     0.178210
  ----------------------------------------
  Sum of atomic charges =     0.000000

                    Cartesian Multipole Moments
 -----------------------------------------------------------------
    Charge (ESU x 10^10)
                -0.0000
    Dipole Moment (Debye)
         X      -5.3671      Y      -8.0901      Z       5.4778
       Tot      11.1473
    Quadrupole Moments (Debye-Ang)
        XX    -129.9906     XY     -50.9080     YY    -129.4286
        XZ      26.6206     YZ      20.6523     ZZ    -134.3667

 Total job time:  67.12s(wall), 488.91s(cpu)
        *  Thank you very much for using Q-Chem.  Have a nice day.  *
