 Gaussian 16, Revision A.03,
 Gaussian 16:  ES64L-G16RevA.03 25-Dec-2016

 --------------------------------------
 #P UB3LYP/6-311++G(d,p) nosym opt freq
 --------------------------------------

 --------
 Oxidized
 --------
 Symbolic Z-matrix:
 Charge =  0 Multiplicity = 1

 SCF Done:  E(UB3LYP) =  -880.903609668     A.U. after   16 cycles
 SCF Done:  E(UB3LYP) =  -880.903610712     A.U. after   10 cycles
 SCF Done:  E(UB3LYP) =  -880.903613439     A.U. after   11 cycles
 SCF Done:  E(UB3LYP) =  -880.903634608     A.U. after   12 cycles
 SCF Done:  E(UB3LYP) =  -880.850834331     A.U. after   14 cycles
 SCF Done:  E(UB3LYP) =  -880.904465399     A.U. after   14 cycles
 SCF Done:  E(UB3LYP) =  -880.798831259     A.U. after   15 cycles
 SCF Done:  E(UB3LYP) =  -880.903002356     A.U. after   14 cycles
 SCF Done:  E(UB3LYP) =  -880.905132682     A.U. after   10 cycles
 SCF Done:  E(UB3LYP) =  -880.906091202     A.U. after   13 cycles
 SCF Done:  E(UB3LYP) =  -880.906358069     A.U. after   12 cycles
 SCF Done:  E(UB3LYP) =  -880.906390155     A.U. after   13 cycles
 SCF Done:  E(UB3LYP) =  -880.906430637     A.U. after   12 cycles
 SCF Done:  E(UB3LYP) =  -880.906443803     A.U. after   11 cycles
 SCF Done:  E(UB3LYP) =  -880.906446822     A.U. after   11 cycles
 SCF Done:  E(UB3LYP) =  -880.906447442     A.U. after   10 cycles
 SCF Done:  E(UB3LYP) =  -880.906447554     A.U. after    9 cycles
 SCF Done:  E(UB3LYP) =  -880.906447579     A.U. after    8 cycles
 Optimization completed.
    -- Stationary point found.
 Normal termination of Gaussian 16 at Fri Jan 12 20:47:25 2024.

 ----------------------------------------------------------------------
 #P Geom=AllCheck Guess=TCheck SCRF=Check GenChk UB3LYP/6-311++G(d,p) F
 req
 ----------------------------------------------------------------------

 Structure from the checkpoint file:  "328.chk"
 --------
 Oxidized
 --------
 Charge =  0 Multiplicity = 1

                          Input orientation:
 ---------------------------------------------------------------------
 Center     Atomic      Atomic             Coordinates (Angstroms)
 Number     Number       Type             X           Y           Z
 ---------------------------------------------------------------------
      1          6           0       -1.271778    2.494301   -0.818737
      2          6           0       -2.308411    1.828519   -0.207021
      3          6           0       -2.101219    0.546682    0.352878
      4          6           0        0.016453    1.906682   -0.896575
      5          6           0        0.226771    0.610175   -0.329905
      6          6           0       -0.862475   -0.049518    0.293244
      7          6           0        1.108143    2.558776   -1.518732
      8          6           0        2.352415    1.974106   -1.586006
      9          6           0        2.565073    0.678014   -1.017795
     10          6           0        1.516223    0.023975   -0.408056
     11          6           0        3.463518    2.705891   -2.255789
     12          6           0        4.846272    1.999270   -2.314162
     13          6           0        4.955583    0.685153   -1.702880
     14          6           0        3.903616    0.069530   -1.098321
     15          8           0        3.325419    3.804894   -2.743998
     16          8           0        5.780104    2.556904   -2.859184
     17          1           0       -1.426085    3.477466   -1.249861
     18          1           0       -3.290155    2.284553   -0.151783
     19          1           0       -2.927090    0.033007    0.831716
     20          1           0       -0.704995   -1.033006    0.722789
     21          1           0        0.976149    3.541763   -1.957362
     22          1           0        1.675023   -0.957585    0.019626
     23          1           0        5.933006    0.226357   -1.761682
     24          8           0        3.963298   -1.143309   -0.518068
     25          6           0        5.214869   -1.861672   -0.504126
     26          6           0        5.006404   -3.133448    0.254113
     27          6           0        5.274767   -4.338282   -0.239600
     28          1           0        5.968752   -1.234708   -0.013484
     29          1           0        5.535779   -2.059363   -1.531302
     30          1           0        4.638791   -3.023020    1.270887
     31          1           0        5.638568   -4.471412   -1.253791
     32          1           0        5.146990   -5.235197    0.355094
 ---------------------------------------------------------------------

 SCF Done:  E(UB3LYP) =  -880.906447579     A.U. after    2 cycles

 Alpha  occ. eigenvalues --  -19.19310 -19.12770 -19.11383 -10.28127 -10.27061
 Alpha  occ. eigenvalues --  -10.26263 -10.26027 -10.21762 -10.21241 -10.21047
 Alpha  occ. eigenvalues --  -10.20684 -10.20486 -10.20477 -10.20417 -10.20115
 Alpha  occ. eigenvalues --  -10.20045 -10.20027 -10.19937 -10.19595 -10.18839
 Alpha  occ. eigenvalues --   -1.11004  -1.06699  -1.03691  -0.90828  -0.86978
 Alpha  occ. eigenvalues --   -0.83337  -0.81138  -0.80451  -0.76614  -0.76118
 Alpha  occ. eigenvalues --   -0.73089  -0.68824  -0.66448  -0.63634  -0.62466
 Alpha  occ. eigenvalues --   -0.60410  -0.59345  -0.55975  -0.55501  -0.54705
 Alpha  occ. eigenvalues --   -0.52322  -0.51635  -0.49051  -0.48822  -0.47808
 Alpha  occ. eigenvalues --   -0.46893  -0.45790  -0.45209  -0.44785  -0.44350
 Alpha  occ. eigenvalues --   -0.43982  -0.43087  -0.42991  -0.41617  -0.40126
 Alpha  occ. eigenvalues --   -0.39508  -0.39431  -0.37819  -0.37625  -0.36821
 Alpha  occ. eigenvalues --   -0.35928  -0.34698  -0.31433  -0.30053  -0.29504
 Alpha  occ. eigenvalues --   -0.28891  -0.25723  -0.24682  -0.24397
 Alpha virt. eigenvalues --   -0.11317  -0.08281  -0.03378  -0.02988  -0.01961
 Alpha virt. eigenvalues --   -0.01691  -0.01129  -0.00144   0.00479   0.00555
 Alpha virt. eigenvalues --    0.01079   0.02180   0.02550   0.02722   0.03572

  Beta  occ. eigenvalues --  -19.19310 -19.12770 -19.11383 -10.28127 -10.27061
  Beta  occ. eigenvalues --  -10.26263 -10.26027 -10.21762 -10.21241 -10.21047
  Beta  occ. eigenvalues --  -10.20684 -10.20486 -10.20477 -10.20417 -10.20115
  Beta  occ. eigenvalues --  -10.20045 -10.20027 -10.19937 -10.19595 -10.18839
  Beta  occ. eigenvalues --   -1.11004  -1.06699  -1.03691  -0.90828  -0.86978
  Beta  occ. eigenvalues --   -0.83337  -0.81138  -0.80451  -0.76614  -0.76118
  Beta  occ. eigenvalues --   -0.73089  -0.68824  -0.66448  -0.63634  -0.62466
  Beta  occ. eigenvalues --   -0.60410  -0.59345  -0.55975  -0.55501  -0.54705
  Beta  occ. eigenvalues --   -0.52322  -0.51635  -0.49051  -0.48822  -0.47808
  Beta  occ. eigenvalues --   -0.46893  -0.45790  -0.45209  -0.44785  -0.44350
  Beta  occ. eigenvalues --   -0.43982  -0.43087  -0.42991  -0.41617  -0.40126
  Beta  occ. eigenvalues --   -0.39508  -0.39431  -0.37819  -0.37625  -0.36821
  Beta  occ. eigenvalues --   -0.35928  -0.34698  -0.31433  -0.30053  -0.29504
  Beta  occ. eigenvalues --   -0.28891  -0.25723  -0.24682  -0.24397
  Beta virt. eigenvalues --   -0.11317  -0.08281  -0.03378  -0.02988  -0.01961
  Beta virt. eigenvalues --   -0.01691  -0.01129  -0.00144   0.00479   0.00555
  Beta virt. eigenvalues --    0.01079   0.02180   0.02550   0.02722   0.03572

 Mulliken charges and spin densities:
               1          2
     1  C   -0.124472   0.000000
     2  C   -0.235049  -0.000000
     3  C   -0.311372  -0.000000
     4  C    0.191078   0.000000
     5  C    0.025068   0.000000
     6  C   -0.141870  -0.000000
     7  C    0.096115  -0.000000
     8  C    0.651567   0.000000
     9  C    0.173003   0.000000
    10  C   -0.051094   0.000000
    11  C   -0.628436  -0.000000
    12  C   -0.120131  -0.000000
    13  C    0.168531   0.000000
    14  C   -0.478357  -0.000000
    15  O   -0.203287   0.000000
    16  O   -0.233464   0.000000
    17  H    0.148114   0.000000
    18  H    0.171738   0.000000
    19  H    0.174768  -0.000000
    20  H    0.145210   0.000000
    21  H    0.153721   0.000000
    22  H    0.116097  -0.000000
    23  H    0.224693   0.000000
    24  O   -0.017115   0.000000
    25  C   -0.341018   0.000000
    26  C    0.083361  -0.000000
    27  C   -0.429490   0.000000
    28  H    0.166868   0.000000
    29  H    0.148880  -0.000000
    30  H    0.185886   0.000000
    31  H    0.135181   0.000000
    32  H    0.155275  -0.000000
 Sum of Mulliken charges =   0.00000   0.00000

 Dipole moment (field-independent basis, Debye):
    X=             -3.5157    Y=             -5.9351    Z=              3.8623  Tot=              7.9059
 Quadrupole moment (field-independent basis, Debye-Ang):
   XX=           -124.7386   YY=           -124.2218   ZZ=           -129.4572
   XY=            -38.2800   XZ=             19.0135   YZ=             14.5415

  Exact polarizability: 315.803 -10.546 230.149 -58.651 -45.489 148.462
 Approx polarizability: 501.615  24.107 369.406-110.892 -85.201 251.852

                      1                      2                      3
                      A                      A                      A
 Frequencies --     32.1574                45.7449                57.0456
 Red. masses --      6.2424                 6.1266                 3.4918
 Frc consts  --      0.0038                 0.0076                 0.0067
 IR Inten    --      0.0147                 0.0396                 0.8797

                      4                      5                      6
                      A                      A                      A
 Frequencies --     77.1555                91.1824               109.0765
 Red. masses --      4.4045                 4.2271                 2.7637
 Frc consts  --      0.0154                 0.0207                 0.0194
 IR Inten    --      1.5053                 0.3638                 0.4664

                      7                      8                      9
                      A                      A                      A
 Frequencies --    143.4160               176.8348               188.9797
 Red. masses --      3.7403                 6.6124                 5.6460
 Frc consts  --      0.0453                 0.1218                 0.1188
 IR Inten    --      0.1582                 4.4183                 2.5570

                     10                     11                     12
                      A                      A                      A
 Frequencies --    235.6346               260.6146               266.9793
 Red. masses --      4.6630                 4.8564                 4.1535
 Frc consts  --      0.1525                 0.1943                 0.1744
 IR Inten    --      0.6133                 1.7100                 4.6354

                     13                     14                     15
                      A                      A                      A
 Frequencies --    292.6799               340.8215               358.3953
 Red. masses --      4.8127                 4.9709                11.3378
 Frc consts  --      0.2429                 0.3402                 0.8580
 IR Inten    --      0.9034                 0.9064                 4.8853

                     16                     17                     18
                      A                      A                      A
 Frequencies --    387.8115               395.0659               454.2232
 Red. masses --      6.3613                 3.4690                 2.7293
 Frc consts  --      0.5637                 0.3190                 0.3318
 IR Inten    --      4.4443                 0.0140                 0.5269

                     19                     20                     21
                      A                      A                      A
 Frequencies --    479.7442               488.0602               497.0114
 Red. masses --      7.1080                 2.6461                 5.8570
 Frc consts  --      0.9639                 0.3714                 0.8524
 IR Inten    --      7.2968                15.6032                 0.8500

                     22                     23                     24
                      A                      A                      A
 Frequencies --    524.2731               543.2002               596.0971
 Red. masses --      4.0469                 6.3785                 5.0270
 Frc consts  --      0.6554                 1.1089                 1.0524
 IR Inten    --      0.9652                 8.5772                 1.9728

                     25                     26                     27
                      A                      A                      A
 Frequencies --    602.8527               614.4865               637.1979
 Red. masses --      3.9391                 3.7357                 4.4646
 Frc consts  --      0.8435                 0.8311                 1.0680
 IR Inten    --      4.0895                 0.0744                 1.4576

                     28                     29                     30
                      A                      A                      A
 Frequencies --    682.0697               715.5359               729.4673
 Red. masses --      2.8007                 5.7174                 4.9690
 Frc consts  --      0.7677                 1.7247                 1.5579
 IR Inten    --      7.0863                 2.3798                 0.8766

                     31                     32                     33
                      A                      A                      A
 Frequencies --    766.3028               772.4216               782.1542
 Red. masses --      1.4534                 3.0754                 5.6859
 Frc consts  --      0.5029                 1.0811                 2.0494
 IR Inten    --     38.9074                 7.4578                17.5876

                     34                     35                     36
                      A                      A                      A
 Frequencies --    793.3174               803.4172               850.5838
 Red. masses --      4.8159                 2.9803                 1.9233
 Frc consts  --      1.7857                 1.1334                 0.8198
 IR Inten    --      1.4436                20.4631                16.9772

                     37                     38                     39
                      A                      A                      A
 Frequencies --    870.3519               911.0016               929.8948
 Red. masses --      1.3831                 4.9231                 1.4836
 Frc consts  --      0.6173                 2.4073                 0.7558
 IR Inten    --      0.0270                 3.9344                11.7005

                     40                     41                     42
                      A                      A                      A
 Frequencies --    940.6509               949.0734               972.5943
 Red. masses --      1.4391                 1.4250                 1.3477
 Frc consts  --      0.7503                 0.7563                 0.7511
 IR Inten    --      1.3660                12.2483                68.1488

                     43                     44                     45
                      A                      A                      A
 Frequencies --    977.2350               982.8952               991.1380
 Red. masses --      4.0860                 1.4129                 3.5924
 Frc consts  --      2.2991                 0.8042                 2.0792
 IR Inten    --     30.6263                 8.8810                38.0035

                     46                     47                     48
                      A                      A                      A
 Frequencies --   1000.7099              1004.4069              1028.2472
 Red. masses --      1.3052                 1.9976                 1.2333
 Frc consts  --      0.7701                 1.1873                 0.7683
 IR Inten    --      0.0202                 6.9798                26.1487

                     49                     50                     51
                      A                      A                      A
 Frequencies --   1041.9666              1100.1352              1161.9361
 Red. masses --      2.3010                 4.3567                 1.6277
 Frc consts  --      1.4719                 3.1067                 1.2947
 IR Inten    --      2.9700               133.7949                46.2965

                     52                     53                     54
                      A                      A                      A
 Frequencies --   1174.1083              1177.6941              1186.9974
 Red. masses --      1.8248                 1.2513                 1.6664
 Frc consts  --      1.4821                 1.0225                 1.3833
 IR Inten    --      5.7102                 4.8408                64.3640

                     55                     56                     57
                      A                      A                      A
 Frequencies --   1235.5279              1246.0348              1262.8424
 Red. masses --      2.5287                 2.0691                 3.2355
 Frc consts  --      2.2743                 1.8927                 3.0401
 IR Inten    --     96.1401               208.9877               108.0934

                     58                     59                     60
                      A                      A                      A
 Frequencies --   1269.0834              1274.3649              1288.4720
 Red. masses --      1.1707                 2.6851                 1.9848
 Frc consts  --      1.1109                 2.5692                 1.9415
 IR Inten    --      6.4399                13.1486                16.5366

                     61                     62                     63
                      A                      A                      A
 Frequencies --   1318.2760              1350.6956              1367.4131
 Red. masses --      1.2581                 2.5895                 1.6591
 Frc consts  --      1.2882                 2.7834                 1.8278
 IR Inten    --      2.2733               105.2443               118.6988

                     64                     65                     66
                      A                      A                      A
 Frequencies --   1391.1068              1404.2320              1419.5984
 Red. masses --      4.1593                 2.1112                 3.6493
 Frc consts  --      4.7423                 2.4527                 4.3330
 IR Inten    --      6.6800                17.6879                23.9012

                     67                     68                     69
                      A                      A                      A
 Frequencies --   1461.8417              1476.8506              1494.2388
 Red. masses --      1.2385                 2.7060                 2.5715
 Frc consts  --      1.5594                 3.4773                 3.3828
 IR Inten    --     16.4979                33.1950                34.8953

                     70                     71                     72
                      A                      A                      A
 Frequencies --   1503.4777              1534.5901              1597.2118
 Red. masses --      1.1517                 3.6366                 6.5084
 Frc consts  --      1.5339                 5.0458                 9.7825
 IR Inten    --     11.8643                 0.8265                77.8707

                     73                     74                     75
                      A                      A                      A
 Frequencies --   1619.5194              1637.9764              1655.4497
 Red. masses --      6.7908                 7.0587                 5.9789
 Frc consts  --     10.4941                11.1581                 9.6539
 IR Inten    --    216.3565                96.7929                33.7806

                     76                     77                     78
                      A                      A                      A
 Frequencies --   1710.0836              1724.2794              1767.7910
 Red. masses --      4.6395                12.2612                12.6613
 Frc consts  --      7.9939                21.4782                23.3125
 IR Inten    --      5.1471               505.5067                62.5887

                     79                     80                     81
                      A                      A                      A
 Frequencies --   3011.9019              3065.7948              3131.4686
 Red. masses --      1.0584                 1.1049                 1.0595
 Frc consts  --      5.6567                 6.1186                 6.1214
 IR Inten    --     13.0908                12.4606                 7.2077

                     82                     83                     84
                      A                      A                      A
 Frequencies --   3149.7824              3163.7509              3169.6771
 Red. masses --      1.0925                 1.0860                 1.0884
 Frc consts  --      6.3863                 6.4048                 6.4430
 IR Inten    --      4.2612                 0.9944                 0.2130

                     85                     86                     87
                      A                      A                      A
 Frequencies --   3180.1543              3182.8319              3191.5318
 Red. masses --      1.0936                 1.0909                 1.0975
 Frc consts  --      6.5164                 6.5114                 6.5864
 IR Inten    --     14.7027                 2.0444                19.9745

                     88                     89                     90
                      A                      A                      A
 Frequencies --   3201.1947              3209.4667              3218.5867
 Red. masses --      1.0904                 1.0903                 1.1154
 Frc consts  --      6.5836                 6.6169                 6.8076
 IR Inten    --      0.6767                 4.6512                 8.9887

 - Thermochemistry -
 -------------------
 Temperature   298.150 Kelvin.  Pressure   1.00000 Atm.
 Atom     1 has atomic number  6 and mass  12.00000

 Molecular mass:   264.07864 amu.
 Principal axes and moments of inertia in atomic units:
                           1         2         3
     Eigenvalues --  4195.561287353.48047**********
           X            0.89832   0.35676   0.25641
           Y           -0.43396   0.81164   0.39105
           Z           -0.06860  -0.46256   0.88393
 This molecule is an asymmetric top.
 Rotational symmetry number  1.
 Warning -- assumption of classical behavior for rotation
           may cause significant error
 Rotational temperatures (Kelvin)      0.02064     0.01178     0.00755
 Rotational constants (GHZ):           0.43015     0.24543     0.15731
 Zero-point vibrational energy     640481.5 (Joules/Mol)
                                  153.07876 (Kcal/Mol)
 Warning -- explicit consideration of  26 degrees of freedom as
           vibrations may cause significant error
 Vibrational temperatures:     46.27    65.82    82.08   111.01   131.19
          (Kelvin)            156.94   206.34   254.43   271.90   339.03
                              374.97   384.12   421.10   490.37   515.65
                              557.97   568.41   653.53   690.24   702.21
                              715.09   754.31   781.54   857.65   867.37
                              884.11   916.79   981.35  1029.50  1049.54
                             1102.54  1111.34  1125.35  1141.41  1155.94
                             1223.80  1252.24  1310.73  1337.91  1353.39
                             1365.50  1399.35  1406.02  1414.17  1426.03
                             1439.80  1445.12  1479.42  1499.16  1582.85
                             1671.77  1689.28  1694.44  1707.82  1777.65
                             1792.77  1816.95  1825.93  1833.53  1853.82
                             1896.71  1943.35  1967.40  2001.49  2020.38
                             2042.49  2103.26  2124.86  2149.88  2163.17
                             2207.93  2298.03  2330.13  2356.68  2381.82
                             2460.43  2480.85  2543.46  4333.46  4410.99
                             4505.48  4531.83  4551.93  4560.46  4575.53
                             4579.39  4591.90  4605.81  4617.71  4630.83

 Zero-point correction=                           0.243947 (Hartree/Particle)
 Thermal correction to Energy=                    0.260226
 Thermal correction to Enthalpy=                  0.261170
 Thermal correction to Gibbs Free Energy=         0.198851
 Sum of electronic and zero-point Energies=           -880.662501
 Sum of electronic and thermal Energies=              -880.646222
 Sum of electronic and thermal Enthalpies=            -880.645278
 Sum of electronic and thermal Free Energies=         -880.707597

                     E (Thermal)             CV                S
                      KCal/Mol        Cal/Mol-Kelvin    Cal/Mol-Kelvin
 Total                  163.294             63.365            131.162
 Electronic               0.000              0.000              0.000
 Translational            0.889              2.981             42.613
 Rotational               0.889              2.981             34.225
 Vibrational            161.517             57.403             54.324
 Vibration     1          0.594              1.983              5.692
 Vibration     2          0.595              1.979              4.993
 Vibration     3          0.596              1.975              4.557
 Vibration     4          0.599              1.964              3.962
 Vibration     5          0.602              1.955              3.635
 Vibration     6          0.606              1.942              3.285
 Vibration     7          0.616              1.910              2.758
 Vibration     8          0.628              1.871              2.362
 Vibration     9          0.633              1.855              2.238
 Vibration    10          0.655              1.786              1.836
 Vibration    11          0.669              1.745              1.658
 Vibration    12          0.672              1.734              1.616
 Vibration    13          0.688              1.687              1.458
 Vibration    14          0.720              1.594              1.208
 Vibration    15          0.733              1.558              1.129
 Vibration    16          0.756              1.496              1.009
 Vibration    17          0.762              1.481              0.981
 Vibration    18          0.813              1.352              0.783
 Vibration    19          0.836              1.295              0.711
 Vibration    20          0.844              1.277              0.689
 Vibration    21          0.853              1.257              0.666
 Vibration    22          0.879              1.196              0.600
 Vibration    23          0.898              1.155              0.558
 Vibration    24          0.954              1.040              0.456
 Vibration    25          0.961              1.026              0.445
 Vibration    26          0.974              1.001              0.425

                           ! Non-Optimized Parameters !
 Normal termination of Gaussian 16 at Fri Jan 12 21:34:51 2024.
