 Gaussian 16, Revision A.03,
 Gaussian 16:  ES64L-G16RevA.03 25-Dec-2016

 ----------------------------------------------------------------
 #P UB3LYP/6-311++G(d,p) SCRF=(PCM,Solvent=n,n-DiMethylFormamide)
 ----------------------------------------------------------------

 ------------------
 Radical PCM in DMF
 ------------------
 Symbolic Z-matrix:
 Charge = -1 Multiplicity = 2

                         Standard orientation:
 ---------------------------------------------------------------------
 Center     Atomic      Atomic             Coordinates (Angstroms)
 Number     Number       Type             X           Y           Z
 ---------------------------------------------------------------------
      1          6           0       -0.239964   -1.075051    0.050484
      2          6           0       -1.668908   -0.703710    0.021473
      3          6           0       -2.067377    0.598236   -0.028896
      4          6           0       -1.135897    1.712257   -0.056934
      5          6           0        0.254178    1.350508   -0.042115
      6          6           0        0.716768    0.039153   -0.017658
      7          8           0        0.080252   -2.276035    0.166135
      8          8           0       -1.527371    2.915013   -0.096704
      9          6           0        2.175464   -0.213674   -0.076204
     10          6           0        3.114046    0.920338    0.365128
     11          8           0        2.680043   -1.255592   -0.469924
     12          1           0        2.791865    1.385138    1.300143
     13          1           0        3.153181    1.706025   -0.396647
     14          1           0        4.113834    0.500260    0.479221
     15          1           0        0.947378    2.183407   -0.082860
     16          6           0       -2.655597   -1.839201    0.068593
     17          1           0       -3.124422    0.855533   -0.044418
     18          1           0       -2.495751   -2.530205   -0.765448
     19          1           0       -3.683130   -1.466704    0.032383
     20          1           0       -2.522635   -2.433685    0.978349
 ---------------------------------------------------------------------

 SCF Done:  E(UB3LYP) =  -573.743714878     A.U. after   19 cycles

 The electronic state is 2-A.
 Alpha  occ. eigenvalues --  -19.10497 -19.08288 -19.08261 -10.25734 -10.23185
 Alpha  occ. eigenvalues --  -10.22336 -10.17929 -10.17599 -10.17280 -10.16568
 Alpha  occ. eigenvalues --  -10.16393 -10.15974  -1.03875  -1.00989  -1.00195
 Alpha  occ. eigenvalues --   -0.83310  -0.78332  -0.73118  -0.70191  -0.67126
 Alpha  occ. eigenvalues --   -0.61999  -0.56277  -0.52594  -0.48958  -0.47436
 Alpha  occ. eigenvalues --   -0.45875  -0.44247  -0.42473  -0.42372  -0.42080
 Alpha  occ. eigenvalues --   -0.40632  -0.39393  -0.39256  -0.38539  -0.37668
 Alpha  occ. eigenvalues --   -0.36790  -0.36417  -0.35359  -0.28624  -0.26731
 Alpha  occ. eigenvalues --   -0.25848  -0.24777  -0.22759  -0.16867
 Alpha virt. eigenvalues --   -0.05163  -0.00245   0.00683   0.01266   0.01733
 Alpha virt. eigenvalues --    0.02677   0.03078   0.03656   0.04490   0.04703
 Alpha virt. eigenvalues --    0.05174   0.05876   0.06258   0.07380   0.07573

  Beta  occ. eigenvalues --  -19.10410 -19.07720 -19.07521 -10.25727 -10.23099
  Beta  occ. eigenvalues --  -10.22220 -10.17812 -10.17487 -10.17012 -10.16564
  Beta  occ. eigenvalues --  -10.16395 -10.15982  -1.03699  -1.00026  -0.98892
  Beta  occ. eigenvalues --   -0.82734  -0.78080  -0.72917  -0.69826  -0.66386
  Beta  occ. eigenvalues --   -0.61663  -0.55904  -0.52336  -0.48747  -0.47134
  Beta  occ. eigenvalues --   -0.45655  -0.43839  -0.42188  -0.41951  -0.41718
  Beta  occ. eigenvalues --   -0.40177  -0.39206  -0.38471  -0.37789  -0.36582
  Beta  occ. eigenvalues --   -0.36385  -0.35453  -0.34507  -0.26450  -0.25516
  Beta  occ. eigenvalues --   -0.24975  -0.24104  -0.22350
  Beta virt. eigenvalues --   -0.09870  -0.03928  -0.00221   0.00693   0.01763
  Beta virt. eigenvalues --    0.02624   0.03056   0.03121   0.03676   0.04774
  Beta virt. eigenvalues --    0.04981   0.05808   0.05897   0.06304   0.07422

 Mulliken charges and spin densities:
               1          2
     1  C   -1.529980  -0.002126
     2  C    1.283406   0.091180
     3  C   -0.490934  -0.010898
     4  C   -0.343773   0.131941
     5  C   -0.661960   0.193043
     6  C    1.582553   0.082314
     7  O   -0.418064   0.211231
     8  O   -0.490760   0.260297
     9  C    0.073995   0.016769
    10  C   -0.605924   0.002173
    11  O   -0.361926   0.031404
    12  H    0.159593  -0.000351
    13  H    0.179205   0.000657
    14  H    0.182302  -0.000283
    15  H    0.179574  -0.013239
    16  C   -0.387800  -0.000419
    17  H    0.165338  -0.002155
    18  H    0.167394   0.003922
    19  H    0.148005  -0.000306
    20  H    0.169757   0.004846
 Sum of Mulliken charges =  -1.00000   1.00000

 Dipole moment (field-independent basis, Debye):
    X=             -0.1220    Y=              0.8589    Z=              1.0605  Tot=              1.3701
 Quadrupole moment (field-independent basis, Debye-Ang):
   XX=            -83.5717   YY=           -111.5834   ZZ=            -73.5883
   XY=             23.5976   XZ=              2.8428   YZ=             -0.0325

 Normal termination of Gaussian 16 at Sun Jan 21 07:27:15 2024.
