 Q-Chem 5.4, Q-Chem, Inc., Pleasanton, CA (2021)
 Q-Chem 5.4.0 for Intel X86 EM64T Linux

User input:
--------------------------------------------------------------
$molecule
-4 1
C                  5.5864650000     -4.7969380000      0.7983030000
C                  6.6360030000     -4.6621270000     -0.0873510000
C                  6.5969000000     -3.6266750000     -1.0392760000
C                  4.4788530000     -3.9277770000      0.7620770000
C                  4.4031090000     -2.9044300000     -0.2395030000
C                  5.5184560000     -2.7572800000     -1.1358940000
C                  3.4353900000     -4.1722820000      1.8031930000
C                  2.2744820000     -3.2691580000      1.8339260000
C                  2.1619820000     -2.2973070000      0.7856280000
C                  3.1794010000     -2.0892530000     -0.2886690000
C                  1.2380380000     -3.3058170000      2.8307040000
C                  0.1513520000     -2.4479920000      2.7238360000
C                  0.0241610000     -1.5359950000      1.6599080000
C                  1.0255630000     -1.4685530000      0.7129270000
O                  3.5672360000     -5.1219220000      2.5927700000
O                  2.9634520000     -1.2573270000     -1.1852720000
S                  1.1451480000     -4.3890090000      4.3675710000
O                 -0.0698530000     -3.8669810000      5.0882280000
O                  2.3805400000     -4.1452490000      5.1584100000
O                  0.9317960000     -5.7909090000      3.9159510000
S                  5.7607930000     -1.4651060000     -2.4833370000
O                  7.1642690000     -1.7232460000     -2.9647250000
O                  4.7714170000     -1.7476480000     -3.5585390000
O                  5.6542270000     -0.1280730000     -1.8414380000
H                  5.5777570000     -5.5660140000      1.5605980000
H                  7.4891230000     -5.3451190000     -0.0537580000
H                  7.4210960000     -3.4828660000     -1.7245240000
H                 -0.6057160000     -2.4977220000      3.4945180000
H                 -0.8563560000     -0.8914360000      1.5915180000
H                  0.9832140000     -0.7708590000     -0.1141600000
$end
$rem
MAX_SCF_CYCLES=200
BASIS  =  6-311++G(d,p)
GUI  =  2
JOB_TYPE  =  SP
METHOD  =  B3LYP
SOLVENT_METHOD = PCM
$end
$pcm
theory = CPCM
$end
$solvent
dielectric 37.219
opticaldielectric 1.43
$end

--------------------------------------------------------------

             Standard Nuclear Orientation (Angstroms)
    I     Atom           X                Y                Z
 ----------------------------------------------------------------
    1      C       5.5864650000    -4.7969380000     0.7983030000
    2      C       6.6360030000    -4.6621270000    -0.0873510000
    3      C       6.5969000000    -3.6266750000    -1.0392760000
    4      C       4.4788530000    -3.9277770000     0.7620770000
    5      C       4.4031090000    -2.9044300000    -0.2395030000
    6      C       5.5184560000    -2.7572800000    -1.1358940000
    7      C       3.4353900000    -4.1722820000     1.8031930000
    8      C       2.2744820000    -3.2691580000     1.8339260000
    9      C       2.1619820000    -2.2973070000     0.7856280000
   10      C       3.1794010000    -2.0892530000    -0.2886690000
   11      C       1.2380380000    -3.3058170000     2.8307040000
   12      C       0.1513520000    -2.4479920000     2.7238360000
   13      C       0.0241610000    -1.5359950000     1.6599080000
   14      C       1.0255630000    -1.4685530000     0.7129270000
   15      O       3.5672360000    -5.1219220000     2.5927700000
   16      O       2.9634520000    -1.2573270000    -1.1852720000
   17      S       1.1451480000    -4.3890090000     4.3675710000
   18      O      -0.0698530000    -3.8669810000     5.0882280000
   19      O       2.3805400000    -4.1452490000     5.1584100000
   20      O       0.9317960000    -5.7909090000     3.9159510000
   21      S       5.7607930000    -1.4651060000    -2.4833370000
   22      O       7.1642690000    -1.7232460000    -2.9647250000
   23      O       4.7714170000    -1.7476480000    -3.5585390000
   24      O       5.6542270000    -0.1280730000    -1.8414380000
   25      H       5.5777570000    -5.5660140000     1.5605980000
   26      H       7.4891230000    -5.3451190000    -0.0537580000
   27      H       7.4210960000    -3.4828660000    -1.7245240000
   28      H      -0.6057160000    -2.4977220000     3.4945180000
   29      H      -0.8563560000    -0.8914360000     1.5915180000
   30      H       0.9832140000    -0.7708590000    -0.1141600000
 ----------------------------------------------------------------

    9   -1936.0827860104      4.49e-06  Convergence criterion met
 Total energy in the final basis set =    -1936.0827860104

                    Orbital Energies (a.u.)
 --------------------------------------------------------------

 Alpha MOs
 -- Occupied --
-89.0265 -89.0265 -19.0726 -19.0726 -19.0724 -19.0723 -19.0684 -19.0684
-19.0124 -19.0123 -10.1749 -10.1749 -10.1744 -10.1744 -10.1460 -10.1460
-10.1437 -10.1437 -10.1430 -10.1429 -10.1421 -10.1421 -10.1334 -10.1334
 -8.0849  -8.0849  -6.0477  -6.0477  -6.0477  -6.0477  -6.0465  -6.0464
 -1.0863  -1.0863  -0.9564  -0.9556  -0.9555  -0.9539  -0.9455  -0.9454
 -0.8281  -0.8234  -0.7460  -0.7280  -0.7274  -0.7068  -0.6268  -0.6207
 -0.5992  -0.5842  -0.5749  -0.5324  -0.5102  -0.5042  -0.4918  -0.4570
 -0.4501  -0.4420  -0.4352  -0.4346  -0.4341  -0.4331  -0.4270  -0.4183
 -0.4163  -0.3809  -0.3765  -0.3728  -0.3678  -0.3458  -0.3434  -0.3424
 -0.3322  -0.3284  -0.3198  -0.3175  -0.3144  -0.3127  -0.3097  -0.3069
 -0.2871  -0.2825  -0.2737  -0.2711  -0.2673  -0.2648  -0.2390  -0.2372
 -0.2306  -0.2245  -0.2214  -0.2178  -0.1936  -0.1872  -0.0904

          Ground-State Mulliken Net Atomic Charges

     Atom                 Charge (a.u.)
  ----------------------------------------
      1 C                    -0.284440
      2 C                    -0.478832
      3 C                     0.622645
      4 C                     0.759170
      5 C                     0.124131
      6 C                    -0.979938
      7 C                    -1.092127
      8 C                     0.129035
      9 C                     0.758160
     10 C                    -1.084975
     11 C                    -0.971441
     12 C                     0.625455
     13 C                    -0.480791
     14 C                    -0.282434
     15 O                    -0.544198
     16 O                    -0.543832
     17 S                     0.671234
     18 O                    -0.464863
     19 O                    -0.450037
     20 O                    -0.438895
     21 S                     0.673227
     22 O                    -0.464867
     23 O                    -0.439150
     24 O                    -0.449775
     25 H                     0.139626
     26 H                     0.184678
     27 H                     0.219509
     28 H                     0.219567
     29 H                     0.184586
     30 H                     0.139572
  ----------------------------------------
  Sum of atomic charges =    -4.000000

                    Cartesian Multipole Moments
 -----------------------------------------------------------------
    Charge (ESU x 10^10)
               -19.2128
    Dipole Moment (Debye)
         X     -65.3026      Y      57.6947      Z     -16.7816
       Tot      88.7397
    Quadrupole Moments (Debye-Ang)
        XX    -477.8610     XY     151.6056     YY    -410.4523
        XZ      46.5111     YZ     141.0732     ZZ    -382.5669

 Total job time:  87.50s(wall), 597.03s(cpu)
        *  Thank you very much for using Q-Chem.  Have a nice day.  *
