 Gaussian 16, Revision A.03,
 Gaussian 16:  ES64L-G16RevA.03 25-Dec-2016

 ----------------------------------------------------------------
 #P UB3LYP/6-311++G(d,p) SCRF=(PCM,Solvent=n,n-DiMethylFormamide)
 ----------------------------------------------------------------

 -------
 Reduced
 -------
 Symbolic Z-matrix:
 Charge = -4 Multiplicity = 1

                         Standard orientation:
 ---------------------------------------------------------------------
 Center     Atomic      Atomic             Coordinates (Angstroms)
 Number     Number       Type             X           Y           Z
 ---------------------------------------------------------------------
      1          6           0        0.897343   -2.676917   -0.169343
      2          6           0        2.231381   -3.025797   -0.117259
      3          6           0        3.199453   -2.009036   -0.022993
      4          6           0        0.489049   -1.329356   -0.138783
      5          6           0        1.469667   -0.283914   -0.099058
      6          6           0        2.854426   -0.664005   -0.014545
      7          6           0       -0.987770   -1.104191   -0.167499
      8          6           0       -1.469815    0.284093   -0.099794
      9          6           0       -0.489226    1.329564   -0.138716
     10          6           0        0.987643    1.104466   -0.165749
     11          6           0       -2.854603    0.664060   -0.015453
     12          6           0       -3.199814    2.009021   -0.024522
     13          6           0       -2.231789    3.025829   -0.118790
     14          6           0       -0.897659    2.677075   -0.169743
     15          8           0       -1.754964   -2.076674   -0.258727
     16          8           0        1.754901    2.077130   -0.254477
     17         16           0       -4.357288   -0.458483    0.144953
     18          8           0       -5.493881    0.508529    0.347756
     19          8           0       -4.153889   -1.303667    1.351324
     20          8           0       -4.508564   -1.191858   -1.141158
     21         16           0        4.357519    0.458286    0.144250
     22          8           0        5.494429   -0.508912    0.344447
     23          8           0        4.506618    1.192496   -1.141619
     24          8           0        4.156327    1.302654    1.351566
     25          1           0        0.113863   -3.422439   -0.224151
     26          1           0        2.538019   -4.074869   -0.146280
     27          1           0        4.249199   -2.258868    0.048849
     28          1           0       -4.249587    2.258793    0.047358
     29          1           0       -2.538480    4.074880   -0.148408
     30          1           0       -0.114257    3.422714   -0.224023
 ---------------------------------------------------------------------

 SCF Done:  E(UB3LYP) =  -1936.06620077     A.U. after   18 cycles

 The electronic state is 1-A.
 Alpha  occ. eigenvalues --  -89.01981 -89.01981 -19.06551 -19.06551 -19.06543
 Alpha  occ. eigenvalues --  -19.06542 -19.06203 -19.06203 -19.00555 -19.00554
 Alpha  occ. eigenvalues --  -10.17060 -10.17060 -10.16896 -10.16895 -10.14235
 Alpha  occ. eigenvalues --  -10.14235 -10.14115 -10.14114 -10.13985 -10.13984
 Alpha  occ. eigenvalues --  -10.13732 -10.13730 -10.12893 -10.12892  -8.07820
 Alpha  occ. eigenvalues --   -8.07820  -6.04102  -6.04102  -6.04094  -6.04094
 Alpha  occ. eigenvalues --   -6.03978  -6.03978  -1.07925  -1.07925  -0.94942
 Alpha  occ. eigenvalues --   -0.94822  -0.94815  -0.94686  -0.93865  -0.93852
 Alpha  occ. eigenvalues --   -0.82398  -0.81950  -0.74182  -0.72401  -0.72328
 Alpha  occ. eigenvalues --   -0.70306  -0.62183  -0.61631  -0.59417  -0.58009
 Alpha  occ. eigenvalues --   -0.56980  -0.52764  -0.50481  -0.50008  -0.48723
 Alpha  occ. eigenvalues --   -0.45140  -0.44457  -0.43693  -0.42932  -0.42824
 Alpha  occ. eigenvalues --   -0.42711  -0.42685  -0.42259  -0.41376  -0.41173
 Alpha  occ. eigenvalues --   -0.37592  -0.37198  -0.36806  -0.36140  -0.34170
 Alpha  occ. eigenvalues --   -0.33956  -0.33841  -0.32571  -0.32233  -0.31296
 Alpha  occ. eigenvalues --   -0.31044  -0.30998  -0.30521  -0.30270  -0.30161
 Alpha  occ. eigenvalues --   -0.28045  -0.27541  -0.26753  -0.26466  -0.26052
 Alpha  occ. eigenvalues --   -0.25840  -0.23175  -0.22975  -0.22617  -0.21986
 Alpha  occ. eigenvalues --   -0.21563  -0.21409  -0.18641  -0.18017  -0.08470
 Alpha virt. eigenvalues --   -0.02588   0.00694   0.01071   0.01274   0.01384
 Alpha virt. eigenvalues --    0.02259   0.03030   0.03264   0.04679   0.04806
 Alpha virt. eigenvalues --    0.05070   0.05484   0.05674   0.06345   0.06931

  Beta  occ. eigenvalues --  -89.01981 -89.01981 -19.06551 -19.06551 -19.06543
  Beta  occ. eigenvalues --  -19.06542 -19.06203 -19.06203 -19.00555 -19.00554
  Beta  occ. eigenvalues --  -10.17060 -10.17060 -10.16896 -10.16895 -10.14235
  Beta  occ. eigenvalues --  -10.14235 -10.14115 -10.14114 -10.13985 -10.13984
  Beta  occ. eigenvalues --  -10.13732 -10.13730 -10.12893 -10.12892  -8.07820
  Beta  occ. eigenvalues --   -8.07820  -6.04102  -6.04102  -6.04094  -6.04094
  Beta  occ. eigenvalues --   -6.03978  -6.03978  -1.07925  -1.07925  -0.94942
  Beta  occ. eigenvalues --   -0.94822  -0.94815  -0.94686  -0.93865  -0.93852
  Beta  occ. eigenvalues --   -0.82398  -0.81950  -0.74182  -0.72401  -0.72328
  Beta  occ. eigenvalues --   -0.70306  -0.62183  -0.61631  -0.59417  -0.58009
  Beta  occ. eigenvalues --   -0.56980  -0.52764  -0.50481  -0.50008  -0.48723
  Beta  occ. eigenvalues --   -0.45140  -0.44457  -0.43693  -0.42932  -0.42824
  Beta  occ. eigenvalues --   -0.42711  -0.42685  -0.42259  -0.41376  -0.41173
  Beta  occ. eigenvalues --   -0.37592  -0.37198  -0.36806  -0.36140  -0.34170
  Beta  occ. eigenvalues --   -0.33956  -0.33841  -0.32571  -0.32233  -0.31296
  Beta  occ. eigenvalues --   -0.31044  -0.30998  -0.30521  -0.30270  -0.30161
  Beta  occ. eigenvalues --   -0.28045  -0.27541  -0.26753  -0.26466  -0.26052
  Beta  occ. eigenvalues --   -0.25840  -0.23175  -0.22975  -0.22617  -0.21986
  Beta  occ. eigenvalues --   -0.21563  -0.21409  -0.18641  -0.18017  -0.08470
  Beta virt. eigenvalues --   -0.02588   0.00694   0.01071   0.01274   0.01384
  Beta virt. eigenvalues --    0.02259   0.03030   0.03264   0.04679   0.04806
  Beta virt. eigenvalues --    0.05070   0.05484   0.05674   0.06345   0.06931

 Mulliken charges and spin densities:
               1          2
     1  C   -0.285780  -0.000000
     2  C   -0.477008  -0.000000
     3  C    0.671584   0.000000
     4  C    0.760078   0.000000
     5  C    0.139422  -0.000000
     6  C   -0.965349  -0.000000
     7  C   -1.188437  -0.000000
     8  C    0.141601  -0.000000
     9  C    0.760353   0.000000
    10  C   -1.182159  -0.000000
    11  C   -0.964455  -0.000000
    12  C    0.677297   0.000000
    13  C   -0.476804  -0.000000
    14  C   -0.285745  -0.000000
    15  O   -0.509542   0.000000
    16  O   -0.509639   0.000000
    17  S    0.646463  -0.000000
    18  O   -0.452123   0.000000
    19  O   -0.437558   0.000000
    20  O   -0.427406   0.000000
    21  S    0.646621   0.000000
    22  O   -0.451967   0.000000
    23  O   -0.427502  -0.000000
    24  O   -0.437462   0.000000
    25  H    0.137692   0.000000
    26  H    0.164514  -0.000000
    27  H    0.215573  -0.000000
    28  H    0.215557  -0.000000
    29  H    0.164502  -0.000000
    30  H    0.137678  -0.000000
 Sum of Mulliken charges =  -4.00000   0.00000

 Dipole moment (field-independent basis, Debye):
    X=             -0.0022    Y=             -0.0002    Z=             -0.5391  Tot=              0.5391
 Quadrupole moment (field-independent basis, Debye-Ang):
   XX=           -463.4110   YY=           -213.9418   ZZ=           -186.9333
   XY=            -48.8914   XZ=              0.0031   YZ=             -0.0278

 Normal termination of Gaussian 16 at Tue Jan 16 20:41:56 2024.
