 Q-Chem 5.4, Q-Chem, Inc., Pleasanton, CA (2021)
 Q-Chem 5.4.0 for Intel X86 EM64T Linux

User input:
--------------------------------------------------------------
$molecule
0 1
O                  0.1245830000      0.4111350000      2.6509660000
C                  0.0678470000      0.2238980000      1.4432210000
C                 -1.2096040000      0.1119060000      0.7087730000
C                 -2.4408460000      0.2174090000      1.3770760000
C                 -3.6329730000      0.1114660000      0.6838320000
C                 -3.6144560000     -0.1038480000     -0.7028260000
C                 -2.4141800000     -0.2116300000     -1.3863480000
C                 -1.2155790000     -0.1030050000     -0.6760010000
O                 -0.0661920000     -0.2179290000     -1.4064430000
C                  1.1469450000     -0.1231330000     -0.7838510000
C                  2.2735480000     -0.2514500000     -1.6007390000
C                  3.5328830000     -0.1648550000     -1.0294600000
C                  3.6814700000      0.0485850000      0.3495050000
C                  2.5595500000      0.1742170000      1.1487350000
C                  1.2710110000      0.0905180000      0.5955720000
H                 -2.4172350000      0.3835040000      2.4474160000
H                 -4.5781410000      0.1939840000      1.2068550000
H                 -4.5468360000     -0.1874460000     -1.2495290000
H                 -2.3788870000     -0.3777220000     -2.4559490000
H                  2.1382170000     -0.4158250000     -2.6625600000
H                  4.4100730000     -0.2637240000     -1.6587370000
H                  4.6717940000      0.1143500000      0.7838790000
H                  2.6370070000      0.3395930000      2.2166140000
$end

$rem
BASIS  =  6-311++G(d,p)
GUI  =  2
JOB_TYPE  =  SP
METHOD  =  B3LYP
SCF_CONVERGENCE  = 8
SOLVENT_METHOD = sm12
$end

$smx
solvent dimethylformamide
charges CM5
$end

--------------------------------------------------------------

             Standard Nuclear Orientation (Angstroms)
    I     Atom           X                Y                Z
 ----------------------------------------------------------------
    1      O       0.1245830000     0.4111350000     2.6509660000
    2      C       0.0678470000     0.2238980000     1.4432210000
    3      C      -1.2096040000     0.1119060000     0.7087730000
    4      C      -2.4408460000     0.2174090000     1.3770760000
    5      C      -3.6329730000     0.1114660000     0.6838320000
    6      C      -3.6144560000    -0.1038480000    -0.7028260000
    7      C      -2.4141800000    -0.2116300000    -1.3863480000
    8      C      -1.2155790000    -0.1030050000    -0.6760010000
    9      O      -0.0661920000    -0.2179290000    -1.4064430000
   10      C       1.1469450000    -0.1231330000    -0.7838510000
   11      C       2.2735480000    -0.2514500000    -1.6007390000
   12      C       3.5328830000    -0.1648550000    -1.0294600000
   13      C       3.6814700000     0.0485850000     0.3495050000
   14      C       2.5595500000     0.1742170000     1.1487350000
   15      C       1.2710110000     0.0905180000     0.5955720000
   16      H      -2.4172350000     0.3835040000     2.4474160000
   17      H      -4.5781410000     0.1939840000     1.2068550000
   18      H      -4.5468360000    -0.1874460000    -1.2495290000
   19      H      -2.3788870000    -0.3777220000    -2.4559490000
   20      H       2.1382170000    -0.4158250000    -2.6625600000
   21      H       4.4100730000    -0.2637240000    -1.6587370000
   22      H       4.6717940000     0.1143500000     0.7838790000
   23      H       2.6370070000     0.3395930000     2.2166140000
 ----------------------------------------------------------------

   14    -650.8310978574      1.00e-08  Convergence criterion met
 Total energy in the final basis set =     -650.8499828212

                    Orbital Energies (a.u.)
 --------------------------------------------------------------

 Alpha MOs
 -- Occupied --
-19.2062 -19.1120 -10.2714 -10.2669 -10.2669 -10.2013 -10.2013 -10.1978
-10.1977 -10.1949 -10.1948 -10.1934 -10.1934 -10.1883 -10.1882  -1.1282
 -1.0475  -0.8884  -0.8759  -0.8013  -0.7929  -0.7709  -0.7529  -0.6754
 -0.6682  -0.6183  -0.6182  -0.5815  -0.5690  -0.5219  -0.5050  -0.4882
 -0.4855  -0.4852  -0.4537  -0.4524  -0.4462  -0.4415  -0.4159  -0.4131
 -0.3981  -0.3941  -0.3769  -0.3745  -0.3569  -0.3555  -0.2824  -0.2790
 -0.2754  -0.2707  -0.2446

          Ground-State Mulliken Net Atomic Charges

     Atom                 Charge (a.u.)
  ----------------------------------------
      1 O                    -0.353288
      2 C                    -1.704014
      3 C                    -0.056027
      4 C                     0.040519
      5 C                     0.330636
      6 C                     0.448386
      7 C                     0.188352
      8 C                    -0.997086
      9 O                     0.000351
     10 C                    -0.998246
     11 C                     0.194374
     12 C                     0.449689
     13 C                     0.333276
     14 C                     0.046073
     15 C                    -0.055918
     16 H                     0.176978
     17 H                     0.282395
     18 H                     0.335314
     19 H                     0.271299
     20 H                     0.271486
     21 H                     0.335517
     22 H                     0.282628
     23 H                     0.177305
  ----------------------------------------
  Sum of atomic charges =     0.000000

                    Cartesian Multipole Moments
 -----------------------------------------------------------------
    Charge (ESU x 10^10)
                 0.0000
    Dipole Moment (Debye)
         X      -0.1810      Y      -0.6150      Z      -3.9682
       Tot       4.0197
    Quadrupole Moments (Debye-Ang)
        XX     -61.3459     XY      -0.2440     YY     -90.3970
        XZ      -1.3087     YZ       0.0758     ZZ     -89.9537

 Total job time:  348.51s(wall), 2494.28s(cpu)
        *  Thank you very much for using Q-Chem.  Have a nice day.  *
