 Gaussian 16, Revision A.03,
 Gaussian 16:  ES64L-G16RevA.03 25-Dec-2016

 ----------------------------------------------------------------------
 #P UB3LYP/6-311++G(d,p) nosym opt freq SCRF=(PCM,Solvent=n,n-DiMethylF
 ormamide)
 ----------------------------------------------------------------------

 --------
 Oxidized
 --------
 Symbolic Z-matrix:
 Charge =  0 Multiplicity = 1

 SCF Done:  E(UB3LYP) =  -1608.18578618     A.U. after   15 cycles
 SCF Done:  E(UB3LYP) =  -1608.18592558     A.U. after   12 cycles
 SCF Done:  E(UB3LYP) =  -1608.18594396     A.U. after   12 cycles
 SCF Done:  E(UB3LYP) =  -1608.18595784     A.U. after   11 cycles
 SCF Done:  E(UB3LYP) =  -1608.18596047     A.U. after   10 cycles
 SCF Done:  E(UB3LYP) =  -1608.18596066     A.U. after   11 cycles
 SCF Done:  E(UB3LYP) =  -1608.18596172     A.U. after    9 cycles
 SCF Done:  E(UB3LYP) =  -1608.18596180     A.U. after    9 cycles
 Optimization completed.
    -- Stationary point found.
 Normal termination of Gaussian 16 at Sat Feb 10 16:30:26 2024.

 ----------------------------------------------------------------------
 #P Geom=AllCheck Guess=TCheck SCRF=Check GenChk UB3LYP/6-311++G(d,p) F
 req
 ----------------------------------------------------------------------

 Structure from the checkpoint file:  "122.chk"
 --------
 Oxidized
 --------
 Charge =  0 Multiplicity = 1

                          Input orientation:
 ---------------------------------------------------------------------
 Center     Atomic      Atomic             Coordinates (Angstroms)
 Number     Number       Type             X           Y           Z
 ---------------------------------------------------------------------
      1         17           0       -2.403761    2.859074    1.610888
      2          6           0       -2.371141    1.224999    0.969638
      3          6           0       -3.609823    0.636641    0.721967
      4          6           0       -3.681433   -0.645130    0.185375
      5          6           0       -2.515704   -1.329735   -0.133309
      6          6           0       -1.275469   -0.731321    0.086856
      7          6           0       -0.049122   -1.472728   -0.323748
      8          8           0       -0.101001   -2.649511   -0.648633
      9          6           0        1.229134   -0.708922   -0.394267
     10          6           0        2.309057   -1.285786   -1.061904
     11          6           0        3.497952   -0.580181   -1.195382
     12          6           0        3.609302    0.700558   -0.663161
     13          6           0        2.541384    1.267352    0.029777
     14         17           0        2.783524    2.901437    0.624562
     15          6           0        1.330056    0.573693    0.185911
     16          6           0        0.181687    1.088344    0.996849
     17          8           0        0.351749    1.861795    1.920415
     18          6           0       -1.176352    0.552055    0.665689
     19          1           0       -4.512809    1.187065    0.951845
     20          1           0       -4.649456   -1.097228    0.007669
     21          1           0       -2.549188   -2.321584   -0.564158
     22          1           0        2.197125   -2.277623   -1.479304
     23          1           0        4.338155   -1.015234   -1.722470
     24          1           0        4.523931    1.266773   -0.781706
 ---------------------------------------------------------------------

 SCF Done:  E(UB3LYP) =  -1608.18596180     A.U. after    1 cycles

 Alpha  occ. eigenvalues -- -101.56853-101.56852 -19.14161 -19.13932 -10.29854
 Alpha  occ. eigenvalues --  -10.29229 -10.26851 -10.26848 -10.22884 -10.22882
 Alpha  occ. eigenvalues --  -10.22114 -10.22113 -10.21162 -10.21161 -10.20835
 Alpha  occ. eigenvalues --  -10.20833 -10.20575 -10.20574  -9.48326  -9.48325
 Alpha  occ. eigenvalues --   -7.24801  -7.24800  -7.23826  -7.23825  -7.23735
 Alpha  occ. eigenvalues --   -7.23733  -1.07878  -1.07304  -0.92253  -0.91789
 Alpha  occ. eigenvalues --   -0.87204  -0.86204  -0.82430  -0.78569  -0.77221
 Alpha  occ. eigenvalues --   -0.76567  -0.70060  -0.67920  -0.65963  -0.61751
 Alpha  occ. eigenvalues --   -0.59026  -0.57410  -0.56571  -0.51770  -0.50636
 Alpha  occ. eigenvalues --   -0.50505  -0.50067  -0.47255  -0.46795  -0.46607
 Alpha  occ. eigenvalues --   -0.46109  -0.45975  -0.45051  -0.42874  -0.42066
 Alpha  occ. eigenvalues --   -0.41085  -0.39909  -0.39729  -0.39208  -0.38495
 Alpha  occ. eigenvalues --   -0.35706  -0.35187  -0.34117  -0.33003  -0.30030
 Alpha  occ. eigenvalues --   -0.29639  -0.28600  -0.27588  -0.27420  -0.27318
 Alpha virt. eigenvalues --   -0.12331  -0.08520  -0.04672  -0.03890  -0.00805
 Alpha virt. eigenvalues --   -0.00382   0.00002   0.00561   0.00934   0.01407
 Alpha virt. eigenvalues --    0.01985   0.02456   0.02589   0.03950   0.04084

  Beta  occ. eigenvalues -- -101.56853-101.56852 -19.14161 -19.13932 -10.29854
  Beta  occ. eigenvalues --  -10.29229 -10.26851 -10.26848 -10.22884 -10.22882
  Beta  occ. eigenvalues --  -10.22114 -10.22113 -10.21162 -10.21161 -10.20835
  Beta  occ. eigenvalues --  -10.20833 -10.20575 -10.20574  -9.48326  -9.48325
  Beta  occ. eigenvalues --   -7.24801  -7.24800  -7.23826  -7.23825  -7.23735
  Beta  occ. eigenvalues --   -7.23733  -1.07878  -1.07304  -0.92253  -0.91789
  Beta  occ. eigenvalues --   -0.87204  -0.86204  -0.82430  -0.78569  -0.77221
  Beta  occ. eigenvalues --   -0.76567  -0.70060  -0.67920  -0.65963  -0.61751
  Beta  occ. eigenvalues --   -0.59026  -0.57410  -0.56571  -0.51770  -0.50636
  Beta  occ. eigenvalues --   -0.50505  -0.50067  -0.47255  -0.46795  -0.46607
  Beta  occ. eigenvalues --   -0.46109  -0.45975  -0.45051  -0.42874  -0.42066
  Beta  occ. eigenvalues --   -0.41085  -0.39909  -0.39729  -0.39208  -0.38495
  Beta  occ. eigenvalues --   -0.35706  -0.35187  -0.34117  -0.33003  -0.30030
  Beta  occ. eigenvalues --   -0.29639  -0.28600  -0.27588  -0.27420  -0.27318
  Beta virt. eigenvalues --   -0.12331  -0.08520  -0.04672  -0.03890  -0.00805
  Beta virt. eigenvalues --   -0.00382   0.00002   0.00561   0.00934   0.01407
  Beta virt. eigenvalues --    0.01985   0.02456   0.02589   0.03950   0.04084

 Mulliken charges and spin densities:
               1          2
     1  Cl   0.502858   0.000000
     2  C    0.448277  -0.000000
     3  C   -0.299393   0.000000
     4  C   -0.711573   0.000000
     5  C    0.411270   0.000000
     6  C    0.468875  -0.000000
     7  C   -0.931754   0.000000
     8  O   -0.255904  -0.000000
     9  C    0.469563  -0.000000
    10  C    0.412626  -0.000000
    11  C   -0.711466   0.000000
    12  C   -0.297901  -0.000000
    13  C    0.449759   0.000000
    14  Cl   0.503033  -0.000000
    15  C    0.329616  -0.000000
    16  C   -2.257573   0.000000
    17  O   -0.166709  -0.000000
    18  C    0.332469   0.000000
    19  H    0.231399   0.000000
    20  H    0.212405  -0.000000
    21  H    0.208150  -0.000000
    22  H    0.208180  -0.000000
    23  H    0.212383   0.000000
    24  H    0.231406   0.000000
 Sum of Mulliken charges =  -0.00000   0.00000

 Dipole moment (field-independent basis, Debye):
    X=             -0.6559    Y=             -2.1708    Z=             -3.5102  Tot=              4.1791
 Quadrupole moment (field-independent basis, Debye-Ang):
   XX=            -84.8755   YY=           -131.1053   ZZ=           -122.1590
   XY=             -0.8452   XZ=             -7.3869   YZ=             -6.6709

  Exact polarizability: 345.496  15.091 308.526 -34.469  76.364 176.112
 Approx polarizability: 374.517  19.024 379.939 -32.657  98.785 215.469

                      1                      2                      3
                      A                      A                      A
 Frequencies --     41.9708                43.2106                66.7842
 Red. masses --      9.9986                 8.9179                12.3843
 Frc consts  --      0.0104                 0.0098                 0.0325
 IR Inten    --      1.1991                 7.9639                 2.6716

                      4                      5                      6
                      A                      A                      A
 Frequencies --    147.2023               157.1993               186.7103
 Red. masses --      7.9554                16.6592                 4.4196
 Frc consts  --      0.1016                 0.2426                 0.0908
 IR Inten    --      0.9018                 1.7367                 0.0006

                      7                      8                      9
                      A                      A                      A
 Frequencies --    197.5496               208.0058               245.6478
 Red. masses --      5.2159                13.7393                 7.6960
 Frc consts  --      0.1199                 0.3502                 0.2736
 IR Inten    --      0.7492                 0.3392                 0.0106

                     10                     11                     12
                      A                      A                      A
 Frequencies --    308.2872               325.0785               372.9682
 Red. masses --      7.1349                14.2826                 7.1019
 Frc consts  --      0.3995                 0.8893                 0.5821
 IR Inten    --      0.5740                 0.0012                11.9608

                     13                     14                     15
                      A                      A                      A
 Frequencies --    377.1798               396.3053               400.7723
 Red. masses --      9.7179                10.5519                 6.5656
 Frc consts  --      0.8146                 0.9764                 0.6213
 IR Inten    --      2.3990                35.5697                 1.8075

                     16                     17                     18
                      A                      A                      A
 Frequencies --    439.7027               473.9633               482.4536
 Red. masses --      6.9243                 7.7851                 6.3216
 Frc consts  --      0.7888                 1.0304                 0.8669
 IR Inten    --     17.1388                 1.6874                 6.8413

                     19                     20                     21
                      A                      A                      A
 Frequencies --    496.3478               517.0268               534.0913
 Red. masses --      4.3829                 7.8159                 5.3305
 Frc consts  --      0.6362                 1.2310                 0.8959
 IR Inten    --      0.2017                 4.9817                 1.1961

                     22                     23                     24
                      A                      A                      A
 Frequencies --    617.4580               680.2693               681.8625
 Red. masses --      5.1265                 5.2815                 6.5570
 Frc consts  --      1.1516                 1.4400                 1.7962
 IR Inten    --      7.7173                 9.2240                23.7855

                     25                     26                     27
                      A                      A                      A
 Frequencies --    724.4786               740.8855               749.7999
 Red. masses --      5.3666                 5.2398                 3.0379
 Frc consts  --      1.6596                 1.6946                 1.0063
 IR Inten    --     49.0874                38.1038                98.5327

                     28                     29                     30
                      A                      A                      A
 Frequencies --    765.4472               809.5485               810.2835
 Red. masses --      6.5943                 1.5113                 2.0961
 Frc consts  --      2.2764                 0.5836                 0.8108
 IR Inten    --     34.2495                 7.2729                48.9618

                     31                     32                     33
                      A                      A                      A
 Frequencies --    849.6417               856.5782               921.6926
 Red. masses --      4.6809                 7.1671                 6.7853
 Frc consts  --      1.9909                 3.0983                 3.3962
 IR Inten    --     72.4944                57.8750                21.1044

                     34                     35                     36
                      A                      A                      A
 Frequencies --    948.7067               954.5343               987.9925
 Red. masses --      1.3613                 1.4250                 7.6426
 Frc consts  --      0.7219                 0.7650                 4.3954
 IR Inten    --      0.0942                 0.4628               116.4438

                     37                     38                     39
                      A                      A                      A
 Frequencies --   1016.0430              1017.0184              1086.4222
 Red. masses --      1.3461                 1.3444                 2.6633
 Frc consts  --      0.8187                 0.8193                 1.8521
 IR Inten    --      1.5071                 1.1958                 0.1165

                     40                     41                     42
                      A                      A                      A
 Frequencies --   1101.7161              1140.3112              1146.2382
 Red. masses --      1.8408                 5.2722                 2.6357
 Frc consts  --      1.3164                 4.0392                 2.0403
 IR Inten    --      0.4629               193.9608                53.1091

                     43                     44                     45
                      A                      A                      A
 Frequencies --   1176.5966              1196.0721              1196.4347
 Red. masses --      1.7720                 1.4402                 1.3775
 Frc consts  --      1.4453                 1.2139                 1.1618
 IR Inten    --      3.2527                16.5926                11.6358

                     46                     47                     48
                      A                      A                      A
 Frequencies --   1239.7040              1254.1804              1310.2648
 Red. masses --      1.9432                 4.2485                 3.0914
 Frc consts  --      1.7596                 3.9373                 3.1270
 IR Inten    --      5.2343               706.4394               289.9497

                     49                     50                     51
                      A                      A                      A
 Frequencies --   1334.8898              1339.1435              1445.8430
 Red. masses --      8.6046                 9.7289                 3.5451
 Frc consts  --      9.0338                10.2794                 4.3664
 IR Inten    --    232.9846                 0.2303                54.5675

                     52                     53                     54
                      A                      A                      A
 Frequencies --   1455.1860              1474.7717              1475.2579
 Red. masses --      3.2410                 2.4334                 2.4212
 Frc consts  --      4.0436                 3.1183                 3.1047
 IR Inten    --      4.5356                13.7491                13.7879

                     55                     56                     57
                      A                      A                      A
 Frequencies --   1589.6856              1601.4634              1607.7965
 Red. masses --      6.1630                 6.7285                 6.2028
 Frc consts  --      9.1762                10.1672                 9.4471
 IR Inten    --      1.5033                13.2989               365.1760

                     58                     59                     60
                      A                      A                      A
 Frequencies --   1613.3731              1706.3869              1722.9068
 Red. masses --      6.0036                12.3681                12.8832
 Frc consts  --      9.2073                21.2181                22.5319
 IR Inten    --      3.4563               328.3082               517.6659

                     61                     62                     63
                      A                      A                      A
 Frequencies --   3191.3729              3191.4473              3207.0972
 Red. masses --      1.0887                 1.0887                 1.0927
 Frc consts  --      6.5329                 6.5334                 6.6217
 IR Inten    --      4.3843                 3.5663                 0.8432

                     64                     65                     66
                      A                      A                      A
 Frequencies --   3207.1727              3213.3203              3213.8109
 Red. masses --      1.0927                 1.0956                 1.0955
 Frc consts  --      6.6224                 6.6649                 6.6666
 IR Inten    --      0.0177                12.1126                 1.8110

 - Thermochemistry -
 -------------------
 Temperature   298.150 Kelvin.  Pressure   1.00000 Atm.
 Atom     1 has atomic number 17 and mass  34.96885

 Molecular mass:   275.97448 amu.
 Principal axes and moments of inertia in atomic units:
                           1         2         3
     Eigenvalues --  3489.549085824.137739108.49699
           X            0.98214   0.06495   0.17656
           Y            0.00880   0.92162  -0.38798
           Z           -0.18792   0.38261   0.90460
 This molecule is an asymmetric top.
 Rotational symmetry number  1.
 Warning -- assumption of classical behavior for rotation
           may cause significant error
 Rotational temperatures (Kelvin)      0.02482     0.01487     0.00951
 Rotational constants (GHZ):           0.51718     0.30987     0.19814
 Zero-point vibrational energy     418630.6 (Joules/Mol)
                                  100.05510 (Kcal/Mol)
 Warning -- explicit consideration of  22 degrees of freedom as
           vibrations may cause significant error
 Vibrational temperatures:     60.39    62.17    96.09   211.79   226.17
          (Kelvin)            268.63   284.23   299.27   353.43   443.56
                              467.72   536.62   542.68   570.19   576.62
                              632.63   681.93   694.14   714.13   743.89
                              768.44   888.38   978.76   981.05  1042.36
                             1065.97  1078.79  1101.31  1164.76  1165.82
                             1222.44  1232.42  1326.11  1364.98  1373.36
                             1421.50  1461.86  1463.26  1563.12  1585.12
                             1640.65  1649.18  1692.86  1720.88  1721.40
                             1783.66  1804.49  1885.18  1920.61  1926.73
                             2080.25  2093.69  2121.87  2122.57  2287.20
                             2304.15  2313.26  2321.28  2455.11  2478.88
                             4591.67  4591.78  4614.30  4614.41  4623.25
                             4623.96

 Zero-point correction=                           0.159448 (Hartree/Particle)
 Thermal correction to Energy=                    0.173275
 Thermal correction to Enthalpy=                  0.174220
 Thermal correction to Gibbs Free Energy=         0.117550
 Sum of electronic and zero-point Energies=          -1608.026514
 Sum of electronic and thermal Energies=             -1608.012686
 Sum of electronic and thermal Enthalpies=           -1608.011742
 Sum of electronic and thermal Free Energies=        -1608.068412

                     E (Thermal)             CV                S
                      KCal/Mol        Cal/Mol-Kelvin    Cal/Mol-Kelvin
 Total                  108.732             53.526            119.271
 Electronic               0.000              0.000              0.000
 Translational            0.889              2.981             42.744
 Rotational               0.889              2.981             33.581
 Vibrational            106.955             47.564             42.946
 Vibration     1          0.595              1.980              5.164
 Vibration     2          0.595              1.980              5.106
 Vibration     3          0.598              1.970              4.246
 Vibration     4          0.617              1.906              2.708
 Vibration     5          0.621              1.895              2.583
 Vibration     6          0.632              1.858              2.260
 Vibration     7          0.637              1.843              2.156
 Vibration     8          0.641              1.828              2.061
 Vibration     9          0.660              1.770              1.762
 Vibration    10          0.698              1.658              1.372
 Vibration    11          0.709              1.625              1.284
 Vibration    12          0.744              1.528              1.068
 Vibration    13          0.748              1.519              1.050
 Vibration    14          0.763              1.478              0.976
 Vibration    15          0.767              1.468              0.960
 Vibration    16          0.800              1.384              0.828
 Vibration    17          0.831              1.308              0.727
 Vibration    18          0.839              1.289              0.703
 Vibration    19          0.852              1.258              0.667
 Vibration    20          0.872              1.212              0.617
 Vibration    21          0.889              1.175              0.578
 Vibration    22          0.977              0.995              0.421

 Optimization completed.
    -- Stationary point found.
 Normal termination of Gaussian 16 at Sat Feb 10 17:31:48 2024.
