 Q-Chem 5.4, Q-Chem, Inc., Pleasanton, CA (2021)
 Q-Chem 5.4.0 for Intel X86 EM64T Linux

User input:
--------------------------------------------------------------
$molecule
-2 1
C                  4.5357850000      5.0500000000     -1.3178450000
O                  3.8669080000      3.8792320000     -0.9408630000
C                  4.4784350000      2.6623050000     -1.1641830000
C                  5.7464280000      2.5872600000     -1.7035930000
C                  6.3720200000      1.3294490000     -1.9142680000
C                  5.7009400000      0.1811940000     -1.5732950000
C                  4.4022220000      0.2133240000     -1.0177210000
C                  3.7941820000     -1.0783970000     -0.6909660000
O                  4.3928660000     -2.1511800000     -0.9822870000
C                  2.4973470000     -1.0141580000     -0.0258610000
C                  1.8836870000     -2.1788230000      0.5384260000
O                  2.6200390000     -3.3534600000      0.5640910000
C                  0.6352970000     -2.1472070000      1.1328380000
C                  0.1582430000     -3.3784140000      1.8864290000
C                 -1.3245060000     -3.3682150000      2.3138660000
O                 -2.1800890000     -3.7522830000      1.2329270000
C                 -1.6831630000     -1.9636830000      2.8450260000
C                 -1.4783640000     -0.8967290000      1.7731240000
O                 -2.6013740000     -1.1517830000      0.7969490000
C                 -2.8208730000     -0.0576580000     -0.0303860000
C                 -3.2550910000     -0.4355880000     -1.4344720000
C                 -3.7505880000      0.8335720000     -2.1730910000
N                 -3.3524730000      0.7850940000     -3.5874540000
C                 -3.2997300000      2.1301190000     -1.4410690000
O                 -1.9156980000      2.3925300000     -1.5998970000
C                 -3.8430600000      2.1031510000      0.0132480000
C                 -3.1518400000      3.0904530000      0.9520820000
O                 -3.8394450000      0.7778660000      0.5711100000
C                 -0.1155590000     -0.9226270000      1.1466230000
C                  0.4285970000      0.2607220000      0.6192580000
O                 -0.2836800000      1.3834980000      0.5741780000
C                  1.8008280000      0.2469540000      0.1019270000
C                  2.4237710000      1.4709440000     -0.2684200000
O                  1.7642080000      2.6604160000     -0.0822230000
C                  3.7324370000      1.4748010000     -0.7992810000
C                 -1.5532580000     -4.3854570000      3.4445960000
C                 -2.7024220000     -5.3622890000      3.2886310000
O                 -0.8549020000     -4.3938720000      4.4428690000
H                  3.8614410000      5.8729350000     -1.0697510000
H                  4.7535160000      5.0771560000     -2.3964970000
H                  5.4829290000      5.1867600000     -0.7727530000
H                  6.2821110000      3.4903700000     -1.9682620000
H                  7.3722210000      1.2925880000     -2.3382820000
H                  6.1331720000     -0.8027410000     -1.7144610000
H                  2.0593740000     -4.0356320000      0.9423940000
H                  0.7547660000     -3.5162330000      2.7990380000
H                  0.2783790000     -4.2934930000      1.2850060000
H                 -2.4238240000     -2.9398050000      0.7535080000
H                 -1.0337210000     -1.7459570000      3.6964440000
H                 -2.7233030000     -1.9424620000      3.1873600000
H                 -1.6773820000      0.0943560000      2.1848580000
H                 -1.9010300000      0.5151430000     -0.0625670000
H                 -2.3986850000     -0.8672220000     -1.9597960000
H                 -4.0425060000     -1.1953740000     -1.4015850000
H                 -4.8477440000      0.8420300000     -2.1482370000
H                 -2.3373740000      0.8631590000     -3.6236860000
H                 -3.7028640000      1.6137420000     -4.0638390000
H                 -3.7994360000      2.9712570000     -1.9440420000
H                 -1.3502990000      2.0211640000     -0.8842060000
H                 -4.9071070000      2.3681330000     -0.0613480000
H                 -2.1105200000      2.8058720000      1.1149490000
H                 -3.6680440000      3.0935510000      1.9168400000
H                 -3.1792530000      4.1033150000      0.5347900000
H                  0.8538890000      2.3874570000      0.2235450000
H                 -2.5548490000     -5.9740440000      2.3949810000
H                 -2.7638880000     -5.9863740000      4.1813020000
H                 -3.6381070000     -4.8207120000      3.1260110000
$end
$rem
MAX_SCF_CYCLES=200
BASIS  =  6-311++G(d,p)
GUI  =  2
JOB_TYPE  =  SP
METHOD  =  B3LYP
SCF_ALGORITHM = DIIS_GDM
THRESH = 14
SOLVENT_METHOD = PCM
$end
$pcm
theory = CPCM
$end
$solvent
dielectric 37.219
opticaldielectric 1.43
$end

--------------------------------------------------------------

             Standard Nuclear Orientation (Angstroms)
    I     Atom           X                Y                Z
 ----------------------------------------------------------------
    1      C       4.5357850000     5.0500000000    -1.3178450000
    2      O       3.8669080000     3.8792320000    -0.9408630000
    3      C       4.4784350000     2.6623050000    -1.1641830000
    4      C       5.7464280000     2.5872600000    -1.7035930000
    5      C       6.3720200000     1.3294490000    -1.9142680000
    6      C       5.7009400000     0.1811940000    -1.5732950000
    7      C       4.4022220000     0.2133240000    -1.0177210000
    8      C       3.7941820000    -1.0783970000    -0.6909660000
    9      O       4.3928660000    -2.1511800000    -0.9822870000
   10      C       2.4973470000    -1.0141580000    -0.0258610000
   11      C       1.8836870000    -2.1788230000     0.5384260000
   12      O       2.6200390000    -3.3534600000     0.5640910000
   13      C       0.6352970000    -2.1472070000     1.1328380000
   14      C       0.1582430000    -3.3784140000     1.8864290000
   15      C      -1.3245060000    -3.3682150000     2.3138660000
   16      O      -2.1800890000    -3.7522830000     1.2329270000
   17      C      -1.6831630000    -1.9636830000     2.8450260000
   18      C      -1.4783640000    -0.8967290000     1.7731240000
   19      O      -2.6013740000    -1.1517830000     0.7969490000
   20      C      -2.8208730000    -0.0576580000    -0.0303860000
   21      C      -3.2550910000    -0.4355880000    -1.4344720000
   22      C      -3.7505880000     0.8335720000    -2.1730910000
   23      N      -3.3524730000     0.7850940000    -3.5874540000
   24      C      -3.2997300000     2.1301190000    -1.4410690000
   25      O      -1.9156980000     2.3925300000    -1.5998970000
   26      C      -3.8430600000     2.1031510000     0.0132480000
   27      C      -3.1518400000     3.0904530000     0.9520820000
   28      O      -3.8394450000     0.7778660000     0.5711100000
   29      C      -0.1155590000    -0.9226270000     1.1466230000
   30      C       0.4285970000     0.2607220000     0.6192580000
   31      O      -0.2836800000     1.3834980000     0.5741780000
   32      C       1.8008280000     0.2469540000     0.1019270000
   33      C       2.4237710000     1.4709440000    -0.2684200000
   34      O       1.7642080000     2.6604160000    -0.0822230000
   35      C       3.7324370000     1.4748010000    -0.7992810000
   36      C      -1.5532580000    -4.3854570000     3.4445960000
   37      C      -2.7024220000    -5.3622890000     3.2886310000
   38      O      -0.8549020000    -4.3938720000     4.4428690000
   39      H       3.8614410000     5.8729350000    -1.0697510000
   40      H       4.7535160000     5.0771560000    -2.3964970000
   41      H       5.4829290000     5.1867600000    -0.7727530000
   42      H       6.2821110000     3.4903700000    -1.9682620000
   43      H       7.3722210000     1.2925880000    -2.3382820000
   44      H       6.1331720000    -0.8027410000    -1.7144610000
   45      H       2.0593740000    -4.0356320000     0.9423940000
   46      H       0.7547660000    -3.5162330000     2.7990380000
   47      H       0.2783790000    -4.2934930000     1.2850060000
   48      H      -2.4238240000    -2.9398050000     0.7535080000
   49      H      -1.0337210000    -1.7459570000     3.6964440000
   50      H      -2.7233030000    -1.9424620000     3.1873600000
   51      H      -1.6773820000     0.0943560000     2.1848580000
   52      H      -1.9010300000     0.5151430000    -0.0625670000
   53      H      -2.3986850000    -0.8672220000    -1.9597960000
   54      H      -4.0425060000    -1.1953740000    -1.4015850000
   55      H      -4.8477440000     0.8420300000    -2.1482370000
   56      H      -2.3373740000     0.8631590000    -3.6236860000
   57      H      -3.7028640000     1.6137420000    -4.0638390000
   58      H      -3.7994360000     2.9712570000    -1.9440420000
   59      H      -1.3502990000     2.0211640000    -0.8842060000
   60      H      -4.9071070000     2.3681330000    -0.0613480000
   61      H      -2.1105200000     2.8058720000     1.1149490000
   62      H      -3.6680440000     3.0935510000     1.9168400000
   63      H      -3.1792530000     4.1033150000     0.5347900000
   64      H       0.8538890000     2.3874570000     0.2235450000
   65      H      -2.5548490000    -5.9740440000     2.3949810000
   66      H      -2.7638880000    -5.9863740000     4.1813020000
   67      H      -3.6381070000    -4.8207120000     3.1260110000
 ----------------------------------------------------------------

   16   -1854.1133026147      5.91e-06  Convergence criterion met
 Total energy in the final basis set =    -1854.1133026147

                    Orbital Energies (a.u.)
 --------------------------------------------------------------

 Alpha MOs
 -- Occupied --
-19.1393 -19.1306 -19.1271 -19.1231 -19.1158 -19.1136 -19.1106 -19.0951
-19.0555 -19.0323 -14.2901 -10.2668 -10.2476 -10.2371 -10.2226 -10.2202
-10.2168 -10.2141 -10.2074 -10.2036 -10.2035 -10.1968 -10.1964 -10.1949
-10.1721 -10.1718 -10.1645 -10.1626 -10.1586 -10.1572 -10.1569 -10.1533
-10.1524 -10.1510 -10.1478 -10.1464 -10.1455 -10.1449  -1.0612  -1.0572
 -1.0565  -1.0380  -1.0242  -1.0169  -1.0145  -0.9973  -0.9619  -0.9586
 -0.8826  -0.8399  -0.8315  -0.8023  -0.7718  -0.7652  -0.7594  -0.7467
 -0.7429  -0.7376  -0.7213  -0.7020  -0.6889  -0.6818  -0.6554  -0.6497
 -0.6279  -0.6240  -0.6020  -0.5941  -0.5820  -0.5653  -0.5582  -0.5562
 -0.5456  -0.5287  -0.5275  -0.5190  -0.5117  -0.5007  -0.4882  -0.4851
 -0.4820  -0.4761  -0.4690  -0.4603  -0.4581  -0.4579  -0.4571  -0.4494
 -0.4429  -0.4399  -0.4369  -0.4300  -0.4275  -0.4218  -0.4200  -0.4147
 -0.4114  -0.4072  -0.4033  -0.4006  -0.3983  -0.3931  -0.3888  -0.3808
 -0.3766  -0.3757  -0.3744  -0.3699  -0.3679  -0.3656  -0.3601  -0.3586
 -0.3581  -0.3551  -0.3505  -0.3460  -0.3444  -0.3405  -0.3374  -0.3308
 -0.3299  -0.3288  -0.3207  -0.3046  -0.3006  -0.2993  -0.2839  -0.2822
 -0.2762  -0.2728  -0.2569  -0.2558  -0.2467  -0.2394  -0.2293  -0.2234
 -0.2154  -0.2032  -0.1817  -0.1224

          Ground-State Mulliken Net Atomic Charges

     Atom                 Charge (a.u.)
  ----------------------------------------
      1 C                    -0.302094
      2 O                    -0.207569
      3 C                    -0.186459
      4 C                    -0.091387
      5 C                    -0.500865
      6 C                    -0.128119
      7 C                     0.284613
      8 C                    -0.344714
      9 O                    -0.593539
     10 C                     0.023463
     11 C                    -0.178313
     12 O                    -0.290771
     13 C                     0.006565
     14 C                    -0.874446
     15 C                     0.606849
     16 O                    -0.228973
     17 C                    -1.395902
     18 C                    -0.092370
     19 O                     0.063282
     20 C                    -0.327834
     21 C                    -0.374441
     22 C                    -0.501084
     23 N                    -0.370623
     24 C                    -0.192869
     25 O                    -0.311182
     26 C                     0.035011
     27 C                    -0.616970
     28 O                    -0.125568
     29 C                     0.325105
     30 C                    -0.219554
     31 O                    -0.524913
     32 C                     0.533434
     33 C                    -0.410509
     34 O                    -0.512204
     35 C                     0.200085
     36 C                     0.315101
     37 C                    -0.537853
     38 O                    -0.366016
     39 H                     0.185679
     40 H                     0.159131
     41 H                     0.157226
     42 H                     0.180677
     43 H                     0.191395
     44 H                     0.144000
     45 H                     0.319078
     46 H                     0.251392
     47 H                     0.210529
     48 H                     0.356897
     49 H                     0.224270
     50 H                     0.225699
     51 H                     0.299657
     52 H                    -0.042057
     53 H                     0.214493
     54 H                     0.155263
     55 H                     0.227880
     56 H                     0.269887
     57 H                     0.274047
     58 H                     0.230735
     59 H                     0.403289
     60 H                     0.213183
     61 H                     0.152504
     62 H                     0.157344
     63 H                     0.164974
     64 H                     0.519564
     65 H                     0.193205
     66 H                     0.182324
     67 H                     0.191366
  ----------------------------------------
  Sum of atomic charges =    -2.000000

                    Cartesian Multipole Moments
 -----------------------------------------------------------------
    Charge (ESU x 10^10)
                -9.6064
    Dipole Moment (Debye)
         X     -19.2637      Y       6.0498      Z       1.1232
       Tot      20.2226
    Quadrupole Moments (Debye-Ang)
        XX    -331.1222     XY      21.3232     YY    -268.0588
        XZ      13.2000     YZ       1.8925     ZZ    -266.2105

 Total job time:  1465.47s(wall), 10627.52s(cpu)
        *  Thank you very much for using Q-Chem.  Have a nice day.  *
