 Q-Chem 5.4, Q-Chem, Inc., Pleasanton, CA (2021)
 Q-Chem 5.4.0 for Intel X86 EM64T Linux

User input:
--------------------------------------------------------------
$molecule
-1 2
O                  2.5425450000     -0.9970870000     -0.2523720000
C                  1.3170630000     -0.4440790000     -0.1248550000
C                  1.0986830000      0.9049870000     -0.0016020000
Cl                 2.4487610000      2.0311280000     -0.0027210000
C                 -0.2285750000      1.4259410000      0.1300870000
O                 -0.5573610000      2.6409310000      0.2491200000
C                 -1.3167220000      0.4441530000      0.1249880000
C                 -1.0985280000     -0.9051890000      0.0017250000
Cl                -2.4488950000     -2.0309100000      0.0026940000
C                  0.2285040000     -1.4261190000     -0.1298500000
O                  0.5572670000     -2.6410930000     -0.2494810000
O                 -2.5422670000      0.9971520000      0.2525250000
H                  2.3260310000     -1.9554680000     -0.3143450000
H                 -2.3265050000      1.9556540000      0.3140880000
$end
$rem
MAX_SCF_CYCLES=200
BASIS  =  6-311++G(d,p)
GUI  =  2
JOB_TYPE  =  SP
METHOD  =  B3LYP
SOLVENT_METHOD = PCM
$end
$pcm
theory = CPCM
$end
$solvent
dielectric 37.219
opticaldielectric 1.43
$end

--------------------------------------------------------------

             Standard Nuclear Orientation (Angstroms)
    I     Atom           X                Y                Z
 ----------------------------------------------------------------
    1      O       2.5425450000    -0.9970870000    -0.2523720000
    2      C       1.3170630000    -0.4440790000    -0.1248550000
    3      C       1.0986830000     0.9049870000    -0.0016020000
    4      Cl      2.4487610000     2.0311280000    -0.0027210000
    5      C      -0.2285750000     1.4259410000     0.1300870000
    6      O      -0.5573610000     2.6409310000     0.2491200000
    7      C      -1.3167220000     0.4441530000     0.1249880000
    8      C      -1.0985280000    -0.9051890000     0.0017250000
    9      Cl     -2.4488950000    -2.0309100000     0.0026940000
   10      C       0.2285040000    -1.4261190000    -0.1298500000
   11      O       0.5572670000    -2.6410930000    -0.2494810000
   12      O      -2.5422670000     0.9971520000     0.2525250000
   13      H       2.3260310000    -1.9554680000    -0.3143450000
   14      H      -2.3265050000     1.9556540000     0.3140880000
 ----------------------------------------------------------------

    8   -1451.4907473320      9.57e-06  Convergence criterion met
 Total energy in the final basis set =    -1451.4907473320

                    Orbital Energies (a.u.)
 --------------------------------------------------------------

 Alpha MOs
 -- Occupied --
********-101.5577 -19.1626 -19.1626 -19.1042 -19.1042 -10.2502 -10.2502
-10.2499 -10.2499 -10.2284 -10.2284  -9.4720  -9.4720  -7.2366  -7.2366
 -7.2270  -7.2270  -7.2264  -7.2264  -1.0880  -1.0856  -1.0200  -1.0193
 -0.8854  -0.8706  -0.8124  -0.7312  -0.6995  -0.6237  -0.5991  -0.5735
 -0.5252  -0.5130  -0.4665  -0.4657  -0.4543  -0.4368  -0.4293  -0.4276
 -0.3989  -0.3951  -0.3738  -0.3704  -0.3480  -0.3415  -0.3235  -0.3213
 -0.2837  -0.2768  -0.2757  -0.2315  -0.1760

 Beta MOs
 -- Occupied --
********-101.5578 -19.1614 -19.1614 -19.0985 -19.0985 -10.2479 -10.2479
-10.2476 -10.2476 -10.2289 -10.2289  -9.4720  -9.4720  -7.2366  -7.2366
 -7.2271  -7.2271  -7.2264  -7.2264  -1.0844  -1.0822  -1.0103  -1.0099
 -0.8835  -0.8703  -0.8082  -0.7286  -0.6890  -0.6199  -0.5952  -0.5710
 -0.5218  -0.5113  -0.4646  -0.4528  -0.4524  -0.4316  -0.4252  -0.4136
 -0.3927  -0.3852  -0.3712  -0.3583  -0.3383  -0.3315  -0.3231  -0.3209
 -0.2786  -0.2713  -0.2546  -0.2260

          Ground-State Mulliken Net Atomic Charges

     Atom                 Charge (a.u.)    Spin (a.u.)
  --------------------------------------------------------
      1 O                    -0.241226       0.036458
      2 C                    -1.401940       0.181149
      3 C                     2.125752      -0.027333
      4 Cl                    0.161022      -0.002809
      5 C                    -0.977650       0.103519
      6 O                    -0.475221       0.211693
      7 C                    -1.402258       0.181493
      8 C                     2.125902      -0.027323
      9 Cl                    0.160988      -0.002794
     10 C                    -0.977924       0.103622
     11 O                    -0.475196       0.211548
     12 O                    -0.241255       0.036516
     13 H                     0.309492      -0.002870
     14 H                     0.309514      -0.002870
  --------------------------------------------------------
  Sum of atomic charges =    -1.000000

                    Cartesian Multipole Moments
 -----------------------------------------------------------------
    Charge (ESU x 10^10)
                -4.8032
    Dipole Moment (Debye)
         X      -0.0013      Y       0.0007      Z       0.0003
       Tot       0.0015
    Quadrupole Moments (Debye-Ang)
        XX    -101.6046     XY      -4.7686     YY    -115.3933
        XZ       0.7959     YZ      -2.1684     ZZ     -84.5104

 Total job time:  16.50s(wall), 107.22s(cpu)
        *  Thank you very much for using Q-Chem.  Have a nice day.  *
