 Gaussian 16, Revision A.03,
 Gaussian 16:  ES64L-G16RevA.03 25-Dec-2016

 ----------------------------------------------------------------
 #P UB3LYP/6-311++G(d,p) SCRF=(PCM,Solvent=n,n-DiMethylFormamide)
 ----------------------------------------------------------------

 ------------------
 Quinone PCM in DMF
 ------------------
 Symbolic Z-matrix:
 Charge =  0 Multiplicity = 1

                         Standard orientation:
 ---------------------------------------------------------------------
 Center     Atomic      Atomic             Coordinates (Angstroms)
 Number     Number       Type             X           Y           Z
 ---------------------------------------------------------------------
      1          6           0        2.478865    1.145040   -0.000250
      2          6           0        3.693246    0.451662   -0.000451
      3          6           0        3.694572   -0.950962   -0.000452
      4          6           0        1.275747    0.450229   -0.000011
      5          6           0        1.267796   -0.960099   -0.000002
      6          6           0        2.486985   -1.639119   -0.000212
      7          6           0        0.000020    1.229562    0.000264
      8          6           0       -1.275757    0.450321    0.000197
      9          6           0       -1.267790   -0.960007    0.000165
     10          6           0       -0.000023   -1.734790    0.000140
     11          6           0       -2.478882    1.145119    0.000213
     12          6           0       -3.693253    0.451713    0.000235
     13          6           0       -3.694569   -0.950912    0.000237
     14          6           0       -2.486972   -1.639041    0.000197
     15          8           0        0.000095    2.448632    0.000100
     16          8           0       -0.000101   -2.959024    0.000003
     17          1           0        2.471973   -2.722199   -0.000239
     18          1           0       -2.471901   -2.722117    0.000198
     19          1           0        2.475718    2.227505   -0.000234
     20          1           0       -2.475790    2.227587    0.000233
     21          8           0       -4.811953    1.219211    0.000320
     22          6           0       -6.086497    0.582970   -0.000699
     23          8           0        4.811937    1.219187   -0.000733
     24          1           0       -4.622550   -1.506580    0.000289
     25          1           0       -6.817331    1.389275   -0.001146
     26          1           0       -6.224379   -0.032273    0.894225
     27          1           0       -6.223021   -0.032071   -0.895967
     28          6           0        6.086520    0.583025    0.000799
     29          1           0        4.622544   -1.506626   -0.000670
     30          1           0        6.817296    1.389381    0.001458
     31          1           0        6.224797   -0.032264   -0.894035
     32          1           0        6.222770   -0.031937    0.896161
 ---------------------------------------------------------------------

 SCF Done:  E(UB3LYP) =  -918.083944617     A.U. after   15 cycles

 The electronic state is 1-A.
 Alpha  occ. eigenvalues --  -19.17540 -19.17539 -19.13338 -19.12303 -10.28521
 Alpha  occ. eigenvalues --  -10.27710 -10.26330 -10.26330 -10.22953 -10.22953
 Alpha  occ. eigenvalues --  -10.21087 -10.21086 -10.20140 -10.20140 -10.20058
 Alpha  occ. eigenvalues --  -10.20057 -10.19834 -10.19834 -10.19617 -10.19617
 Alpha  occ. eigenvalues --   -1.09089  -1.09087  -1.06848  -1.05755  -0.89381
 Alpha  occ. eigenvalues --   -0.88203  -0.81248  -0.78678  -0.78583  -0.77371
 Alpha  occ. eigenvalues --   -0.72952  -0.71726  -0.68381  -0.66067  -0.63287
 Alpha  occ. eigenvalues --   -0.62220  -0.58963  -0.56696  -0.56414  -0.52656
 Alpha  occ. eigenvalues --   -0.52584  -0.51806  -0.49693  -0.48492  -0.48422
 Alpha  occ. eigenvalues --   -0.47564  -0.46901  -0.45897  -0.45547  -0.45328
 Alpha  occ. eigenvalues --   -0.45167  -0.43551  -0.42622  -0.42175  -0.41793
 Alpha  occ. eigenvalues --   -0.40754  -0.40262  -0.38868  -0.38752  -0.38368
 Alpha  occ. eigenvalues --   -0.35137  -0.34994  -0.34522  -0.33643  -0.28763
 Alpha  occ. eigenvalues --   -0.28567  -0.28270  -0.27411  -0.25594  -0.24645
 Alpha virt. eigenvalues --   -0.11419  -0.07340  -0.03146  -0.02217  -0.00801
 Alpha virt. eigenvalues --   -0.00269   0.00871   0.00932   0.01652   0.02596
 Alpha virt. eigenvalues --    0.02863   0.03245   0.03427   0.03481   0.03805

  Beta  occ. eigenvalues --  -19.17540 -19.17539 -19.13338 -19.12303 -10.28521
  Beta  occ. eigenvalues --  -10.27710 -10.26330 -10.26330 -10.22953 -10.22953
  Beta  occ. eigenvalues --  -10.21087 -10.21086 -10.20140 -10.20140 -10.20058
  Beta  occ. eigenvalues --  -10.20057 -10.19834 -10.19834 -10.19617 -10.19617
  Beta  occ. eigenvalues --   -1.09089  -1.09087  -1.06848  -1.05755  -0.89381
  Beta  occ. eigenvalues --   -0.88203  -0.81248  -0.78678  -0.78583  -0.77371
  Beta  occ. eigenvalues --   -0.72952  -0.71726  -0.68381  -0.66067  -0.63287
  Beta  occ. eigenvalues --   -0.62220  -0.58963  -0.56696  -0.56414  -0.52656
  Beta  occ. eigenvalues --   -0.52584  -0.51806  -0.49693  -0.48492  -0.48422
  Beta  occ. eigenvalues --   -0.47564  -0.46901  -0.45897  -0.45547  -0.45328
  Beta  occ. eigenvalues --   -0.45167  -0.43551  -0.42622  -0.42175  -0.41793
  Beta  occ. eigenvalues --   -0.40754  -0.40262  -0.38868  -0.38752  -0.38368
  Beta  occ. eigenvalues --   -0.35137  -0.34994  -0.34522  -0.33643  -0.28763
  Beta  occ. eigenvalues --   -0.28567  -0.28270  -0.27411  -0.25594  -0.24645
  Beta virt. eigenvalues --   -0.11419  -0.07340  -0.03146  -0.02217  -0.00801
  Beta virt. eigenvalues --   -0.00269   0.00871   0.00932   0.01652   0.02596
  Beta virt. eigenvalues --    0.02863   0.03245   0.03427   0.03481   0.03805

 Mulliken charges and spin densities:
               1          2
     1  C   -0.453372   0.000000
     2  C   -0.820335   0.000000
     3  C    0.093701  -0.000000
     4  C    0.823769  -0.000000
     5  C    0.512340   0.000000
     6  C    0.132521  -0.000000
     7  C   -0.789339   0.000000
     8  C    0.823546   0.000000
     9  C    0.512519  -0.000000
    10  C   -0.508208   0.000000
    11  C   -0.453424  -0.000000
    12  C   -0.820383   0.000000
    13  C    0.093618   0.000000
    14  C    0.132646  -0.000000
    15  O   -0.262406  -0.000000
    16  O   -0.302063   0.000000
    17  H    0.188586  -0.000000
    18  H    0.188580  -0.000000
    19  H    0.196546  -0.000000
    20  H    0.196547  -0.000000
    21  O   -0.179069   0.000000
    22  C   -0.346234  -0.000000
    23  O   -0.179085  -0.000000
    24  H    0.237972  -0.000000
    25  H    0.198247  -0.000000
    26  H    0.173208  -0.000000
    27  H    0.173192  -0.000000
    28  C   -0.346227  -0.000000
    29  H    0.237963  -0.000000
    30  H    0.198241   0.000000
    31  H    0.173228  -0.000000
    32  H    0.173175  -0.000000
 Sum of Mulliken charges =  -0.00000   0.00000

 Dipole moment (field-independent basis, Debye):
    X=              0.0000    Y=             -1.8103    Z=              0.0009  Tot=              1.8103
 Quadrupole moment (field-independent basis, Debye-Ang):
   XX=            -47.3367   YY=           -135.4119   ZZ=           -117.2966
   XY=             -0.0008   XZ=              0.0187   YZ=              0.0012

 Normal termination of Gaussian 16 at Sun Jan 14 01:07:15 2024.
