 Gaussian 16, Revision A.03,
 Gaussian 16:  ES64L-G16RevA.03 25-Dec-2016

 --------------------------------------
 #P UB3LYP/6-311++G(d,p) nosym opt freq
 --------------------------------------

 -------
 Radical
 -------
 Symbolic Z-matrix:
 Charge = -1 Multiplicity = 2

 SCF Done:  E(UB3LYP) =  -839.467888035     A.U. after   23 cycles
 SCF Done:  E(UB3LYP) =  -839.503850258     A.U. after   19 cycles
 SCF Done:  E(UB3LYP) =  -839.508812638     A.U. after   19 cycles
 SCF Done:  E(UB3LYP) =  -839.519722261     A.U. after   16 cycles
 SCF Done:  E(UB3LYP) =  -839.520563953     A.U. after   17 cycles
 SCF Done:  E(UB3LYP) =  -839.520661399     A.U. after   15 cycles
 SCF Done:  E(UB3LYP) =  -839.520787317     A.U. after   15 cycles
 SCF Done:  E(UB3LYP) =  -839.520802796     A.U. after   13 cycles
 SCF Done:  E(UB3LYP) =  -839.520804160     A.U. after   11 cycles
 SCF Done:  E(UB3LYP) =  -839.520804410     A.U. after   10 cycles
 Optimization completed.
    -- Stationary point found.
 Normal termination of Gaussian 16 at Thu Dec 21 20:30:23 2023.

 ----------------------------------------------------------------------
 #P Geom=AllCheck Guess=TCheck SCRF=Check GenChk UB3LYP/6-311++G(d,p) F
 req
 ----------------------------------------------------------------------

 Structure from the checkpoint file:  "187-rad.chk"
 -------
 Radical
 -------
 Charge = -1 Multiplicity = 2

                          Input orientation:
 ---------------------------------------------------------------------
 Center     Atomic      Atomic             Coordinates (Angstroms)
 Number     Number       Type             X           Y           Z
 ---------------------------------------------------------------------
      1          8           0       -2.291291   -2.686575   -0.434002
      2          6           0       -2.340382   -1.336108   -0.202875
      3          6           0       -3.574961   -0.714606   -0.083256
      4          6           0       -3.665605    0.669116    0.154035
      5          6           0       -2.516734    1.418133    0.269405
      6          6           0       -1.245723    0.815928    0.152681
      7          6           0       -0.074059    1.685674    0.288492
      8          8           0       -0.194081    2.917312    0.499894
      9          6           0        1.238650    1.052276    0.166200
     10          6           0        2.397902    1.843694    0.288935
     11          6           0        3.649990    1.267212    0.177093
     12          6           0        3.790270   -0.108422   -0.059321
     13          6           0        2.662524   -0.914155   -0.184873
     14          8           0        2.821430   -2.232119   -0.411670
     15          6           0        1.352915   -0.345139   -0.073651
     16          6           0        0.187388   -1.208980   -0.208693
     17          8           0        0.344945   -2.456615   -0.423801
     18          6           0       -1.126705   -0.593548   -0.089303
     19          1           0       -3.200961   -3.000530   -0.477707
     20          1           0       -4.478364   -1.314288   -0.175807
     21          1           0       -4.642143    1.134736    0.244229
     22          1           0       -2.543833    2.484905    0.451894
     23          1           0        2.269104    2.903023    0.471245
     24          1           0        4.540449    1.882304    0.272614
     25          1           0        4.766535   -0.571876   -0.148916
     26          1           0        1.872738   -2.591353   -0.462842
 ---------------------------------------------------------------------

 SCF Done:  E(UB3LYP) =  -839.520804410     A.U. after    2 cycles

 Alpha  occ. eigenvalues --  -19.04467 -19.00209 -18.96179 -18.94867 -10.13014
 Alpha  occ. eigenvalues --  -10.11261 -10.11253 -10.09910 -10.06634 -10.06388
 Alpha  occ. eigenvalues --  -10.06271 -10.05810 -10.05756 -10.05299 -10.05195
 Alpha  occ. eigenvalues --  -10.04964 -10.04612 -10.04150  -0.95767  -0.92807
 Alpha  occ. eigenvalues --   -0.87929  -0.87514  -0.74333  -0.72822  -0.67047
 Alpha  occ. eigenvalues --   -0.63302  -0.62694  -0.61719  -0.55168  -0.52890
 Alpha  occ. eigenvalues --   -0.51425  -0.48243  -0.45507  -0.44030  -0.41252
 Alpha  occ. eigenvalues --   -0.38823  -0.37774  -0.36289  -0.35580  -0.34119
 Alpha  occ. eigenvalues --   -0.33144  -0.31659  -0.30570  -0.30133  -0.29269
 Alpha  occ. eigenvalues --   -0.28712  -0.27454  -0.26761  -0.26720  -0.25530
 Alpha  occ. eigenvalues --   -0.24792  -0.24122  -0.23500  -0.22166  -0.22131
 Alpha  occ. eigenvalues --   -0.20378  -0.15113  -0.13358  -0.12525  -0.12110
 Alpha  occ. eigenvalues --   -0.11162  -0.10338  -0.01985
 Alpha virt. eigenvalues --    0.07001   0.07296   0.08862   0.08905   0.09100
 Alpha virt. eigenvalues --    0.10978   0.11213   0.12491   0.12700   0.13352
 Alpha virt. eigenvalues --    0.14575   0.14937   0.15436   0.16222   0.16555

  Beta  occ. eigenvalues --  -19.04460 -19.00196 -18.95662 -18.94272 -10.13025
  Beta  occ. eigenvalues --  -10.11266 -10.11067 -10.09788 -10.06554 -10.06312
  Beta  occ. eigenvalues --  -10.06208 -10.05773 -10.05617 -10.05283 -10.05116
  Beta  occ. eigenvalues --  -10.04978 -10.04530 -10.04128  -0.95749  -0.92683
  Beta  occ. eigenvalues --   -0.87113  -0.86491  -0.74071  -0.72682  -0.66647
  Beta  occ. eigenvalues --   -0.63077  -0.62491  -0.61532  -0.54489  -0.52725
  Beta  occ. eigenvalues --   -0.51188  -0.48156  -0.45343  -0.43825  -0.41108
  Beta  occ. eigenvalues --   -0.38705  -0.37645  -0.36061  -0.35422  -0.34033
  Beta  occ. eigenvalues --   -0.33008  -0.31028  -0.30441  -0.29948  -0.28973
  Beta  occ. eigenvalues --   -0.28296  -0.27286  -0.26576  -0.25491  -0.25449
  Beta  occ. eigenvalues --   -0.24042  -0.23340  -0.22948  -0.21952  -0.21696
  Beta  occ. eigenvalues --   -0.19423  -0.13119  -0.12666  -0.12080  -0.11368
  Beta  occ. eigenvalues --   -0.10635  -0.09645
  Beta virt. eigenvalues --    0.03719   0.06997   0.08286   0.08855   0.08897
  Beta virt. eigenvalues --    0.10187   0.10975   0.11209   0.12699   0.12728
  Beta virt. eigenvalues --    0.13352   0.14578   0.15022   0.15447   0.16570

 Mulliken charges and spin densities:
               1          2
     1  O   -0.180387   0.002448
     2  C   -0.003323   0.013719
     3  C   -0.240751   0.055747
     4  C   -0.297295   0.065959
     5  C   -0.013631   0.016888
     6  C    0.385854   0.083522
     7  C   -0.584058   0.063085
     8  O   -0.355646   0.224051
     9  C    0.333177   0.041000
    10  C   -0.076070   0.044603
    11  C   -0.324964   0.030431
    12  C   -0.198585   0.057117
    13  C   -0.141209   0.019369
    14  O   -0.375063   0.005099
    15  C    0.406397  -0.002266
    16  C   -0.361512   0.100492
    17  O   -0.410500   0.189133
    18  C    0.044191   0.015737
    19  H    0.240724  -0.000433
    20  H    0.069390  -0.005704
    21  H    0.136012  -0.004810
    22  H    0.149778  -0.001284
    23  H    0.147748  -0.002834
    24  H    0.130413  -0.002509
    25  H    0.138936  -0.005082
    26  H    0.380371  -0.003480
 Sum of Mulliken charges =  -1.00000   1.00000

 Dipole moment (field-independent basis, Debye):
    X=             -3.5730    Y=             -0.6168    Z=             -0.0650  Tot=              3.6265
 Quadrupole moment (field-independent basis, Debye-Ang):
   XX=           -116.7643   YY=           -137.5356   ZZ=           -111.3705
   XY=             11.6807   XZ=              2.0617   YZ=             -4.7367

  Exact polarizability: 331.744   9.693 224.881  -0.901  22.031  99.026
 Approx polarizability: 500.376   4.542 431.213  -2.994  47.730 159.628

                      1                      2                      3
                      A                      A                      A
 Frequencies --     46.4535                62.3397               110.5735
 Red. masses --      7.0641                 6.9116                10.2973
 Frc consts  --      0.0090                 0.0158                 0.0742
 IR Inten    --      4.8431                 1.1025                 0.6198

                      4                      5                      6
                      A                      A                      A
 Frequencies --    163.7946               200.4185               203.0472
 Red. masses --      6.7909                 4.5679                 6.4181
 Frc consts  --      0.1073                 0.1081                 0.1559
 IR Inten    --      0.0014                 1.0840                 4.2475

                      7                      8                      9
                      A                      A                      A
 Frequencies --    225.5940               252.2950               300.9418
 Red. masses --      1.5307                 3.1912                 3.1008
 Frc consts  --      0.0459                 0.1197                 0.1655
 IR Inten    --     46.3357                14.3041                18.2286

                     10                     11                     12
                      A                      A                      A
 Frequencies --    315.7406               349.2163               364.2107
 Red. masses --      7.0593                 6.7142                11.2069
 Frc consts  --      0.4146                 0.4824                 0.8759
 IR Inten    --      2.5872                 2.5954                 3.1533

                     13                     14                     15
                      A                      A                      A
 Frequencies --    412.8644               440.1142               446.8209
 Red. masses --      6.3405                11.3409                 7.4665
 Frc consts  --      0.6368                 1.2943                 0.8783
 IR Inten    --      0.1087                27.2523                 3.2414

                     16                     17                     18
                      A                      A                      A
 Frequencies --    468.6613               488.0370               499.5583
 Red. masses --      6.7772                 4.2967                 7.4444
 Frc consts  --      0.8770                 0.6030                 1.0946
 IR Inten    --     12.3461                 0.1811                 4.2205

                     19                     20                     21
                      A                      A                      A
 Frequencies --    529.8455               552.7756               582.3497
 Red. masses --      4.6282                 8.2378                 5.3895
 Frc consts  --      0.7655                 1.4831                 1.0769
 IR Inten    --      5.0401                 0.3617                 3.6562

                     22                     23                     24
                      A                      A                      A
 Frequencies --    592.5729               622.8479               637.7321
 Red. masses --      4.7555                 6.8535                 4.0163
 Frc consts  --      0.9838                 1.5665                 0.9624
 IR Inten    --      0.1101                23.9143                 8.0981

                     25                     26                     27
                      A                      A                      A
 Frequencies --    706.5026               714.3531               736.3652
 Red. masses --      6.8372                 2.0751                 2.2845
 Frc consts  --      2.0107                 0.6239                 0.7298
 IR Inten    --     10.6101                 5.8428                78.3631

                     28                     29                     30
                      A                      A                      A
 Frequencies --    753.0984               782.3602               792.7785
 Red. masses --      2.7210                 2.2798                 6.3166
 Frc consts  --      0.9093                 0.8222                 2.3390
 IR Inten    --     16.7205                 9.6706                 6.2960

                     31                     32                     33
                      A                      A                      A
 Frequencies --    806.8335               833.4456               835.1612
 Red. masses --      3.6601                 8.8589                 1.4997
 Frc consts  --      1.4038                 3.6256                 0.6163
 IR Inten    --     22.2710                45.7736                 4.2023

                     34                     35                     36
                      A                      A                      A
 Frequencies --    871.7626               926.6940               961.3957
 Red. masses --      1.4656                 6.4293                 1.2639
 Frc consts  --      0.6563                 3.2530                 0.6883
 IR Inten    --      0.2581                 3.4032                 0.1626

                     37                     38                     39
                      A                      A                      A
 Frequencies --    965.1903               975.6638               988.6776
 Red. masses --      1.2862                 1.0542                 6.2548
 Frc consts  --      0.7060                 0.5913                 3.6022
 IR Inten    --      1.8524                70.9949                97.4698

                     40                     41                     42
                      A                      A                      A
 Frequencies --   1047.2069              1074.6969              1090.0654
 Red. masses --      3.8846                 1.9884                 1.8907
 Frc consts  --      2.5099                 1.3531                 1.3237
 IR Inten    --      1.5484                20.7296                58.6607

                     43                     44                     45
                      A                      A                      A
 Frequencies --   1158.2946              1172.9528              1177.0780
 Red. masses --      1.4154                 1.4388                 1.8759
 Frc consts  --      1.1188                 1.1663                 1.5313
 IR Inten    --     45.4521                 1.5501                 0.9685

                     46                     47                     48
                      A                      A                      A
 Frequencies --   1201.8422              1233.4548              1243.9504
 Red. masses --      1.7933                 2.9884                 2.2822
 Frc consts  --      1.5261                 2.6787                 2.0807
 IR Inten    --     78.3658                36.5201                 1.7255

                     49                     50                     51
                      A                      A                      A
 Frequencies --   1276.9194              1297.1458              1306.8404
 Red. masses --      3.1941                 4.4744                 3.0650
 Frc consts  --      3.0685                 4.4357                 3.0841
 IR Inten    --     43.0282                10.4572               238.4773

                     52                     53                     54
                      A                      A                      A
 Frequencies --   1355.6107              1373.4418              1401.0514
 Red. masses --      6.5272                 5.6366                 3.4088
 Frc consts  --      7.0672                 6.2646                 3.9424
 IR Inten    --     14.3516                 6.4597               172.8554

                     55                     56                     57
                      A                      A                      A
 Frequencies --   1432.0102              1467.8165              1483.1998
 Red. masses --      2.9672                 2.8572                 3.5389
 Frc consts  --      3.5849                 3.6269                 4.5868
 IR Inten    --     93.4595                66.9337                39.9871

                     58                     59                     60
                      A                      A                      A
 Frequencies --   1498.9538              1537.0839              1563.6474
 Red. masses --      3.3099                 5.8369                 4.6905
 Frc consts  --      4.3817                 8.1251                 6.7569
 IR Inten    --    145.4865               655.5569               138.4208

                     61                     62                     63
                      A                      A                      A
 Frequencies --   1579.2106              1615.9187              1620.8613
 Red. masses --      2.8458                 6.6794                 5.6644
 Frc consts  --      4.1815                10.2761                 8.7679
 IR Inten    --     39.6341               128.3641                34.8246

                     64                     65                     66
                      A                      A                      A
 Frequencies --   1656.0343              2814.4869              3116.6119
 Red. masses --      2.6642                 1.0762                 1.0869
 Frc consts  --      4.3048                 5.0226                 6.2203
 IR Inten    --     76.4483               505.8877                42.2191

                     67                     68                     69
                      A                      A                      A
 Frequencies --   3138.1450              3152.7625              3172.8652
 Red. masses --      1.0867                 1.0906                 1.0917
 Frc consts  --      6.3053                 6.3870                 6.4753
 IR Inten    --     34.0282                39.5344                32.8743

                     70                     71                     72
                      A                      A                      A
 Frequencies --   3195.5052              3196.6698              3809.5879
 Red. masses --      1.0917                 1.0920                 1.0654
 Frc consts  --      6.5680                 6.5749                 9.1100
 IR Inten    --     19.5444                 9.2437                20.8405

 - Thermochemistry -
 -------------------
 Temperature   298.150 Kelvin.  Pressure   1.00000 Atm.
 Atom     1 has atomic number  8 and mass  15.99491

 Molecular mass:   240.04226 amu.
 Principal axes and moments of inertia in atomic units:
                           1         2         3
     Eigenvalues --  2434.824804808.264057243.08879
           X            0.99593  -0.08946   0.01065
           Y            0.08998   0.98162  -0.16833
           Z            0.00460   0.16860   0.98567
 This molecule is an asymmetric top.
 Rotational symmetry number  1.
 Warning -- assumption of classical behavior for rotation
           may cause significant error
 Rotational temperatures (Kelvin)      0.03557     0.01801     0.01196
 Rotational constants (GHZ):           0.74122     0.37534     0.24917
 Zero-point vibrational energy     484374.0 (Joules/Mol)
                                  115.76816 (Kcal/Mol)
 Warning -- explicit consideration of  22 degrees of freedom as
           vibrations may cause significant error
 Vibrational temperatures:     66.84    89.69   159.09   235.66   288.36
          (Kelvin)            292.14   324.58   363.00   432.99   454.28
                              502.44   524.02   594.02   633.23   642.88
                              674.30   702.18   718.75   762.33   795.32
                              837.87   852.58   896.14   917.55  1016.50
                             1027.79  1059.47  1083.54  1125.64  1140.63
                             1160.85  1199.14  1201.61  1254.27  1333.31
                             1383.23  1388.69  1403.76  1422.49  1506.70
                             1546.25  1568.36  1666.53  1687.62  1693.55
                             1729.18  1774.67  1789.77  1837.20  1866.30
                             1880.25  1950.42  1976.08  2015.80  2060.34
                             2111.86  2133.99  2156.66  2211.52  2249.74
                             2272.13  2324.95  2332.06  2382.66  4049.42
                             4484.11  4515.09  4536.12  4565.05  4597.62
                             4599.29  5481.15

 Zero-point correction=                           0.184488 (Hartree/Particle)
 Thermal correction to Energy=                    0.197859
 Thermal correction to Enthalpy=                  0.198803
 Thermal correction to Gibbs Free Energy=         0.143916
 Sum of electronic and zero-point Energies=           -839.336316
 Sum of electronic and thermal Energies=              -839.322946
 Sum of electronic and thermal Enthalpies=            -839.322002
 Sum of electronic and thermal Free Energies=         -839.376889

                     E (Thermal)             CV                S
                      KCal/Mol        Cal/Mol-Kelvin    Cal/Mol-Kelvin
 Total                  124.158             54.367            115.519
 Electronic               0.000              0.000              1.377
 Translational            0.889              2.981             42.328
 Rotational               0.889              2.981             32.805
 Vibrational            122.381             48.405             39.008
 Vibration     1          0.595              1.979              4.963
 Vibration     2          0.597              1.972              4.382
 Vibration     3          0.606              1.941              3.259
 Vibration     4          0.623              1.887              2.506
 Vibration     5          0.638              1.839              2.129
 Vibration     6          0.639              1.836              2.105
 Vibration     7          0.650              1.802              1.914
 Vibration     8          0.664              1.759              1.714
 Vibration     9          0.693              1.672              1.412
 Vibration    10          0.703              1.644              1.332
 Vibration    11          0.726              1.577              1.170
 Vibration    12          0.738              1.546              1.104
 Vibration    13          0.777              1.442              0.917
 Vibration    14          0.800              1.383              0.826
 Vibration    15          0.806              1.368              0.805
 Vibration    16          0.826              1.320              0.741
 Vibration    17          0.844              1.277              0.689
 Vibration    18          0.855              1.251              0.659
 Vibration    19          0.885              1.184              0.588
 Vibration    20          0.908              1.134              0.538
 Vibration    21          0.939              1.069              0.481
 Vibration    22          0.950              1.048              0.463

 Optimization completed.
    -- Stationary point found.
 Normal termination of Gaussian 16 at Thu Dec 21 22:38:26 2023.
