 Gaussian 16, Revision A.03,
 Gaussian 16:  ES64L-G16RevA.03 25-Dec-2016

 --------------------------------------
 #P UB3LYP/6-311++G(d,p) nosym opt freq
 --------------------------------------

 --------
 Oxidized
 --------
 Symbolic Z-matrix:
 Charge =  0 Multiplicity = 1

 SCF Done:  E(UB3LYP) =  -767.575521334     A.U. after   15 cycles
 SCF Done:  E(UB3LYP) =  -767.595050513     A.U. after   14 cycles
 SCF Done:  E(UB3LYP) =  -767.598857883     A.U. after   13 cycles
 SCF Done:  E(UB3LYP) =  -767.599432262     A.U. after   11 cycles
 SCF Done:  E(UB3LYP) =  -767.599460510     A.U. after   10 cycles
 SCF Done:  E(UB3LYP) =  -767.599461332     A.U. after    9 cycles
 SCF Done:  E(UB3LYP) =  -767.599461686     A.U. after    8 cycles
 Optimization completed.
    -- Stationary point found.
 Normal termination of Gaussian 16 at Thu Dec 21 06:29:25 2023.

 ----------------------------------------------------------------------
 #P Geom=AllCheck Guess=TCheck SCRF=Check GenChk UB3LYP/6-311++G(d,p) F
 req
 ----------------------------------------------------------------------

 Structure from the checkpoint file:  "127.chk"
 --------
 Oxidized
 --------
 Charge =  0 Multiplicity = 1

                          Input orientation:
 ---------------------------------------------------------------------
 Center     Atomic      Atomic             Coordinates (Angstroms)
 Number     Number       Type             X           Y           Z
 ---------------------------------------------------------------------
      1          6           0       -2.963559   -2.052967   -0.037891
      2          6           0       -2.335877   -0.679929   -0.050111
      3          6           0       -3.197411    0.419486   -0.097570
      4          6           0       -2.726827    1.720742   -0.112041
      5          6           0       -1.361051    2.015542   -0.081406
      6          6           0       -0.965369    3.472398   -0.101382
      7          6           0       -0.460827    0.924968   -0.033935
      8          6           0        1.011512    1.193009   -0.002594
      9          8           0        1.462728    2.329368   -0.020856
     10          6           0        1.951232    0.038243    0.051320
     11          6           0        3.329233    0.281319    0.083320
     12          6           0        4.221493   -0.781526    0.133464
     13          6           0        3.745590   -2.096852    0.151866
     14          6           0        2.379469   -2.343705    0.120142
     15          6           0        1.475684   -1.276150    0.069745
     16          6           0        0.014253   -1.563491    0.036394
     17          8           0       -0.365911   -2.725550    0.053774
     18          6           0       -0.946087   -0.416656   -0.017356
     19          1           0       -2.688146   -2.617974    0.854230
     20          1           0       -2.635905   -2.657576   -0.885236
     21          1           0       -4.050858   -1.955042   -0.072736
     22          1           0       -4.267391    0.242883   -0.123442
     23          1           0       -3.436622    2.540254   -0.148445
     24          1           0       -0.340071    3.712069   -0.963094
     25          1           0       -0.378523    3.746607    0.776829
     26          1           0       -1.864335    4.091977   -0.133688
     27          1           0        3.673643    1.307584    0.068023
     28          1           0        5.288515   -0.591025    0.158324
     29          1           0        4.443964   -2.925219    0.190929
     30          1           0        1.987455   -3.352791    0.133423
 ---------------------------------------------------------------------

 SCF Done:  E(UB3LYP) =  -767.599461686     A.U. after    1 cycles

 Alpha  occ. eigenvalues --  -19.12008 -19.12007 -10.27481 -10.27479 -10.20881
 Alpha  occ. eigenvalues --  -10.20848 -10.20806 -10.20797 -10.20336 -10.20283
 Alpha  occ. eigenvalues --  -10.19863 -10.19810 -10.19457 -10.19455 -10.19347
 Alpha  occ. eigenvalues --  -10.19288 -10.16821 -10.16821  -1.05721  -1.05528
 Alpha  occ. eigenvalues --   -0.89106  -0.88173  -0.81059  -0.80670  -0.77496
 Alpha  occ. eigenvalues --   -0.76783  -0.72955  -0.69720  -0.65979  -0.65916
 Alpha  occ. eigenvalues --   -0.64262  -0.60282  -0.56933  -0.55832  -0.53769
 Alpha  occ. eigenvalues --   -0.49934  -0.49314  -0.48712  -0.47952  -0.45600
 Alpha  occ. eigenvalues --   -0.45045  -0.44841  -0.44252  -0.43665  -0.42728
 Alpha  occ. eigenvalues --   -0.41894  -0.41383  -0.40615  -0.39908  -0.38796
 Alpha  occ. eigenvalues --   -0.38267  -0.37555  -0.37207  -0.36931  -0.36201
 Alpha  occ. eigenvalues --   -0.35770  -0.28448  -0.27506  -0.27459  -0.27305
 Alpha  occ. eigenvalues --   -0.26258  -0.25932
 Alpha virt. eigenvalues --   -0.11092  -0.06752  -0.03637  -0.02380  -0.00975
 Alpha virt. eigenvalues --   -0.00493   0.00484   0.01099   0.01600   0.02929
 Alpha virt. eigenvalues --    0.03272   0.03445   0.03543   0.03808   0.04027

  Beta  occ. eigenvalues --  -19.12008 -19.12007 -10.27481 -10.27479 -10.20881
  Beta  occ. eigenvalues --  -10.20848 -10.20806 -10.20797 -10.20336 -10.20283
  Beta  occ. eigenvalues --  -10.19863 -10.19810 -10.19457 -10.19455 -10.19347
  Beta  occ. eigenvalues --  -10.19288 -10.16821 -10.16821  -1.05721  -1.05528
  Beta  occ. eigenvalues --   -0.89106  -0.88173  -0.81059  -0.80670  -0.77496
  Beta  occ. eigenvalues --   -0.76783  -0.72955  -0.69720  -0.65979  -0.65916
  Beta  occ. eigenvalues --   -0.64262  -0.60282  -0.56933  -0.55832  -0.53769
  Beta  occ. eigenvalues --   -0.49934  -0.49314  -0.48712  -0.47952  -0.45600
  Beta  occ. eigenvalues --   -0.45045  -0.44841  -0.44252  -0.43665  -0.42728
  Beta  occ. eigenvalues --   -0.41894  -0.41383  -0.40615  -0.39908  -0.38796
  Beta  occ. eigenvalues --   -0.38267  -0.37555  -0.37207  -0.36931  -0.36201
  Beta  occ. eigenvalues --   -0.35770  -0.28448  -0.27506  -0.27459  -0.27305
  Beta  occ. eigenvalues --   -0.26258  -0.25932
  Beta virt. eigenvalues --   -0.11092  -0.06752  -0.03637  -0.02380  -0.00975
  Beta virt. eigenvalues --   -0.00493   0.00484   0.01099   0.01600   0.02929
  Beta virt. eigenvalues --    0.03272   0.03445   0.03543   0.03808   0.04027

 Mulliken charges and spin densities:
               1          2
     1  C   -0.310183   0.000000
     2  C    0.981012   0.000000
     3  C   -0.485278  -0.000000
     4  C   -0.484904  -0.000000
     5  C    0.980879   0.000000
     6  C   -0.310176   0.000000
     7  C    0.295060  -0.000000
     8  C   -1.136915  -0.000000
     9  O   -0.185474   0.000000
    10  C    0.185135  -0.000000
    11  C    0.109613  -0.000000
    12  C   -0.444174   0.000000
    13  C   -0.444245  -0.000000
    14  C    0.109751   0.000000
    15  C    0.185272  -0.000000
    16  C   -1.136201  -0.000000
    17  O   -0.185487   0.000000
    18  C    0.295389   0.000000
    19  H    0.179178   0.000000
    20  H    0.178934   0.000000
    21  H    0.142980   0.000000
    22  H    0.124801  -0.000000
    23  H    0.124818  -0.000000
    24  H    0.179405   0.000000
    25  H    0.178736   0.000000
    26  H    0.142971   0.000000
    27  H    0.190760   0.000000
    28  H    0.173790  -0.000000
    29  H    0.173785   0.000000
    30  H    0.190771  -0.000000
 Sum of Mulliken charges =  -0.00000  -0.00000

 Dipole moment (field-independent basis, Debye):
    X=             -0.4291    Y=              0.1548    Z=             -0.0076  Tot=              0.4562
 Quadrupole moment (field-independent basis, Debye-Ang):
   XX=            -86.1684   YY=           -108.7601   ZZ=           -107.1671
   XY=             -9.3913   XZ=              0.8112   YZ=             -0.1814

  Exact polarizability: 264.590 -14.775 228.880   4.908  -3.433  97.323
 Approx polarizability: 397.612   3.380 405.442   6.386  -5.665 159.502

                      1                      2                      3
                      A                      A                      A
 Frequencies --      8.5060                38.9004               106.2635
 Red. masses --      6.8179                 4.3984                 4.4506
 Frc consts  --      0.0003                 0.0039                 0.0296
 IR Inten    --      5.7759                 0.0005                 0.0000

                      4                      5                      6
                      A                      A                      A
 Frequencies --    114.4509               157.3931               209.5275
 Red. masses --      3.0991                 5.6976                 4.3636
 Frc consts  --      0.0239                 0.0832                 0.1129
 IR Inten    --      0.8321                 0.0601                 0.7443

                      7                      8                      9
                      A                      A                      A
 Frequencies --    235.6890               245.6712               252.4319
 Red. masses --      3.6392                 1.0932                 1.1565
 Frc consts  --      0.1191                 0.0389                 0.0434
 IR Inten    --      0.0186                 0.0006                 1.0932

                     10                     11                     12
                      A                      A                      A
 Frequencies --    313.8417               319.2570               326.7385
 Red. masses --      3.8196                 2.9803                 5.3342
 Frc consts  --      0.2217                 0.1790                 0.3355
 IR Inten    --      0.1358                 0.0000                 0.5541

                     13                     14                     15
                      A                      A                      A
 Frequencies --    368.8300               394.4283               411.0388
 Red. masses --      7.9937                 4.4830                10.7444
 Frc consts  --      0.6407                 0.4109                 1.0695
 IR Inten    --      0.0321                 0.0739                24.2521

                     16                     17                     18
                      A                      A                      A
 Frequencies --    426.0609               431.3196               464.9572
 Red. masses --      3.2952                 5.1892                 6.2985
 Frc consts  --      0.3524                 0.5688                 0.8023
 IR Inten    --      0.0208                 0.0025                 2.7556

                     19                     20                     21
                      A                      A                      A
 Frequencies --    473.6374               498.5953               503.2755
 Red. masses --      3.8457                 4.0222                 6.9529
 Frc consts  --      0.5083                 0.5891                 1.0376
 IR Inten    --      0.0023                 0.0000                 0.0193

                     22                     23                     24
                      A                      A                      A
 Frequencies --    553.5955               606.7872               664.5692
 Red. masses --      3.4851                 5.1813                 6.6108
 Frc consts  --      0.6293                 1.1240                 1.7202
 IR Inten    --     17.6659                 2.4974                10.2992

                     25                     26                     27
                      A                      A                      A
 Frequencies --    669.5353               708.2497               736.1057
 Red. masses --      4.4427                 6.4959                 4.7476
 Frc consts  --      1.1734                 1.9198                 1.5157
 IR Inten    --      0.0000                 0.0289                 0.0001

                     28                     29                     30
                      A                      A                      A
 Frequencies --    744.2071               757.0697               808.8597
 Red. masses --      1.9244                 5.8191                 6.1241
 Frc consts  --      0.6280                 1.9651                 2.3607
 IR Inten    --     59.2158                 0.0129                 0.0003

                     31                     32                     33
                      A                      A                      A
 Frequencies --    816.0454               838.8549               863.3940
 Red. masses --      2.0389                 1.3334                 6.4293
 Frc consts  --      0.8000                 0.5528                 2.8238
 IR Inten    --      4.2690                24.1581                46.9430

                     34                     35                     36
                      A                      A                      A
 Frequencies --    874.8115               914.8273               939.0363
 Red. masses --      6.2145                 1.3854                 6.1685
 Frc consts  --      2.8021                 0.6831                 3.2048
 IR Inten    --      0.5454                 0.0000                 0.6915

                     37                     38                     39
                      A                      A                      A
 Frequencies --    982.7126               991.8052              1003.5187
 Red. masses --      1.3195                 1.8687                 1.3780
 Frc consts  --      0.7508                 1.0830                 0.8176
 IR Inten    --      0.0000                29.4103                 1.8059

                     40                     41                     42
                      A                      A                      A
 Frequencies --   1017.8840              1050.5111              1051.8907
 Red. masses --      1.3222                 2.3019                 1.4084
 Frc consts  --      0.8071                 1.4967                 0.9181
 IR Inten    --      0.0001                13.7048                 1.2662

                     43                     44                     45
                      A                      A                      A
 Frequencies --   1055.0649              1058.9580              1091.0383
 Red. masses --      1.5607                 1.5644                 2.2196
 Frc consts  --      1.0236                 1.0336                 1.5567
 IR Inten    --      0.0019                 5.0718                31.0688

                     46                     47                     48
                      A                      A                      A
 Frequencies --   1114.9873              1181.5390              1188.7077
 Red. masses --      2.2893                 1.1262                 2.7508
 Frc consts  --      1.6769                 0.9264                 2.2901
 IR Inten    --      0.1130                11.5346                14.6639

                     49                     50                     51
                      A                      A                      A
 Frequencies --   1206.1768              1220.3905              1256.9166
 Red. masses --      1.4854                 3.8764                 2.1337
 Frc consts  --      1.2733                 3.4016                 1.9861
 IR Inten    --      0.2483                 1.7088                 4.8009

                     52                     53                     54
                      A                      A                      A
 Frequencies --   1274.7562              1277.5552              1318.8126
 Red. masses --      1.9140                 5.0431                 2.7195
 Frc consts  --      1.8326                 4.8496                 2.7868
 IR Inten    --      1.0082               467.4323                 1.0145

                     55                     56                     57
                      A                      A                      A
 Frequencies --   1339.6247              1362.3721              1402.3543
 Red. masses --      7.0214                 7.4751                 3.2291
 Frc consts  --      7.4241                 8.1745                 3.7416
 IR Inten    --    190.9152                 0.5049                45.3682

                     58                     59                     60
                      A                      A                      A
 Frequencies --   1420.0100              1422.6727              1475.3258
 Red. masses --      1.2078                 1.2689                 1.0448
 Frc consts  --      1.4349                 1.5132                 1.3399
 IR Inten    --     13.9242                 1.9822                 1.2319

                     61                     62                     63
                      A                      A                      A
 Frequencies --   1475.4906              1476.1136              1480.3242
 Red. masses --      1.0646                 1.8116                 1.7045
 Frc consts  --      1.3655                 2.3256                 2.2008
 IR Inten    --     13.4830                 0.8249                 2.8422

                     64                     65                     66
                      A                      A                      A
 Frequencies --   1487.2408              1492.7407              1510.4792
 Red. masses --      1.9998                 1.1442                 2.5771
 Frc consts  --      2.6062                 1.5021                 3.4643
 IR Inten    --      0.6747                12.7627                 2.9722

                     67                     68                     69
                      A                      A                      A
 Frequencies --   1588.4175              1619.6930              1625.9346
 Red. masses --      4.5980                 6.7031                 7.3601
 Frc consts  --      6.8351                10.3608                11.4641
 IR Inten    --     59.0211                 0.9688                 6.9207

                     70                     71                     72
                      A                      A                      A
 Frequencies --   1629.3493              1706.6187              1714.4112
 Red. masses --      5.7932                11.7359                11.6717
 Frc consts  --      9.0614                20.1390                20.2122
 IR Inten    --     66.5389                 0.2177               331.8614

                     73                     74                     75
                      A                      A                      A
 Frequencies --   3040.0120              3040.1291              3103.4448
 Red. masses --      1.0363                 1.0363                 1.0990
 Frc consts  --      5.6429                 5.6430                 6.2365
 IR Inten    --     31.9667                18.7481                 1.8385

                     76                     77                     78
                      A                      A                      A
 Frequencies --   3103.5694              3107.1433              3107.3085
 Red. masses --      1.0990                 1.1023                 1.1023
 Frc consts  --      6.2370                 6.2701                 6.2708
 IR Inten    --     12.3057                 4.7062                47.9531

                     79                     80                     81
                      A                      A                      A
 Frequencies --   3159.5374              3168.8916              3176.5191
 Red. masses --      1.0871                 1.0870                 1.0946
 Frc consts  --      6.3937                 6.4315                 6.5076
 IR Inten    --      8.2557                 3.6913                26.0710

                     82                     83                     84
                      A                      A                      A
 Frequencies --   3183.7579              3202.8419              3205.0699
 Red. masses --      1.0923                 1.0923                 1.0942
 Frc consts  --      6.5234                 6.6017                 6.6227
 IR Inten    --     13.0604                 0.3389                11.3204

 - Thermochemistry -
 -------------------
 Temperature   298.150 Kelvin.  Pressure   1.00000 Atm.
 Atom     1 has atomic number  6 and mass  12.00000

 Molecular mass:   236.08373 amu.
 Principal axes and moments of inertia in atomic units:
                           1         2         3
     Eigenvalues --  2577.209074736.961737292.34777
           X            0.93997   0.34017  -0.02727
           Y           -0.33962   0.94028   0.02292
           Z            0.03344  -0.01228   0.99937
 This molecule is an asymmetric top.
 Rotational symmetry number  1.
 Warning -- assumption of classical behavior for rotation
           may cause significant error
 Rotational temperatures (Kelvin)      0.03361     0.01828     0.01188
 Rotational constants (GHZ):           0.70027     0.38099     0.24748
 Zero-point vibrational energy     615881.7 (Joules/Mol)
                                  147.19927 (Kcal/Mol)
 Warning -- explicit consideration of  23 degrees of freedom as
           vibrations may cause significant error
 Vibrational temperatures:     12.24    55.97   152.89   164.67   226.45
          (Kelvin)            301.46   339.10   353.47   363.19   451.55
                              459.34   470.10   530.66   567.49   591.39
                              613.01   620.57   668.97   681.46   717.37
                              724.10   796.50   873.03   956.17   963.31
                             1019.01  1059.09  1070.75  1089.25  1163.77
                             1174.11  1206.93  1242.23  1258.66  1316.23
                             1351.06  1413.90  1426.99  1443.84  1464.51
                             1511.45  1513.44  1518.00  1523.60  1569.76
                             1604.22  1699.97  1710.29  1735.42  1755.87
                             1808.42  1834.09  1838.12  1897.48  1927.42
                             1960.15  2017.68  2043.08  2046.91  2122.66
                             2122.90  2123.80  2129.86  2139.81  2147.72
                             2173.24  2285.38  2330.38  2339.36  2344.27
                             2455.44  2466.66  4373.90  4374.07  4465.16
                             4465.34  4470.49  4470.72  4545.87  4559.33
                             4570.30  4580.72  4608.18  4611.38

 Zero-point correction=                           0.234577 (Hartree/Particle)
 Thermal correction to Energy=                    0.248886
 Thermal correction to Enthalpy=                  0.249830
 Thermal correction to Gibbs Free Energy=         0.191927
 Sum of electronic and zero-point Energies=           -767.364885
 Sum of electronic and thermal Energies=              -767.350576
 Sum of electronic and thermal Enthalpies=            -767.349632
 Sum of electronic and thermal Free Energies=         -767.407535

                     E (Thermal)             CV                S
                      KCal/Mol        Cal/Mol-Kelvin    Cal/Mol-Kelvin
 Total                  156.178             57.197            121.867
 Electronic               0.000              0.000              0.000
 Translational            0.889              2.981             42.279
 Rotational               0.889              2.981             32.854
 Vibrational            154.401             51.236             46.735
 Vibration     1          0.593              1.987              8.333
 Vibration     2          0.594              1.981              5.314
 Vibration     3          0.605              1.944              3.336
 Vibration     4          0.607              1.937              3.192
 Vibration     5          0.621              1.894              2.581
 Vibration     6          0.642              1.826              2.048
 Vibration     7          0.655              1.786              1.835
 Vibration     8          0.660              1.770              1.761
 Vibration     9          0.664              1.759              1.714
 Vibration    10          0.702              1.647              1.342
 Vibration    11          0.705              1.637              1.314
 Vibration    12          0.710              1.622              1.276
 Vibration    13          0.741              1.536              1.085
 Vibration    14          0.761              1.482              0.983
 Vibration    15          0.775              1.446              0.923
 Vibration    16          0.788              1.414              0.872
 Vibration    17          0.792              1.402              0.854
 Vibration    18          0.822              1.328              0.752
 Vibration    19          0.830              1.309              0.727
 Vibration    20          0.854              1.253              0.662
 Vibration    21          0.859              1.243              0.650
 Vibration    22          0.909              1.132              0.537
 Vibration    23          0.965              1.017              0.438

                           ! Non-Optimized Parameters !
 Normal termination of Gaussian 16 at Thu Dec 21 08:11:37 2023.
