 Q-Chem 5.4, Q-Chem, Inc., Pleasanton, CA (2021)
 Q-Chem 5.4.0 for Intel X86 EM64T Linux

User input:
--------------------------------------------------------------
$molecule
0 1
C                  5.8759420000     -5.5595980000      0.8757520000
C                  6.3867960000     -5.5414630000     -0.4179570000
C                  5.9619310000     -4.5688480000     -1.3269290000
C                  4.9358730000     -4.6029220000      1.2663520000
C                  4.5101710000     -3.6273920000      0.3555860000
C                  5.0265400000     -3.6136790000     -0.9425260000
C                  4.3859570000     -4.6225250000      2.6498820000
C                  3.3750860000     -3.5915020000      3.0405640000
C                  2.9776110000     -2.6310670000      2.1680390000
C                  3.5107990000     -2.6021060000      0.7680550000
O                  4.7486000000     -5.4627850000      3.4597240000
O                  3.1301950000     -1.7496830000     -0.0206540000
H                  7.1161450000     -6.2840090000     -0.7212210000
C                  1.9675370000     -1.5582610000      2.4895510000
H                  6.3622110000     -4.5578690000     -2.3343820000
C                  2.8751480000     -3.7231180000      4.4517110000
C                  0.5200780000     -1.9791080000      2.1569020000
C                 -0.4971310000     -0.8694770000      2.4421700000
C                 -1.9410350000     -1.2689840000      2.1172150000
C                 -2.9539770000     -0.1564740000      2.4030710000
H                  6.1908270000     -6.3040380000      1.5965330000
H                  4.6840290000     -2.8507930000     -1.6306020000
H                  2.2128740000     -0.6709470000      1.9023010000
H                  2.0346400000     -1.2806160000      3.5437930000
H                  2.5050800000     -4.7367650000      4.6245680000
H                  2.0825800000     -3.0150220000      4.6814830000
H                  3.6964110000     -3.5794930000      5.1603500000
H                  0.2594020000     -2.8749340000      2.7331230000
H                  0.4667770000     -2.2607990000      1.1000910000
H                 -0.2292790000      0.0226240000      1.8621750000
H                 -0.4323060000     -0.5775470000      3.4987810000
H                 -2.2074610000     -2.1626170000      2.6947420000
H                 -2.0049260000     -1.5587470000      1.0615630000
H                 -2.9384150000      0.1316200000      3.4590300000
H                 -3.9724060000     -0.4721700000      2.1604820000
H                 -2.7346160000      0.7390520000      1.8132440000
$end
$rem
MAX_SCF_CYCLES=200
BASIS  =  6-311++G(d,p)
GUI  =  2
JOB_TYPE  =  SP
METHOD  =  B3LYP
SOLVENT_METHOD = COSMO
$end
$solvent
dielectric 37.219
opticaldielectric 1.43
$end

--------------------------------------------------------------

             Standard Nuclear Orientation (Angstroms)
    I     Atom           X                Y                Z
 ----------------------------------------------------------------
    1      C       3.9354515206    -0.3643011388    -0.5318559477
    2      C       4.6674855449     0.8166358792    -0.5989201779
    3      C       4.0579086372     2.0383224578    -0.3012320850
    4      C       2.5877086235    -0.3279630053    -0.1660750338
    5      C       1.9764484959     0.8964934656     0.1329953388
    6      C       2.7163207821     2.0796120681     0.0641540163
    7      C       1.8019264570    -1.5907559303    -0.0964506058
    8      C       0.3586166201    -1.5235438535     0.2906414782
    9      C      -0.2307745303    -0.3417833967     0.6033425095
   10      C       0.5403563413     0.9406811130     0.5276765104
   11      O       2.3189408619    -2.6688028717    -0.3492386104
   12      O      -0.0027351186     2.0044920440     0.7863350339
   13      H       5.7133304469     0.7885337957    -0.8830192689
   14      C      -1.6770016825    -0.1951646611     1.0051660229
   15      H       4.6315591121     2.9566789200    -0.3546428054
   16      C      -0.3375632695    -2.8553523365     0.3053505526
   17      C      -2.6117645609     0.0476907109    -0.1990535339
   18      C      -4.0730984073     0.2417422149     0.2183435681
   19      C      -5.0170390200     0.4849185853    -0.9648308606
   20      C      -6.4763153123     0.6792102327    -0.5426850245
   21      H       4.3873275281    -1.3220992800    -0.7583499242
   22      H       2.2244140364     3.0152329101     0.2995235327
   23      H      -1.7585602532     0.6569737941     1.6830946279
   24      H      -2.0081206286    -1.0804499700     1.5525652542
   25      H      -0.2003119167    -3.3599418103    -0.6542648062
   26      H      -1.4022952533    -2.7675446669     0.5078221993
   27      H       0.1139056309    -3.5114351954     1.0556847463
   28      H      -2.5363489893    -0.7963492025    -0.8950391345
   29      H      -2.2664552416     0.9330998664    -0.7429766968
   30      H      -4.1397659982     1.0875319928     0.9141726937
   31      H      -4.4136127269    -0.6404658324     0.7765650030
   32      H      -4.9478372983    -0.3592094824    -1.6617950740
   33      H      -4.6770171050     1.3669602002    -1.5205587510
   34      H      -6.8562792006    -0.2008848319    -0.0141494447
   35      H      -7.1224868015     0.8509700520    -1.4079433595
   36      H      -6.5830887263     1.5382309309     0.1271394548
 ----------------------------------------------------------------

    9    -771.2149296173      3.10e-06  Convergence criterion met
 Total energy in the final basis set =     -771.2149296173
    5    -771.2277341275      2.74e-06  Convergence criterion met
 Total energy in the final basis set =     -771.2277341275

                    Orbital Energies (a.u.)
 --------------------------------------------------------------

 Alpha MOs
 -- Occupied --
-19.1333 -19.1332 -10.2814 -10.2808 -10.2124 -10.2097 -10.2049 -10.2044
-10.1953 -10.1951 -10.1947 -10.1943 -10.1742 -10.1710 -10.1676 -10.1607
-10.1605 -10.1530  -1.0678  -1.0660  -0.8883  -0.8512  -0.8041  -0.7845
 -0.7757  -0.7603  -0.7231  -0.6879  -0.6737  -0.6355  -0.6193  -0.5958
 -0.5811  -0.5769  -0.5497  -0.5174  -0.4998  -0.4794  -0.4693  -0.4615
 -0.4601  -0.4551  -0.4489  -0.4358  -0.4295  -0.4263  -0.4142  -0.4101
 -0.4050  -0.4013  -0.3933  -0.3821  -0.3760  -0.3685  -0.3659  -0.3604
 -0.3373  -0.3311  -0.3277  -0.3221  -0.2900  -0.2887  -0.2769  -0.2721
 -0.2689

          Ground-State Mulliken Net Atomic Charges

     Atom                 Charge (a.u.)
  ----------------------------------------
      1 C                     0.240313
      2 C                    -0.481112
      3 C                    -0.399842
      4 C                     0.130381
      5 C                    -0.138942
      6 C                     0.207377
      7 C                    -0.381478
      8 C                     0.786090
      9 C                     1.041159
     10 C                    -0.979198
     11 O                    -0.296378
     12 O                    -0.280625
     13 H                     0.222678
     14 C                    -0.537860
     15 H                     0.222620
     16 C                    -0.437846
     17 C                    -0.552393
     18 C                    -0.194614
     19 C                    -0.189134
     20 C                    -0.677978
     21 H                     0.202863
     22 H                     0.202869
     23 H                     0.218932
     24 H                     0.216503
     25 H                     0.195643
     26 H                     0.146376
     27 H                     0.213499
     28 H                     0.147182
     29 H                     0.182982
     30 H                     0.122387
     31 H                     0.126766
     32 H                     0.138735
     33 H                     0.136617
     34 H                     0.146755
     35 H                     0.151604
     36 H                     0.147062
  ----------------------------------------
  Sum of atomic charges =    -0.000007

                    Cartesian Multipole Moments
 -----------------------------------------------------------------
    Charge (ESU x 10^10)
                -0.0000
    Dipole Moment (Debye)
         X       0.3855      Y       0.3805      Z      -0.3087
       Tot       0.6235
    Quadrupole Moments (Debye-Ang)
        XX     -93.0693     XY      16.2143     YY    -115.7334
        XZ      -1.7426     YZ      -4.7965     ZZ    -110.0743

 Total job time:  131.88s(wall), 570.17s(cpu)
        *  Thank you very much for using Q-Chem.  Have a nice day.  *
