 Gaussian 16, Revision A.03,
 Gaussian 16:  ES64L-G16RevA.03 25-Dec-2016

 --------------------------------------
 #P UB3LYP/6-311++G(d,p) nosym opt freq
 --------------------------------------

 --------
 Oxidized
 --------
 Symbolic Z-matrix:
 Charge =  0 Multiplicity = 1

 SCF Done:  E(UB3LYP) =  -806.918546156     A.U. after   17 cycles
 SCF Done:  E(UB3LYP) =  -806.926976169     A.U. after   14 cycles
 SCF Done:  E(UB3LYP) =  -806.930481020     A.U. after   14 cycles
 SCF Done:  E(UB3LYP) =  -806.932553052     A.U. after   16 cycles
 SCF Done:  E(UB3LYP) =  -806.934479792     A.U. after   15 cycles
 SCF Done:  E(UB3LYP) =  -806.935677812     A.U. after   13 cycles
 SCF Done:  E(UB3LYP) =  -806.936062496     A.U. after   13 cycles
 SCF Done:  E(UB3LYP) =  -806.936062924     A.U. after   14 cycles
 SCF Done:  E(UB3LYP) =  -806.936306160     A.U. after   12 cycles
 SCF Done:  E(UB3LYP) =  -806.936316824     A.U. after   11 cycles
 SCF Done:  E(UB3LYP) =  -806.936332167     A.U. after   11 cycles
 SCF Done:  E(UB3LYP) =  -806.936333504     A.U. after   10 cycles
 SCF Done:  E(UB3LYP) =  -806.936335144     A.U. after   10 cycles
 SCF Done:  E(UB3LYP) =  -806.936335265     A.U. after    9 cycles
 Optimization completed.
    -- Stationary point found.
 Normal termination of Gaussian 16 at Wed Dec 20 03:37:07 2023.

 ----------------------------------------------------------------------
 #P Geom=AllCheck Guess=TCheck SCRF=Check GenChk UB3LYP/6-311++G(d,p) F
 req
 ----------------------------------------------------------------------

 Structure from the checkpoint file:  "107.chk"
 --------
 Oxidized
 --------
 Charge =  0 Multiplicity = 1

                          Input orientation:
 ---------------------------------------------------------------------
 Center     Atomic      Atomic             Coordinates (Angstroms)
 Number     Number       Type             X           Y           Z
 ---------------------------------------------------------------------
      1          6           0       -0.545974   -2.194782    1.001470
      2          6           0        0.841841   -2.492214    0.845751
      3          6           0        1.777751   -1.495111    0.721590
      4          6           0        1.342890   -0.020387    0.748474
      5          6           0       -0.044899    0.277061    0.904391
      6          6           0       -0.980776   -0.720035    1.028749
      7          8           0       -1.424857   -3.052443    1.116387
      8          8           0        2.221700    0.837301    0.633150
      9          7           0       -2.306908   -0.609889    1.180897
     10          7           0        3.103906   -1.605269    0.569637
     11          6           0       -3.178399    0.581136    1.262123
     12          6           0       -4.607506    0.042529    1.437054
     13          6           0       -2.807563    1.441805    2.484972
     14          6           0       -3.100706    1.399335   -0.041013
     15          6           0        3.975385   -2.796335    0.488143
     16          6           0        3.897239   -3.615224    1.790783
     17          6           0        5.404586   -2.257716    0.314111
     18          6           0        3.604911   -3.656319   -0.735314
     19          1           0        1.096056   -3.541639    0.832749
     20          1           0       -0.299189    1.326475    0.917247
     21          1           0       -2.749159   -1.524808    1.246159
     22          1           0        3.546123   -0.690398    0.503757
     23          1           0       -4.897248   -0.582310    0.587436
     24          1           0       -5.315890    0.870388    1.505238
     25          1           0       -4.692691   -0.552570    2.350735
     26          1           0       -2.884296    0.853438    3.402509
     27          1           0       -3.492916    2.289875    2.562107
     28          1           0       -1.792978    1.835824    2.420690
     29          1           0       -3.384092    0.781399   -0.896464
     30          1           0       -2.099587    1.790417   -0.224229
     31          1           0       -3.787985    2.247641    0.012960
     32          1           0        2.896280   -4.007065    1.973201
     33          1           0        4.179720   -2.997595    2.646759
     34          1           0        4.585087   -4.463072    1.736779
     35          1           0        5.694038   -1.633442    1.164241
     36          1           0        5.490174   -1.662037   -0.599159
     37          1           0        6.112957   -3.085561    0.245629
     38          1           0        2.590091   -4.049854   -0.671771
     39          1           0        4.289898   -4.504688   -0.812426
     40          1           0        3.682466   -3.067564   -1.652531
 ---------------------------------------------------------------------

 SCF Done:  E(UB3LYP) =  -806.936335265     A.U. after    1 cycles

 Alpha  occ. eigenvalues --  -19.10449 -19.10449 -14.34909 -14.34908 -10.25842
 Alpha  occ. eigenvalues --  -10.25842 -10.24077 -10.24076 -10.24070 -10.24069
 Alpha  occ. eigenvalues --  -10.17793 -10.17793 -10.17239 -10.17238 -10.17238
 Alpha  occ. eigenvalues --  -10.17238 -10.16506 -10.16505  -1.04143  -1.03851
 Alpha  occ. eigenvalues --   -0.96066  -0.96043  -0.83961  -0.82333  -0.79655
 Alpha  occ. eigenvalues --   -0.74640  -0.70979  -0.70786  -0.70570  -0.70569
 Alpha  occ. eigenvalues --   -0.67959  -0.64069  -0.60247  -0.59648  -0.56376
 Alpha  occ. eigenvalues --   -0.54193  -0.51243  -0.51021  -0.49031  -0.47151
 Alpha  occ. eigenvalues --   -0.46930  -0.46773  -0.44999  -0.44841  -0.43925
 Alpha  occ. eigenvalues --   -0.43648  -0.43635  -0.42605  -0.41916  -0.40774
 Alpha  occ. eigenvalues --   -0.40599  -0.40223  -0.40156  -0.39397  -0.38653
 Alpha  occ. eigenvalues --   -0.38455  -0.38446  -0.36892  -0.36491  -0.36212
 Alpha  occ. eigenvalues --   -0.35090  -0.35076  -0.33637  -0.32116  -0.27038
 Alpha  occ. eigenvalues --   -0.25891  -0.24227  -0.21459
 Alpha virt. eigenvalues --   -0.09436  -0.01429  -0.01186   0.00301   0.01060
 Alpha virt. eigenvalues --    0.01233   0.01398   0.01602   0.02055   0.02249
 Alpha virt. eigenvalues --    0.02994   0.03081   0.03341   0.03604   0.03900

  Beta  occ. eigenvalues --  -19.10449 -19.10449 -14.34909 -14.34908 -10.25842
  Beta  occ. eigenvalues --  -10.25842 -10.24077 -10.24076 -10.24070 -10.24069
  Beta  occ. eigenvalues --  -10.17793 -10.17793 -10.17239 -10.17238 -10.17238
  Beta  occ. eigenvalues --  -10.17238 -10.16506 -10.16505  -1.04143  -1.03851
  Beta  occ. eigenvalues --   -0.96066  -0.96043  -0.83961  -0.82333  -0.79655
  Beta  occ. eigenvalues --   -0.74640  -0.70979  -0.70786  -0.70570  -0.70569
  Beta  occ. eigenvalues --   -0.67959  -0.64069  -0.60247  -0.59648  -0.56376
  Beta  occ. eigenvalues --   -0.54193  -0.51243  -0.51021  -0.49031  -0.47151
  Beta  occ. eigenvalues --   -0.46930  -0.46773  -0.44999  -0.44841  -0.43925
  Beta  occ. eigenvalues --   -0.43648  -0.43635  -0.42605  -0.41916  -0.40774
  Beta  occ. eigenvalues --   -0.40599  -0.40223  -0.40156  -0.39397  -0.38653
  Beta  occ. eigenvalues --   -0.38455  -0.38446  -0.36892  -0.36491  -0.36212
  Beta  occ. eigenvalues --   -0.35090  -0.35076  -0.33637  -0.32116  -0.27038
  Beta  occ. eigenvalues --   -0.25891  -0.24227  -0.21459
  Beta virt. eigenvalues --   -0.09436  -0.01429  -0.01186   0.00301   0.01060
  Beta virt. eigenvalues --    0.01233   0.01398   0.01602   0.02055   0.02249
  Beta virt. eigenvalues --    0.02994   0.03081   0.03341   0.03604   0.03900

 Mulliken charges and spin densities:
               1          2
     1  C   -0.469000  -0.000000
     2  C   -0.076083   0.000000
     3  C    0.172825  -0.000000
     4  C   -0.469106  -0.000000
     5  C   -0.076135   0.000000
     6  C    0.172848  -0.000000
     7  O   -0.284145  -0.000000
     8  O   -0.284150  -0.000000
     9  N    0.081548   0.000000
    10  N    0.081551   0.000000
    11  C   -0.181272   0.000000
    12  C   -0.458892  -0.000000
    13  C   -0.377256  -0.000000
    14  C   -0.377355   0.000000
    15  C   -0.181320   0.000000
    16  C   -0.377331   0.000000
    17  C   -0.458866  -0.000000
    18  C   -0.377298   0.000000
    19  H    0.240788  -0.000000
    20  H    0.240786  -0.000000
    21  H    0.376828  -0.000000
    22  H    0.376822   0.000000
    23  H    0.155590   0.000000
    24  H    0.151927  -0.000000
    25  H    0.155642  -0.000000
    26  H    0.160270   0.000000
    27  H    0.161936   0.000000
    28  H    0.122188   0.000000
    29  H    0.160279   0.000000
    30  H    0.122369   0.000000
    31  H    0.161882   0.000000
    32  H    0.122336   0.000000
    33  H    0.160290  -0.000000
    34  H    0.161911   0.000000
    35  H    0.155627   0.000000
    36  H    0.155613   0.000000
    37  H    0.151926  -0.000000
    38  H    0.122250   0.000000
    39  H    0.161913   0.000000
    40  H    0.160268  -0.000000
 Sum of Mulliken charges =  -0.00000  -0.00000

 Dipole moment (field-independent basis, Debye):
    X=              0.0004    Y=             -0.0003    Z=              0.0003  Tot=              0.0006
 Quadrupole moment (field-independent basis, Debye-Ang):
   XX=            -90.2305   YY=           -116.8849   ZZ=           -111.9825
   XY=            -21.3569   XZ=             -2.2015   YZ=              2.5427

  Exact polarizability: 288.548 -13.238 185.533 -17.061   0.801 141.257
 Approx polarizability: 437.648  63.078 290.029 -27.841  -8.638 209.193

                      1                      2                      3
                      A                      A                      A
 Frequencies --     28.2531                47.7138                62.7166
 Red. masses --      4.2539                 2.6855                 3.8449
 Frc consts  --      0.0020                 0.0036                 0.0089
 IR Inten    --      3.0218                 0.0027                 0.0000

                      4                      5                      6
                      A                      A                      A
 Frequencies --     77.4592                90.4065                98.2979
 Red. masses --      3.5480                 3.7923                 6.5839
 Frc consts  --      0.0125                 0.0183                 0.0375
 IR Inten    --      0.0000                 1.2961                 2.3776

                      7                      8                      9
                      A                      A                      A
 Frequencies --    135.2634               167.5102               175.3410
 Red. masses --      3.9156                 2.0844                 1.6089
 Frc consts  --      0.0422                 0.0345                 0.0291
 IR Inten    --      0.0000                 0.2869                 0.0000

                     10                     11                     12
                      A                      A                      A
 Frequencies --    201.5008               209.4077               210.1672
 Red. masses --      1.4442                 1.9199                 2.9255
 Frc consts  --      0.0345                 0.0496                 0.0761
 IR Inten    --      0.0602                 0.0000                 0.0000

                     13                     14                     15
                      A                      A                      A
 Frequencies --    227.7967               234.8696               267.7157
 Red. masses --      1.2046                 1.2741                 2.3330
 Frc consts  --      0.0368                 0.0414                 0.0985
 IR Inten    --      3.0109                 0.0000                 5.3851

                     16                     17                     18
                      A                      A                      A
 Frequencies --    275.2466               275.4779               286.4923
 Red. masses --      1.0506                 1.0509                 2.5179
 Frc consts  --      0.0469                 0.0470                 0.1218
 IR Inten    --      0.1119                 0.0000                 0.0000

                     19                     20                     21
                      A                      A                      A
 Frequencies --    313.9130               346.7178               349.1375
 Red. masses --      3.4837                 2.5098                 2.5526
 Frc consts  --      0.2023                 0.1778                 0.1833
 IR Inten    --     10.6196                 0.2442                 0.0000

                     22                     23                     24
                      A                      A                      A
 Frequencies --    387.1405               394.9554               437.6500
 Red. masses --      2.6150                 2.4876                 2.8150
 Frc consts  --      0.2309                 0.2286                 0.3177
 IR Inten    --      0.0000                 0.2684                 0.2205

                     25                     26                     27
                      A                      A                      A
 Frequencies --    443.1247               445.4904               459.4670
 Red. masses --      3.6758                 3.2177                 3.6697
 Frc consts  --      0.4253                 0.3762                 0.4564
 IR Inten    --      0.0000                 0.0001                49.0752

                     28                     29                     30
                      A                      A                      A
 Frequencies --    474.0518               497.5262               545.3123
 Red. masses --      4.3377                 3.0943                 3.8605
 Frc consts  --      0.5743                 0.4513                 0.6764
 IR Inten    --      0.0000                 5.2667                 2.6919

                     31                     32                     33
                      A                      A                      A
 Frequencies --    551.2703               569.6038               634.4876
 Red. masses --      7.4630                 5.8338                 4.9533
 Frc consts  --      1.3363                 1.1152                 1.1749
 IR Inten    --      0.0001                 0.0000                 0.0000

                     34                     35                     36
                      A                      A                      A
 Frequencies --    681.6605               682.0044               703.2210
 Red. masses --      1.0887                 1.0809                 5.8611
 Frc consts  --      0.2981                 0.2962                 1.7077
 IR Inten    --    102.0800                 4.7516                 0.1957

                     37                     38                     39
                      A                      A                      A
 Frequencies --    746.1987               760.5182               767.6321
 Red. masses --      5.3684                 2.5540                 6.0074
 Frc consts  --      1.7612                 0.8704                 2.0856
 IR Inten    --      0.0000                 0.0000                 0.6783

                     40                     41                     42
                      A                      A                      A
 Frequencies --    782.3042               786.6055               813.2417
 Red. masses --      3.6525                 3.5381                 1.7433
 Frc consts  --      1.3170                 1.2898                 0.6793
 IR Inten    --      4.6332                 0.0000                 0.0000

                     43                     44                     45
                      A                      A                      A
 Frequencies --    839.7109               879.1807               920.9417
 Red. masses --      1.5990                 2.8434                 1.7419
 Frc consts  --      0.6643                 1.2949                 0.8704
 IR Inten    --     58.8627                40.2038                 0.0096

                     46                     47                     48
                      A                      A                      A
 Frequencies --    920.9632               924.7227               931.0075
 Red. masses --      1.7423                 1.9783                 1.6433
 Frc consts  --      0.8707                 0.9967                 0.8392
 IR Inten    --      0.0537                 0.0000                 2.5139

                     49                     50                     51
                      A                      A                      A
 Frequencies --    943.9579               959.7040               966.1033
 Red. masses --      2.0583                 2.7948                 1.1972
 Frc consts  --      1.0806                 1.5166                 0.6584
 IR Inten    --      0.0000                 8.5618                 0.0000

                     52                     53                     54
                      A                      A                      A
 Frequencies --    966.1360              1048.9473              1048.9723
 Red. masses --      1.1972                 1.3950                 1.3948
 Frc consts  --      0.6584                 0.9043                 0.9043
 IR Inten    --      0.0104                 0.0187                 1.9007

                     55                     56                     57
                      A                      A                      A
 Frequencies --   1058.5118              1058.7206              1214.4575
 Red. masses --      1.4190                 1.4264                 2.4337
 Frc consts  --      0.9368                 0.9420                 2.1148
 IR Inten    --      5.7768                 0.0000                15.1571

                     58                     59                     60
                      A                      A                      A
 Frequencies --   1214.9427              1232.7392              1239.1197
 Red. masses --      1.5799                 2.3225                 2.5017
 Frc consts  --      1.3740                 2.0795                 2.2632
 IR Inten    --      0.0037                 0.0008               219.3830

                     61                     62                     63
                      A                      A                      A
 Frequencies --   1241.6993              1241.7784              1261.8519
 Red. masses --      2.7665                 2.7676                 2.3337
 Frc consts  --      2.5131                 2.5144                 2.1893
 IR Inten    --      0.2206                22.2237                 0.0000

                     64                     65                     66
                      A                      A                      A
 Frequencies --   1268.8120              1295.9719              1327.2770
 Red. masses --      3.3620                 2.9878                 1.6723
 Frc consts  --      3.1889                 2.9566                 1.7358
 IR Inten    --    235.4584                 0.0000               120.6169

                     67                     68                     69
                      A                      A                      A
 Frequencies --   1362.0789              1375.2188              1402.9278
 Red. masses --      5.4991                 4.8357                 1.2390
 Frc consts  --      6.0110                 5.3884                 1.4368
 IR Inten    --    112.1084                 0.0000                 6.2354

                     70                     71                     72
                      A                      A                      A
 Frequencies --   1402.9422              1403.8692              1403.8851
 Red. masses --      1.2379                 1.2248                 1.2249
 Frc consts  --      1.4356                 1.4223                 1.4223
 IR Inten    --     21.3753                26.6970                 0.2403

                     73                     74                     75
                      A                      A                      A
 Frequencies --   1432.3283              1432.8654              1477.9913
 Red. masses --      1.2286                 1.2256                 1.0472
 Frc consts  --      1.4851                 1.4825                 1.3478
 IR Inten    --     56.6306                 0.0002                 0.0437

                     76                     77                     78
                      A                      A                      A
 Frequencies --   1477.9933              1489.4855              1489.7782
 Red. masses --      1.0472                 1.0492                 1.0469
 Frc consts  --      1.3477                 1.3715                 1.3689
 IR Inten    --      0.4555                18.5085                 0.0000

                     79                     80                     81
                      A                      A                      A
 Frequencies --   1489.9392              1490.0829              1500.4442
 Red. masses --      1.0443                 1.0441                 1.0686
 Frc consts  --      1.3658                 1.3658                 1.4175
 IR Inten    --      0.0000                 0.1297                 0.0076

                     82                     83                     84
                      A                      A                      A
 Frequencies --   1500.5847              1505.8579              1505.8765
 Red. masses --      1.0668                 1.0534                 1.0534
 Frc consts  --      1.4153                 1.4074                 1.4074
 IR Inten    --     61.1374                10.4452                 0.1134

                     85                     86                     87
                      A                      A                      A
 Frequencies --   1519.8718              1520.3377              1550.8737
 Red. masses --      1.0700                 1.0638                 1.7437
 Frc consts  --      1.4563                 1.4488                 2.4710
 IR Inten    --      0.0005                28.1313               858.7086

                     88                     89                     90
                      A                      A                      A
 Frequencies --   1561.9551              1629.5314              1638.7582
 Red. masses --      1.7914                 5.9453                 8.1993
 Frc consts  --      2.5750                 9.3015                12.9734
 IR Inten    --      0.0034              1251.9578                 0.0034

                     91                     92                     93
                      A                      A                      A
 Frequencies --   1669.1122              1692.6173              3027.0719
 Red. masses --      7.2045                10.2283                 1.0355
 Frc consts  --     11.8257                17.2652                 5.5907
 IR Inten    --      0.0001               233.9672                10.9641

                     94                     95                     96
                      A                      A                      A
 Frequencies --   3027.0765              3035.3988              3035.4238
 Red. masses --      1.0355                 1.0364                 1.0364
 Frc consts  --      5.5907                 5.6261                 5.6262
 IR Inten    --     21.1372                 0.8317                42.4207

                     97                     98                     99
                      A                      A                      A
 Frequencies --   3041.1428              3041.2833              3091.3558
 Red. masses --      1.0374                 1.0374                 1.1030
 Frc consts  --      5.6529                 5.6532                 6.2105
 IR Inten    --     38.5618                 0.0184                 5.4572

                    100                    101                    102
                      A                      A                      A
 Frequencies --   3091.3686              3098.8556              3098.9230
 Red. masses --      1.1030                 1.1022                 1.1022
 Frc consts  --      6.2105                 6.2361                 6.2363
 IR Inten    --     19.6089                 0.6695                40.9717

                    103                    104                    105
                      A                      A                      A
 Frequencies --   3100.0653              3100.1051              3110.1589
 Red. masses --      1.1022                 1.1022                 1.1010
 Frc consts  --      6.2411                 6.2412                 6.2749
 IR Inten    --     23.8564                 0.6020                93.8353

                    106                    107                    108
                      A                      A                      A
 Frequencies --   3110.2424              3119.9908              3120.0098
 Red. masses --      1.1010                 1.1001                 1.1001
 Frc consts  --      6.2749                 6.3096                 6.3097
 IR Inten    --      0.0923                 2.2643                 1.5087

                    109                    110                    111
                      A                      A                      A
 Frequencies --   3122.6481              3122.7301              3218.5157
 Red. masses --      1.0996                 1.0996                 1.0896
 Frc consts  --      6.3172                 6.3175                 6.6501
 IR Inten    --     67.3387                 1.4525                14.9164

                    112                    113                    114
                      A                      A                      A
 Frequencies --   3220.0314              3475.4992              3479.9981
 Red. masses --      1.0896                 1.0750                 1.0757
 Frc consts  --      6.6561                 7.6507                 7.6756
 IR Inten    --      0.0026                 0.1097               182.2354

 - Thermochemistry -
 -------------------
 Temperature   298.150 Kelvin.  Pressure   1.00000 Atm.
 Atom     1 has atomic number  6 and mass  12.00000

 Molecular mass:   250.16813 amu.
 Principal axes and moments of inertia in atomic units:
                           1         2         3
     Eigenvalues --  1840.338779400.40715**********
           X            0.91393   0.38926   0.11488
           Y           -0.39348   0.91920   0.01570
           Z           -0.09948  -0.05955   0.99326
 This molecule is an asymmetric top.
 Rotational symmetry number  1.
 Warning -- assumption of classical behavior for rotation
           may cause significant error
 Rotational temperatures (Kelvin)      0.04706     0.00921     0.00830
 Rotational constants (GHZ):           0.98066     0.19199     0.17303
 Zero-point vibrational energy     899987.7 (Joules/Mol)
                                  215.10223 (Kcal/Mol)
 Warning -- explicit consideration of  32 degrees of freedom as
           vibrations may cause significant error
 Vibrational temperatures:     40.65    68.65    90.24   111.45   130.07
          (Kelvin)            141.43   194.61   241.01   252.28   289.91
                              301.29   302.38   327.75   337.92   385.18
                              396.02   396.35   412.20   451.65   498.85
                              502.33   557.01   568.25   629.68   637.56
                              640.96   661.07   682.05   715.83   784.58
                              793.15   819.53   912.89   980.76   981.25
                             1011.78  1073.61  1094.22  1104.45  1125.56
                             1131.75  1170.07  1208.16  1264.94  1325.03
                             1325.06  1330.47  1339.51  1358.14  1380.80
                             1390.01  1390.05  1509.20  1509.24  1522.96
                             1523.26  1747.33  1748.03  1773.64  1782.82
                             1786.53  1786.64  1815.52  1825.54  1864.61
                             1909.66  1959.73  1978.63  2018.50  2018.52
                             2019.85  2019.88  2060.80  2061.57  2126.50
                             2126.50  2143.04  2143.46  2143.69  2143.90
                             2158.80  2159.01  2166.59  2166.62  2186.76
                             2187.43  2231.36  2247.31  2344.53  2357.81
                             2401.48  2435.30  4355.28  4355.29  4367.26
                             4367.30  4375.53  4375.73  4447.77  4447.79
                             4458.56  4458.66  4460.30  4460.36  4474.82
                             4474.95  4488.97  4489.00  4492.79  4492.91
                             4630.73  4632.91  5000.47  5006.94

 Zero-point correction=                           0.342787 (Hartree/Particle)
 Thermal correction to Energy=                    0.362542
 Thermal correction to Enthalpy=                  0.363486
 Thermal correction to Gibbs Free Energy=         0.295501
 Sum of electronic and zero-point Energies=           -806.593548
 Sum of electronic and thermal Energies=              -806.573794
 Sum of electronic and thermal Enthalpies=            -806.572849
 Sum of electronic and thermal Free Energies=         -806.640835

                     E (Thermal)             CV                S
                      KCal/Mol        Cal/Mol-Kelvin    Cal/Mol-Kelvin
 Total                  227.498             76.005            143.087
 Electronic               0.000              0.000              0.000
 Translational            0.889              2.981             42.451
 Rotational               0.889              2.981             33.556
 Vibrational            225.721             70.044             67.080
 Vibration     1          0.593              1.984              5.948
 Vibration     2          0.595              1.978              4.910
 Vibration     3          0.597              1.972              4.370
 Vibration     4          0.599              1.964              3.954
 Vibration     5          0.602              1.956              3.651
 Vibration     6          0.604              1.950              3.488
 Vibration     7          0.613              1.918              2.870
 Vibration     8          0.624              1.882              2.463
 Vibration     9          0.627              1.873              2.377
 Vibration    10          0.638              1.838              2.119
 Vibration    11          0.642              1.826              2.049
 Vibration    12          0.642              1.825              2.042
 Vibration    13          0.651              1.799              1.896
 Vibration    14          0.655              1.787              1.841
 Vibration    15          0.673              1.732              1.611
 Vibration    16          0.677              1.719              1.563
 Vibration    17          0.677              1.719              1.562
 Vibration    18          0.684              1.699              1.495
 Vibration    19          0.702              1.647              1.342
 Vibration    20          0.725              1.582              1.181
 Vibration    21          0.726              1.577              1.170
 Vibration    22          0.756              1.498              1.011
 Vibration    23          0.762              1.481              0.981
 Vibration    24          0.798              1.388              0.834
 Vibration    25          0.803              1.376              0.817
 Vibration    26          0.805              1.371              0.810
 Vibration    27          0.817              1.340              0.768
 Vibration    28          0.831              1.308              0.726
 Vibration    29          0.853              1.256              0.664
 Vibration    30          0.900              1.150              0.554
 Vibration    31          0.907              1.137              0.542
 Vibration    32          0.926              1.097              0.505

 Optimization completed.
    -- Stationary point found.
 Normal termination of Gaussian 16 at Wed Dec 20 05:28:01 2023.
