 Gaussian 16, Revision A.03,
 Gaussian 16:  ES64L-G16RevA.03 25-Dec-2016

 ----------------------------------------------------------------
 #P UB3LYP/6-311++G(d,p) SCRF=(PCM,Solvent=n,n-DiMethylFormamide)
 ----------------------------------------------------------------

 -------
 Reduced
 -------
 Symbolic Z-matrix:
 Charge = -2 Multiplicity = 1

                         Standard orientation:
 ---------------------------------------------------------------------
 Center     Atomic      Atomic             Coordinates (Angstroms)
 Number     Number       Type             X           Y           Z
 ---------------------------------------------------------------------
      1          6           0       -6.292262   -0.020908   -0.937108
      2          6           0       -6.899206   -1.263696   -0.981322
      3          6           0       -6.211335   -2.397943   -0.489956
      4          6           0       -4.993253    0.150747   -0.411322
      5          6           0       -4.297347   -0.997411    0.084597
      6          6           0       -4.936725   -2.254602    0.029263
      7          6           0       -4.392772    1.483973   -0.381238
      8          6           0       -3.062770    1.559512    0.169622
      9          6           0       -2.383512    0.433567    0.664253
     10          6           0       -2.949934   -0.890064    0.640939
     11          8           0       -5.024409    2.505495   -0.819261
     12          8           0       -2.323517   -1.912966    1.080909
     13          1           0       -7.900746   -1.369445   -1.392472
     14          6           0       -0.996803    0.542506    1.259879
     15          1           0       -6.682775   -3.377702   -0.521697
     16          6           0       -2.433685    2.934148    0.202289
     17          6           0        0.141192    0.230583    0.265311
     18          6           0        1.535717    0.313048    0.899071
     19          6           0        2.689740    0.020092   -0.069136
     20          1           0       -6.793493    0.868290   -1.305168
     21          1           0       -4.381437   -3.104568    0.412272
     22          1           0       -0.927614   -0.184495    2.076903
     23          1           0       -0.833025    1.540754    1.683093
     24          1           0       -3.069468    3.619203   -0.361482
     25          1           0       -1.424621    2.943990   -0.228406
     26          1           0       -2.344254    3.325786    1.226709
     27          1           0        0.084699    0.924230   -0.583727
     28          1           0       -0.026797   -0.775091   -0.133429
     29          1           0        1.586054   -0.390065    1.741411
     30          1           0        1.678970    1.314221    1.331048
     31          1           0        2.636009    0.717372   -0.916123
     32          1           0        2.556683   -0.983079   -0.494784
     33          6           0        4.078931    0.117302    0.575356
     34          6           0        5.242520   -0.157495   -0.386462
     35          6           0        6.625559   -0.049105    0.268950
     36          6           0        7.795214   -0.315150   -0.687627
     37          6           0        9.173844   -0.198215   -0.024104
     38          6           0       10.343674   -0.459812   -0.977270
     39          1           0        4.134685   -0.585932    1.417213
     40          1           0        4.203439    1.118303    1.010626
     41          1           0        5.187167    0.543847   -1.229718
     42          1           0        5.125009   -1.159539   -0.819850
     43          1           0        6.681617   -0.752551    1.110540
     44          1           0        6.739178    0.952504    0.705162
     45          1           0        7.741853    0.386208   -1.530591
     46          1           0        7.689056   -1.317667   -1.122303
     47          1           0        9.228600   -0.899558    0.818504
     48          1           0        9.279119    0.803443    0.412392
     49          1           0       10.297179   -1.468890   -1.402724
     50          1           0       11.309504   -0.367164   -0.468790
     51          1           0       10.348100    0.250901   -1.811716
 ---------------------------------------------------------------------

 SCF Done:  E(UB3LYP) =  -968.070389372     A.U. after   18 cycles

 The electronic state is 1-A.
 Alpha  occ. eigenvalues --  -19.00606 -19.00592 -10.16021 -10.15746 -10.15738
 Alpha  occ. eigenvalues --  -10.15712 -10.15661 -10.15640 -10.15535 -10.15408
 Alpha  occ. eigenvalues --  -10.15342 -10.14976 -10.14319 -10.14272 -10.14245
 Alpha  occ. eigenvalues --  -10.13939 -10.13927 -10.13316 -10.12960 -10.12564
 Alpha  occ. eigenvalues --  -10.12518 -10.11705 -10.11370  -0.93042  -0.92716
 Alpha  occ. eigenvalues --   -0.81875  -0.80672  -0.79056  -0.77449  -0.75551
 Alpha  occ. eigenvalues --   -0.72815  -0.71531  -0.71366  -0.68954  -0.65932
 Alpha  occ. eigenvalues --   -0.63322  -0.61267  -0.59703  -0.57420  -0.57138
 Alpha  occ. eigenvalues --   -0.56485  -0.55908  -0.54245  -0.51136  -0.48078
 Alpha  occ. eigenvalues --   -0.47484  -0.46126  -0.45380  -0.43858  -0.42913
 Alpha  occ. eigenvalues --   -0.42322  -0.42005  -0.41510  -0.40620  -0.39866
 Alpha  occ. eigenvalues --   -0.39432  -0.39095  -0.38130  -0.37758  -0.37107
 Alpha  occ. eigenvalues --   -0.36598  -0.35969  -0.35707  -0.35165  -0.34837
 Alpha  occ. eigenvalues --   -0.34267  -0.33630  -0.33256  -0.33034  -0.32460
 Alpha  occ. eigenvalues --   -0.32081  -0.31788  -0.31557  -0.31469  -0.31176
 Alpha  occ. eigenvalues --   -0.30608  -0.30238  -0.29997  -0.29212  -0.28482
 Alpha  occ. eigenvalues --   -0.22330  -0.21577  -0.19581  -0.19064  -0.18065
 Alpha  occ. eigenvalues --   -0.09658
 Alpha virt. eigenvalues --   -0.00255  -0.00028   0.00129   0.00641   0.00956
 Alpha virt. eigenvalues --    0.01059   0.01489   0.01780   0.01938   0.02217
 Alpha virt. eigenvalues --    0.02604   0.02812   0.03574   0.03761   0.04388

  Beta  occ. eigenvalues --  -19.00606 -19.00592 -10.16021 -10.15746 -10.15738
  Beta  occ. eigenvalues --  -10.15712 -10.15661 -10.15640 -10.15535 -10.15408
  Beta  occ. eigenvalues --  -10.15342 -10.14976 -10.14319 -10.14272 -10.14245
  Beta  occ. eigenvalues --  -10.13939 -10.13927 -10.13316 -10.12960 -10.12564
  Beta  occ. eigenvalues --  -10.12518 -10.11705 -10.11370  -0.93042  -0.92716
  Beta  occ. eigenvalues --   -0.81875  -0.80672  -0.79056  -0.77449  -0.75551
  Beta  occ. eigenvalues --   -0.72815  -0.71531  -0.71366  -0.68954  -0.65932
  Beta  occ. eigenvalues --   -0.63322  -0.61267  -0.59703  -0.57420  -0.57138
  Beta  occ. eigenvalues --   -0.56485  -0.55908  -0.54245  -0.51136  -0.48078
  Beta  occ. eigenvalues --   -0.47484  -0.46126  -0.45380  -0.43858  -0.42913
  Beta  occ. eigenvalues --   -0.42322  -0.42005  -0.41510  -0.40620  -0.39866
  Beta  occ. eigenvalues --   -0.39432  -0.39095  -0.38130  -0.37758  -0.37107
  Beta  occ. eigenvalues --   -0.36598  -0.35969  -0.35707  -0.35165  -0.34837
  Beta  occ. eigenvalues --   -0.34267  -0.33630  -0.33256  -0.33034  -0.32460
  Beta  occ. eigenvalues --   -0.32081  -0.31788  -0.31557  -0.31469  -0.31176
  Beta  occ. eigenvalues --   -0.30608  -0.30238  -0.29997  -0.29212  -0.28482
  Beta  occ. eigenvalues --   -0.22330  -0.21577  -0.19581  -0.19064  -0.18065
  Beta  occ. eigenvalues --   -0.09658
  Beta virt. eigenvalues --   -0.00255  -0.00028   0.00129   0.00641   0.00956
  Beta virt. eigenvalues --    0.01059   0.01489   0.01780   0.01938   0.02217
  Beta virt. eigenvalues --    0.02604   0.02812   0.03574   0.03761   0.04388

 Mulliken charges and spin densities:
               1          2
     1  C    0.092562   0.000000
     2  C   -0.486530   0.000000
     3  C   -0.472539  -0.000000
     4  C    0.235594   0.000000
     5  C   -0.137786   0.000000
     6  C   -0.008667  -0.000000
     7  C   -0.788554  -0.000000
     8  C    0.943110  -0.000000
     9  C    1.041388  -0.000000
    10  C   -1.001028   0.000000
    11  O   -0.686148   0.000000
    12  O   -0.661365  -0.000000
    13  H    0.147307   0.000000
    14  C   -0.441961   0.000000
    15  H    0.148008  -0.000000
    16  C   -0.573210  -0.000000
    17  C   -0.979987   0.000000
    18  C   -0.258235  -0.000000
    19  C   -0.062035  -0.000000
    20  H    0.143747  -0.000000
    21  H    0.140176  -0.000000
    22  H    0.180764  -0.000000
    23  H    0.160699   0.000000
    24  H    0.163694   0.000000
    25  H    0.134948  -0.000000
    26  H    0.143125  -0.000000
    27  H    0.118710   0.000000
    28  H    0.188782   0.000000
    29  H    0.114902   0.000000
    30  H    0.099218   0.000000
    31  H    0.125409   0.000000
    32  H    0.123639   0.000000
    33  C    0.075961  -0.000000
    34  C   -0.028360   0.000000
    35  C   -0.225035   0.000000
    36  C   -0.443290   0.000000
    37  C   -0.273826   0.000000
    38  C   -0.698760  -0.000000
    39  H    0.129285   0.000000
    40  H    0.127899   0.000000
    41  H    0.128793   0.000000
    42  H    0.130306  -0.000000
    43  H    0.125809   0.000000
    44  H    0.125479   0.000000
    45  H    0.123655   0.000000
    46  H    0.124394   0.000000
    47  H    0.131214  -0.000000
    48  H    0.130932   0.000000
    49  H    0.140335   0.000000
    50  H    0.147086  -0.000000
    51  H    0.140384   0.000000
 Sum of Mulliken charges =  -2.00000  -0.00000

 Dipole moment (field-independent basis, Debye):
    X=             37.2366    Y=             -1.2883    Z=             -0.5038  Tot=             37.2623
 Quadrupole moment (field-independent basis, Debye-Ang):
   XX=           -325.4671   YY=           -193.5206   ZZ=           -164.3054
   XY=             22.0144   XZ=             -8.2889   YZ=             13.0846

 Normal termination of Gaussian 16 at Sun Jan 21 09:03:22 2024.
