 Gaussian 16, Revision A.03,
 Gaussian 16:  ES64L-G16RevA.03 25-Dec-2016

 ----------------------------------------------------------------
 #P UB3LYP/6-311++G(d,p) SCRF=(PCM,Solvent=n,n-DiMethylFormamide)
 ----------------------------------------------------------------

 ------------------
 Quinone PCM in DMF
 ------------------
 Symbolic Z-matrix:
 Charge =  0 Multiplicity = 1

                         Standard orientation:
 ---------------------------------------------------------------------
 Center     Atomic      Atomic             Coordinates (Angstroms)
 Number     Number       Type             X           Y           Z
 ---------------------------------------------------------------------
      1          6           0        1.151493    0.827053   -0.943541
      2          6           0       -0.221248    1.465372   -0.830268
      3          6           0       -1.285936    0.639610   -0.761710
      4          6           0       -1.151323   -0.826319   -0.943837
      5          6           0        0.221432   -1.464782   -0.831101
      6          6           0        1.286159   -0.639050   -0.762639
      7          8           0        2.121174    1.521411   -1.174302
      8          8           0       -2.121023   -1.520438   -1.175233
      9         16           0        3.003789   -1.297203   -0.645867
     10          6           0        3.878933   -0.211618    0.495152
     11          6           0        4.757950    0.742824   -0.008634
     12          6           0        3.706969   -0.407231    1.864410
     13          6           0        4.422340    0.394756    2.750633
     14          6           0        5.477128    1.527308    0.888834
     15          6           0        5.305101    1.358040    2.262844
     16          8           0        3.611544   -1.191486   -1.972300
     17          8           0        2.892850   -2.599472    0.021586
     18          1           0        4.867192    0.861145   -1.078123
     19          1           0        3.046338   -1.185099    2.226297
     20          1           0        6.170375    2.271216    0.514336
     21          1           0        4.301795    0.255923    3.818617
     22          1           0        5.865664    1.974862    2.956110
     23         16           0       -3.003332    1.298110   -0.643789
     24          6           0       -3.879042    0.211137    0.495388
     25          6           0       -3.705951    0.403435    1.864967
     26          6           0       -4.759661   -0.740959   -0.010023
     27          6           0       -5.479288   -1.526543    0.886120
     28          6           0       -4.421816   -0.399621    2.749824
     29          6           0       -5.306145   -1.360643    2.260396
     30          1           0       -3.044080    1.179630    2.228197
     31          1           0       -4.869879   -0.856596   -1.079718
     32          1           0       -6.173767   -2.268670    0.510376
     33          1           0       -4.300413   -0.263382    3.818043
     34          1           0       -5.867081   -1.978302    2.952613
     35          8           0       -3.611167    1.194847   -1.970389
     36          8           0       -2.891762    2.599275    0.025759
     37          6           0       -0.221257    2.964718   -0.828577
     38          6           0        0.221323   -2.964149   -0.830232
     39          1           0        0.746246    3.323212   -1.174331
     40          1           0       -0.396250    3.338249    0.184373
     41          1           0       -1.019296    3.370067   -1.447569
     42          1           0       -0.747335   -3.322380   -1.172969
     43          1           0        0.400190   -3.338442    0.181727
     44          1           0        1.017097   -3.369078   -1.452493
 ---------------------------------------------------------------------

 SCF Done:  E(UB3LYP) =  -2019.71007145     A.U. after   16 cycles

 The electronic state is 1-A.
 Alpha  occ. eigenvalues --  -89.07641 -89.07640 -19.16324 -19.16323 -19.14197
 Alpha  occ. eigenvalues --  -19.14197 -19.13799 -19.13798 -10.31503 -10.31502
 Alpha  occ. eigenvalues --  -10.25734 -10.25733 -10.25189 -10.25188 -10.22748
 Alpha  occ. eigenvalues --  -10.22747 -10.20719 -10.20718 -10.20508 -10.20507
 Alpha  occ. eigenvalues --  -10.19923 -10.19922 -10.19735 -10.19734 -10.19669
 Alpha  occ. eigenvalues --  -10.19669 -10.18584 -10.18583  -8.13998  -8.13997
 Alpha  occ. eigenvalues --   -6.10257  -6.10257  -6.10195  -6.10194  -6.10100
 Alpha  occ. eigenvalues --   -6.10099  -1.13651  -1.13632  -1.10020  -1.09846
 Alpha  occ. eigenvalues --   -1.03257  -1.03253  -0.89767  -0.88989  -0.88962
 Alpha  occ. eigenvalues --   -0.85167  -0.79731  -0.79672  -0.77574  -0.77567
 Alpha  occ. eigenvalues --   -0.76261  -0.76039  -0.71709  -0.68674  -0.68310
 Alpha  occ. eigenvalues --   -0.65040  -0.63487  -0.63480  -0.61375  -0.60893
 Alpha  occ. eigenvalues --   -0.59515  -0.57273  -0.55632  -0.55616  -0.53054
 Alpha  occ. eigenvalues --   -0.52341  -0.50165  -0.49851  -0.49323  -0.49258
 Alpha  occ. eigenvalues --   -0.48878  -0.48538  -0.48082  -0.47027  -0.46851
 Alpha  occ. eigenvalues --   -0.46596  -0.46556  -0.45266  -0.44967  -0.44934
 Alpha  occ. eigenvalues --   -0.44529  -0.43440  -0.43306  -0.42282  -0.41731
 Alpha  occ. eigenvalues --   -0.40848  -0.39813  -0.39718  -0.39094  -0.39084
 Alpha  occ. eigenvalues --   -0.37281  -0.37279  -0.36558  -0.36409  -0.35593
 Alpha  occ. eigenvalues --   -0.35487  -0.33765  -0.33697  -0.32804  -0.32358
 Alpha  occ. eigenvalues --   -0.32319  -0.31919  -0.30898  -0.29392  -0.28513
 Alpha  occ. eigenvalues --   -0.28400  -0.28040  -0.27836
 Alpha virt. eigenvalues --   -0.15426  -0.07651  -0.05902  -0.05155  -0.03619
 Alpha virt. eigenvalues --   -0.03497  -0.02949  -0.01190  -0.00432   0.00240
 Alpha virt. eigenvalues --    0.00372   0.00989   0.01406   0.01732   0.02304

  Beta  occ. eigenvalues --  -89.07641 -89.07640 -19.16324 -19.16323 -19.14197
  Beta  occ. eigenvalues --  -19.14197 -19.13799 -19.13798 -10.31503 -10.31502
  Beta  occ. eigenvalues --  -10.25734 -10.25733 -10.25189 -10.25188 -10.22748
  Beta  occ. eigenvalues --  -10.22747 -10.20719 -10.20718 -10.20508 -10.20507
  Beta  occ. eigenvalues --  -10.19923 -10.19922 -10.19735 -10.19734 -10.19669
  Beta  occ. eigenvalues --  -10.19669 -10.18584 -10.18583  -8.13998  -8.13997
  Beta  occ. eigenvalues --   -6.10257  -6.10257  -6.10195  -6.10194  -6.10100
  Beta  occ. eigenvalues --   -6.10099  -1.13651  -1.13632  -1.10020  -1.09846
  Beta  occ. eigenvalues --   -1.03257  -1.03253  -0.89767  -0.88989  -0.88962
  Beta  occ. eigenvalues --   -0.85167  -0.79731  -0.79672  -0.77574  -0.77567
  Beta  occ. eigenvalues --   -0.76261  -0.76039  -0.71709  -0.68674  -0.68310
  Beta  occ. eigenvalues --   -0.65040  -0.63487  -0.63480  -0.61375  -0.60893
  Beta  occ. eigenvalues --   -0.59515  -0.57273  -0.55632  -0.55616  -0.53054
  Beta  occ. eigenvalues --   -0.52341  -0.50165  -0.49851  -0.49323  -0.49258
  Beta  occ. eigenvalues --   -0.48878  -0.48538  -0.48082  -0.47027  -0.46851
  Beta  occ. eigenvalues --   -0.46596  -0.46556  -0.45266  -0.44967  -0.44934
  Beta  occ. eigenvalues --   -0.44529  -0.43440  -0.43306  -0.42282  -0.41731
  Beta  occ. eigenvalues --   -0.40848  -0.39813  -0.39718  -0.39094  -0.39084
  Beta  occ. eigenvalues --   -0.37281  -0.37279  -0.36558  -0.36409  -0.35593
  Beta  occ. eigenvalues --   -0.35487  -0.33765  -0.33697  -0.32804  -0.32358
  Beta  occ. eigenvalues --   -0.32319  -0.31919  -0.30898  -0.29392  -0.28513
  Beta  occ. eigenvalues --   -0.28400  -0.28040  -0.27836
  Beta virt. eigenvalues --   -0.15426  -0.07651  -0.05902  -0.05155  -0.03619
  Beta virt. eigenvalues --   -0.03497  -0.02949  -0.01190  -0.00432   0.00240
  Beta virt. eigenvalues --    0.00372   0.00989   0.01406   0.01732   0.02304

 Mulliken charges and spin densities:
               1          2
     1  C   -0.989758   0.000000
     2  C    0.613272  -0.000000
     3  C    0.089230  -0.000000
     4  C   -0.990754   0.000000
     5  C    0.613139  -0.000000
     6  C    0.087913   0.000000
     7  O   -0.148018  -0.000000
     8  O   -0.147850   0.000000
     9  S    0.522328  -0.000000
    10  C    0.169512  -0.000000
    11  C   -0.208431  -0.000000
    12  C    0.158606   0.000000
    13  C   -0.509337   0.000000
    14  C   -0.406990   0.000000
    15  C   -0.276646  -0.000000
    16  O   -0.096373  -0.000000
    17  O   -0.137297   0.000000
    18  H    0.266971   0.000000
    19  H    0.255407   0.000000
    20  H    0.222924   0.000000
    21  H    0.220992   0.000000
    22  H    0.202988  -0.000000
    23  S    0.523360  -0.000000
    24  C    0.168531  -0.000000
    25  C    0.158331  -0.000000
    26  C   -0.208031   0.000000
    27  C   -0.406625  -0.000000
    28  C   -0.509355   0.000000
    29  C   -0.276792  -0.000000
    30  H    0.255492  -0.000000
    31  H    0.266884   0.000000
    32  H    0.222936   0.000000
    33  H    0.221014   0.000000
    34  H    0.202980  -0.000000
    35  O   -0.096103   0.000000
    36  O   -0.137385  -0.000000
    37  C   -0.613861   0.000000
    38  C   -0.613660   0.000000
    39  H    0.203283  -0.000000
    40  H    0.234060  -0.000000
    41  H    0.227977   0.000000
    42  H    0.203296   0.000000
    43  H    0.233962   0.000000
    44  H    0.227876  -0.000000
 Sum of Mulliken charges =  -0.00000  -0.00000

 Dipole moment (field-independent basis, Debye):
    X=             -0.0029    Y=             -0.0066    Z=              8.3070  Tot=              8.3070
 Quadrupole moment (field-independent basis, Debye-Ang):
   XX=           -177.2963   YY=           -184.2585   ZZ=           -170.3163
   XY=             37.5490   XZ=              0.0404   YZ=             -0.0206

 Normal termination of Gaussian 16 at Wed Jan 24 23:07:15 2024.
