 Q-Chem 5.4, Q-Chem, Inc., Pleasanton, CA (2021)
 Q-Chem 5.4.0 for Intel X86 EM64T Linux

User input:
--------------------------------------------------------------
$molecule
-3 2
C                  5.6384270000     -4.7109490000      0.8788730000
C                  6.6568300000     -4.6022080000     -0.0397470000
C                  6.5826620000     -3.6288670000     -1.0539250000
C                  4.5155590000     -3.8604560000      0.8229150000
C                  4.4238710000     -2.8613490000     -0.2054510000
C                  5.5035180000     -2.7674300000     -1.1562550000
C                  3.4950270000     -4.0920130000      1.8780310000
C                  2.3081490000     -3.2361640000      1.8690020000
C                  2.2163270000     -2.2372400000      0.8404670000
C                  3.2364280000     -2.0062880000     -0.2151980000
C                  1.2290780000     -3.3292650000      2.8205420000
C                  0.1501840000     -2.4674780000      2.7185260000
C                  0.0757410000     -1.4945230000      1.7040000000
C                  1.0937000000     -1.3864100000      0.7848130000
O                  3.6767030000     -4.9911920000      2.7248550000
O                  3.0545620000     -1.1073810000     -1.0622700000
S                  1.0476750000     -4.5146160000      4.2718610000
O                 -0.2746130000     -4.1155730000      4.8747830000
O                  2.1656790000     -4.2385090000      5.2104290000
O                  0.9849000000     -5.8901340000      3.7140780000
S                  5.6855700000     -1.5811160000     -2.6067080000
O                  7.0087650000     -1.9788340000     -3.2085160000
O                  4.5687470000     -1.8574800000     -3.5466160000
O                  5.7467510000     -0.2058850000     -2.0480620000
H                  5.6514160000     -5.4446280000      1.6767140000
H                  7.5211640000     -5.2629310000      0.0100960000
H                  7.3734030000     -3.5280560000     -1.7855730000
H                 -0.6400740000     -2.5676080000      3.4507910000
H                 -0.7883840000     -0.8335070000      1.6544230000
H                  1.0805350000     -0.6529820000     -0.0132550000
$end
$rem
MAX_SCF_CYCLES=200
BASIS  =  6-311++G(d,p)
GUI  =  2
JOB_TYPE  =  SP
METHOD  =  B3LYP
SOLVENT_METHOD = COSMO
$end
$solvent
dielectric 37.219
opticaldielectric 1.43
$end

--------------------------------------------------------------

             Standard Nuclear Orientation (Angstroms)
    I     Atom           X                Y                Z
 ----------------------------------------------------------------
    1      C      -0.8868383109    -2.6725568290     0.0003712500
    2      C      -2.2200405568    -3.0122669965    -0.0004967390
    3      C      -3.1992477494    -2.0010282395    -0.0007428086
    4      C      -0.4810336106    -1.3225107171     0.0008480039
    5      C      -1.4672725357    -0.2777664241     0.0003368101
    6      C      -2.8575796719    -0.6592534333    -0.0002943724
    7      C       0.9890514438    -1.1052033678     0.0020436778
    8      C       1.4672679125     0.2777450652     0.0010134667
    9      C       0.4810288493     1.3224924709     0.0007851091
   10      C      -0.9890564697     1.1051849703     0.0005131163
   11      C       2.8575746701     0.6592383646     0.0004026524
   12      C       3.1992397743     2.0010137968     0.0003185599
   13      C       2.2200341433     3.0122518559     0.0006604717
   14      C       0.8868317766     2.6725385518     0.0007479925
   15      O       1.7577639273    -2.0889310753     0.0029629845
   16      O      -1.7577722177     2.0889104673     0.0000080227
   17      S       4.3763140136    -0.4532902630    -0.0009165686
   18      O       5.5188557026     0.5294555254    -0.0031555599
   19      O       4.3475111360    -1.2390226389    -1.2614216014
   20      O       4.3510946416    -1.2373637163     1.2607114064
   21      S      -4.3763024261     0.4533016987    -0.0004234430
   22      O      -5.5188884464    -0.5293959093    -0.0001376499
   23      O      -4.3491535530     1.2384424695     1.2604947268
   24      O      -4.3494014611     1.2379787388    -1.2616320111
   25      H      -0.0977954946    -3.4158031767     0.0007600917
   26      H      -2.5256962205    -4.0575836494    -0.0009225754
   27      H      -4.2526372180    -2.2482394482    -0.0012206531
   28      H       4.2526300889     2.2482268321    -0.0002417358
   29      H       2.5256898666     4.0575683750     0.0006387748
   30      H       0.0977877521     3.4157827973     0.0007405956
 ----------------------------------------------------------------

   10   -1935.4893778116      7.02e-06  Convergence criterion met
 Total energy in the final basis set =    -1935.4893778116
    5   -1936.0050551717      4.53e-06  Convergence criterion met
 Total energy in the final basis set =    -1936.0050551717

                    Orbital Energies (a.u.)
 --------------------------------------------------------------

 Alpha MOs
 -- Occupied --
-89.0414 -89.0414 -19.0856 -19.0856 -19.0856 -19.0856 -19.0813 -19.0813
-19.0711 -19.0711 -10.2248 -10.2248 -10.1991 -10.1991 -10.1849 -10.1849
-10.1750 -10.1750 -10.1699 -10.1699 -10.1693 -10.1693 -10.1666 -10.1666
 -8.0997  -8.0997  -6.0624  -6.0624  -6.0623  -6.0623  -6.0614  -6.0614
 -1.1001  -1.1001  -1.0053  -1.0029  -0.9696  -0.9696  -0.9589  -0.9589
 -0.8601  -0.8511  -0.7829  -0.7562  -0.7549  -0.7376  -0.6690  -0.6459
 -0.6208  -0.6172  -0.5993  -0.5543  -0.5349  -0.5340  -0.5178  -0.4840
 -0.4747  -0.4660  -0.4600  -0.4511  -0.4504  -0.4478  -0.4476  -0.4410
 -0.4395  -0.4211  -0.4128  -0.4054  -0.4037  -0.3816  -0.3704  -0.3689
 -0.3665  -0.3568  -0.3438  -0.3427  -0.3312  -0.3304  -0.3263  -0.3247
 -0.3035  -0.2991  -0.2899  -0.2875  -0.2820  -0.2808  -0.2672  -0.2541
 -0.2527  -0.2505  -0.2475  -0.2474  -0.2374  -0.2318  -0.1390

 Beta MOs
 -- Occupied --
-89.0414 -89.0414 -19.0856 -19.0856 -19.0856 -19.0856 -19.0813 -19.0813
-19.0653 -19.0653 -10.2233 -10.2233 -10.1989 -10.1989 -10.1840 -10.1840
-10.1740 -10.1740 -10.1697 -10.1697 -10.1687 -10.1687 -10.1668 -10.1668
 -8.0997  -8.0997  -6.0624  -6.0624  -6.0623  -6.0623  -6.0615  -6.0615
 -1.1001  -1.1001  -0.9954  -0.9928  -0.9695  -0.9695  -0.9588  -0.9588
 -0.8575  -0.8500  -0.7789  -0.7539  -0.7537  -0.7356  -0.6617  -0.6448
 -0.6201  -0.6147  -0.5978  -0.5535  -0.5329  -0.5326  -0.5164  -0.4815
 -0.4743  -0.4650  -0.4588  -0.4508  -0.4494  -0.4476  -0.4475  -0.4406
 -0.4388  -0.4087  -0.4083  -0.4021  -0.4013  -0.3692  -0.3665  -0.3663
 -0.3581  -0.3551  -0.3424  -0.3343  -0.3308  -0.3271  -0.3261  -0.3245
 -0.3019  -0.2971  -0.2895  -0.2871  -0.2815  -0.2804  -0.2529  -0.2508
 -0.2499  -0.2445  -0.2421  -0.2405  -0.2324  -0.2267

          Ground-State Mulliken Net Atomic Charges

     Atom                 Charge (a.u.)    Spin (a.u.)
  --------------------------------------------------------
      1 C                    -0.236807       0.006529
      2 C                    -0.452403       0.051272
      3 C                     0.372352       0.015055
      4 C                     0.765215       0.047721
      5 C                     0.304480       0.069871
      6 C                    -1.034498       0.029250
      7 C                    -0.823847       0.063714
      8 C                     0.304589       0.069839
      9 C                     0.765646       0.047686
     10 C                    -0.823836       0.063717
     11 C                    -1.034701       0.029242
     12 C                     0.372279       0.015044
     13 C                    -0.452939       0.051255
     14 C                    -0.236278       0.006521
     15 O                    -0.393165       0.215723
     16 O                    -0.393160       0.215732
     17 S                     0.698528       0.006319
     18 O                    -0.457823       0.000635
     19 O                    -0.440050      -0.000170
     20 O                    -0.439776      -0.000155
     21 S                     0.698546       0.006318
     22 O                    -0.457784       0.000635
     23 O                    -0.439827      -0.000162
     24 O                    -0.439865      -0.000162
     25 H                     0.170904      -0.000618
     26 H                     0.219156      -0.003593
     27 H                     0.247503      -0.001504
     28 H                     0.247493      -0.001503
     29 H                     0.219107      -0.003592
     30 H                     0.170962      -0.000619
  --------------------------------------------------------
  Sum of atomic charges =    -3.000000

                    Cartesian Multipole Moments
 -----------------------------------------------------------------
    Charge (ESU x 10^10)
               -14.4096
    Dipole Moment (Debye)
         X       0.0001      Y       0.0010      Z       0.0043
       Tot       0.0044
    Quadrupole Moments (Debye-Ang)
        XX    -433.8802     XY      53.6080     YY    -184.9010
        XZ       0.0088     YZ       0.0174     ZZ    -179.5324

 Total job time:  156.03s(wall), 1166.19s(cpu)
        *  Thank you very much for using Q-Chem.  Have a nice day.  *
