 Gaussian 16, Revision A.03,
 Gaussian 16:  ES64L-G16RevA.03 25-Dec-2016

 ----------------------------------------------------------------
 #P UB3LYP/6-311++G(d,p) SCRF=(PCM,Solvent=n,n-DiMethylFormamide)
 ----------------------------------------------------------------

 -------
 Reduced
 -------
 Symbolic Z-matrix:
 Charge = -2 Multiplicity = 1

                         Standard orientation:
 ---------------------------------------------------------------------
 Center     Atomic      Atomic             Coordinates (Angstroms)
 Number     Number       Type             X           Y           Z
 ---------------------------------------------------------------------
      1         17           0       -3.999304   -1.262482    0.000120
      2          6           0       -2.868929    0.138973   -0.000042
      3          6           0       -3.510911    1.356991   -0.000076
      4          6           0       -2.743942    2.551602   -0.000091
      5          6           0       -1.372174    2.464832    0.000001
      6          6           0       -0.686367    1.225780    0.000033
      7          6           0        0.767396    1.302785    0.000079
      8          8           0        1.362477    2.435970    0.000232
      9          6           0        1.449592    0.025583    0.000021
     10          6           0        2.868957   -0.138988    0.000042
     11         17           0        3.999841    1.262059   -0.000117
     12          6           0        3.510777   -1.357066    0.000094
     13          6           0        2.743700   -2.551601    0.000112
     14          6           0        1.371962   -2.464692    0.000002
     15          6           0        0.686245   -1.225591   -0.000051
     16          6           0       -0.767506   -1.302564   -0.000115
     17          8           0       -1.362902   -2.435579   -0.000225
     18          6           0       -1.449625   -0.025360   -0.000040
     19          1           0       -4.594700    1.388247   -0.000048
     20          1           0       -3.246795    3.516270   -0.000151
     21          1           0       -0.741298    3.347136   -0.000002
     22          1           0        4.594565   -1.388430    0.000080
     23          1           0        3.246447   -3.516322    0.000188
     24          1           0        0.741008   -3.346940    0.000005
 ---------------------------------------------------------------------

 SCF Done:  E(UB3LYP) =  -1608.42016303     A.U. after   17 cycles

 The electronic state is 1-A.
 Alpha  occ. eigenvalues -- -101.52991-101.52989 -19.01901 -19.01900 -10.21639
 Alpha  occ. eigenvalues --  -10.21638 -10.18393 -10.18392 -10.15910 -10.15910
 Alpha  occ. eigenvalues --  -10.15685 -10.15682 -10.15511 -10.15510 -10.14843
 Alpha  occ. eigenvalues --  -10.14843 -10.14559 -10.14558  -9.44460  -9.44459
 Alpha  occ. eigenvalues --   -7.20890  -7.20888  -7.19993  -7.19992  -7.19894
 Alpha  occ. eigenvalues --   -7.19892  -0.94606  -0.94236  -0.85944  -0.85915
 Alpha  occ. eigenvalues --   -0.81253  -0.80383  -0.75951  -0.71764  -0.71568
 Alpha  occ. eigenvalues --   -0.71106  -0.64304  -0.61425  -0.60237  -0.55359
 Alpha  occ. eigenvalues --   -0.52182  -0.52160  -0.49821  -0.45401  -0.44575
 Alpha  occ. eigenvalues --   -0.44122  -0.43631  -0.40823  -0.40657  -0.39503
 Alpha  occ. eigenvalues --   -0.39223  -0.37573  -0.37487  -0.37084  -0.35841
 Alpha  occ. eigenvalues --   -0.33506  -0.33501  -0.33389  -0.32930  -0.31562
 Alpha  occ. eigenvalues --   -0.30316  -0.30207  -0.29615  -0.29561  -0.23475
 Alpha  occ. eigenvalues --   -0.22676  -0.22571  -0.22498  -0.19901  -0.19072
 Alpha  occ. eigenvalues --   -0.10919
 Alpha virt. eigenvalues --   -0.03414  -0.00798   0.00229   0.00790   0.01179
 Alpha virt. eigenvalues --    0.01261   0.01465   0.02641   0.02901   0.03860
 Alpha virt. eigenvalues --    0.04825   0.04893   0.05383   0.05857   0.06051

  Beta  occ. eigenvalues -- -101.52991-101.52989 -19.01901 -19.01900 -10.21639
  Beta  occ. eigenvalues --  -10.21638 -10.18393 -10.18392 -10.15910 -10.15910
  Beta  occ. eigenvalues --  -10.15685 -10.15682 -10.15511 -10.15510 -10.14843
  Beta  occ. eigenvalues --  -10.14843 -10.14559 -10.14558  -9.44460  -9.44459
  Beta  occ. eigenvalues --   -7.20890  -7.20888  -7.19993  -7.19992  -7.19894
  Beta  occ. eigenvalues --   -7.19892  -0.94606  -0.94236  -0.85944  -0.85915
  Beta  occ. eigenvalues --   -0.81253  -0.80383  -0.75951  -0.71764  -0.71568
  Beta  occ. eigenvalues --   -0.71106  -0.64304  -0.61425  -0.60237  -0.55359
  Beta  occ. eigenvalues --   -0.52182  -0.52160  -0.49821  -0.45401  -0.44575
  Beta  occ. eigenvalues --   -0.44122  -0.43631  -0.40823  -0.40657  -0.39503
  Beta  occ. eigenvalues --   -0.39223  -0.37573  -0.37487  -0.37084  -0.35841
  Beta  occ. eigenvalues --   -0.33506  -0.33501  -0.33389  -0.32930  -0.31562
  Beta  occ. eigenvalues --   -0.30316  -0.30207  -0.29615  -0.29561  -0.23475
  Beta  occ. eigenvalues --   -0.22676  -0.22571  -0.22498  -0.19901  -0.19072
  Beta  occ. eigenvalues --   -0.10919
  Beta virt. eigenvalues --   -0.03414  -0.00798   0.00229   0.00790   0.01179
  Beta virt. eigenvalues --    0.01261   0.01465   0.02641   0.02901   0.03860
  Beta virt. eigenvalues --    0.04825   0.04893   0.05383   0.05857   0.06051

 Mulliken charges and spin densities:
               1          2
     1  Cl   0.302871  -0.000000
     2  C    0.800054   0.000000
     3  C   -0.195285  -0.000000
     4  C   -0.657928  -0.000000
     5  C    0.358074   0.000000
     6  C    0.223512   0.000000
     7  C   -1.755241   0.000000
     8  O   -0.520842  -0.000000
     9  C   -0.059991   0.000000
    10  C    0.800116  -0.000000
    11  Cl   0.303048   0.000000
    12  C   -0.195244   0.000000
    13  C   -0.658242   0.000000
    14  C    0.358423  -0.000000
    15  C    0.224177  -0.000000
    16  C   -1.755122  -0.000000
    17  O   -0.520667   0.000000
    18  C   -0.059669  -0.000000
    19  H    0.178438   0.000000
    20  H    0.163705   0.000000
    21  H    0.161832   0.000000
    22  H    0.178459   0.000000
    23  H    0.163694   0.000000
    24  H    0.161827  -0.000000
 Sum of Mulliken charges =  -2.00000  -0.00000

 Dipole moment (field-independent basis, Debye):
    X=             -0.0002    Y=             -0.0017    Z=              0.0000  Tot=              0.0017
 Quadrupole moment (field-independent basis, Debye-Ang):
   XX=           -171.4034   YY=           -167.3445   ZZ=           -129.1460
   XY=            -27.9978   XZ=             -0.0013   YZ=             -0.0041

 Normal termination of Gaussian 16 at Sun Jan 14 01:25:21 2024.
