 Q-Chem 5.4, Q-Chem, Inc., Pleasanton, CA (2021)
 Q-Chem 5.4.0 for Intel X86 EM64T Linux

User input:
--------------------------------------------------------------
$molecule
0 1
Cl                 2.5930850000      3.1395560000     -0.6929400000
C                  2.4787410000      1.4434990000     -0.2834950000
C                  3.6819550000      0.7406150000     -0.2534130000
C                  3.6953370000     -0.6163910000      0.0488610000
C                  2.5050040000     -1.2824320000      0.3077360000
C                  1.2949150000     -0.5911970000      0.2585680000
C                  0.0505030000     -1.3903560000      0.5265690000
O                  0.1449480000     -2.5124840000      0.9856430000
C                 -1.2607740000     -0.7593900000      0.2005790000
C                 -2.4753170000     -1.4702840000      0.1353840000
Cl                -2.5851920000     -3.2030940000      0.3418910000
C                 -3.6733250000     -0.8107170000     -0.1336450000
C                 -3.6891570000      0.5660490000     -0.3267440000
C                 -2.5058100000      1.2897290000     -0.2673940000
C                 -1.3000180000      0.6344080000     -0.0200650000
C                 -0.0619690000      1.4863480000      0.0035860000
O                 -0.1672230000      2.6974260000      0.0360340000
C                  1.2570940000      0.7912370000     -0.0248940000
H                  4.6021630000      1.2690710000     -0.4669040000
H                  4.6382960000     -1.1499220000      0.0757740000
H                  2.4869150000     -2.3377720000      0.5458440000
H                 -4.5876640000     -1.3875400000     -0.1871900000
H                 -4.6283190000      1.0679160000     -0.5283810000
H                 -2.4897820000      2.3617310000     -0.4134110000
$end

$rem
BASIS  =  6-311++G(d,p)
GUI  =  2
JOB_TYPE  =  SP
METHOD  =  B3LYP
SCF_CONVERGENCE  = 8
SOLVENT_METHOD = sm12
$end

$smx
solvent dimethylformamide
charges CM5
$end

--------------------------------------------------------------

             Standard Nuclear Orientation (Angstroms)
    I     Atom           X                Y                Z
 ----------------------------------------------------------------
    1      Cl      2.5930850000     3.1395560000    -0.6929400000
    2      C       2.4787410000     1.4434990000    -0.2834950000
    3      C       3.6819550000     0.7406150000    -0.2534130000
    4      C       3.6953370000    -0.6163910000     0.0488610000
    5      C       2.5050040000    -1.2824320000     0.3077360000
    6      C       1.2949150000    -0.5911970000     0.2585680000
    7      C       0.0505030000    -1.3903560000     0.5265690000
    8      O       0.1449480000    -2.5124840000     0.9856430000
    9      C      -1.2607740000    -0.7593900000     0.2005790000
   10      C      -2.4753170000    -1.4702840000     0.1353840000
   11      Cl     -2.5851920000    -3.2030940000     0.3418910000
   12      C      -3.6733250000    -0.8107170000    -0.1336450000
   13      C      -3.6891570000     0.5660490000    -0.3267440000
   14      C      -2.5058100000     1.2897290000    -0.2673940000
   15      C      -1.3000180000     0.6344080000    -0.0200650000
   16      C      -0.0619690000     1.4863480000     0.0035860000
   17      O      -0.1672230000     2.6974260000     0.0360340000
   18      C       1.2570940000     0.7912370000    -0.0248940000
   19      H       4.6021630000     1.2690710000    -0.4669040000
   20      H       4.6382960000    -1.1499220000     0.0757740000
   21      H       2.4869150000    -2.3377720000     0.5458440000
   22      H      -4.5876640000    -1.3875400000    -0.1871900000
   23      H      -4.6283190000     1.0679160000    -0.5283810000
   24      H      -2.4897820000     2.3617310000    -0.4134110000
 ----------------------------------------------------------------

   14   -1608.1738743629      8.75e-09  Convergence criterion met
 Total energy in the final basis set =    -1608.1957064111

                    Orbital Energies (a.u.)
 --------------------------------------------------------------

 Alpha MOs
 -- Occupied --
********-101.5634 -19.1341 -19.1340 -10.2905 -10.2905 -10.2665 -10.2665
-10.2259 -10.2259 -10.2199 -10.2199 -10.2086 -10.2085 -10.2064 -10.2064
-10.2021 -10.2021  -9.4784  -9.4784  -7.2431  -7.2430  -7.2335  -7.2335
 -7.2324  -7.2324  -1.0731  -1.0713  -0.9189  -0.9150  -0.8696  -0.8580
 -0.8212  -0.7836  -0.7690  -0.7621  -0.6957  -0.6761  -0.6573  -0.6143
 -0.5835  -0.5765  -0.5610  -0.5145  -0.5019  -0.4999  -0.4979  -0.4676
 -0.4634  -0.4605  -0.4587  -0.4555  -0.4480  -0.4286  -0.4163  -0.4067
 -0.3955  -0.3926  -0.3883  -0.3824  -0.3518  -0.3494  -0.3354  -0.3300
 -0.2981  -0.2887  -0.2839  -0.2710  -0.2704  -0.2682

          Ground-State Mulliken Net Atomic Charges

     Atom                 Charge (a.u.)
  ----------------------------------------
      1 Cl                    0.369087
      2 C                     0.519449
      3 C                     0.438099
      4 C                     0.099869
      5 C                     0.766009
      6 C                     0.053497
      7 C                    -2.789210
      8 O                    -0.162184
      9 C                    -0.149021
     10 C                     0.523284
     11 Cl                    0.368320
     12 C                     0.437526
     13 C                     0.100514
     14 C                     0.758515
     15 C                     0.049978
     16 C                    -2.785685
     17 O                    -0.162348
     18 C                    -0.155799
     19 H                     0.285397
     20 H                     0.367676
     21 H                     0.206923
     22 H                     0.285652
     23 H                     0.367634
     24 H                     0.206819
  ----------------------------------------
  Sum of atomic charges =     0.000000

                    Cartesian Multipole Moments
 -----------------------------------------------------------------
    Charge (ESU x 10^10)
                 0.0000
    Dipole Moment (Debye)
         X       0.0271      Y      -0.2326      Z      -1.2775
       Tot       1.2987
    Quadrupole Moments (Debye-Ang)
        XX     -84.0037     XY      -7.9399     YY    -132.7670
        XZ       2.1952     YZ       2.3713     ZZ    -119.0688

 Total job time:  473.68s(wall), 3673.32s(cpu)
        *  Thank you very much for using Q-Chem.  Have a nice day.  *
