 Gaussian 16, Revision A.03,
 Gaussian 16:  ES64L-G16RevA.03 25-Dec-2016

 ----------------------------------------------------------------------
 #P UB3LYP/6-311++G(d,p) nosym opt freq SCRF=(PCM,Solvent=n,n-DiMethylF
 ormamide)
 ----------------------------------------------------------------------

 --------
 Oxidized
 --------
 Symbolic Z-matrix:
 Charge =  0 Multiplicity = 1

 SCF Done:  E(UB3LYP) =  -610.692500097     A.U. after   16 cycles
 SCF Done:  E(UB3LYP) =  -610.692658040     A.U. after   12 cycles
 SCF Done:  E(UB3LYP) =  -610.692688666     A.U. after   12 cycles
 SCF Done:  E(UB3LYP) =  -610.692658924     A.U. after   11 cycles
 SCF Done:  E(UB3LYP) =  -610.692724791     A.U. after   11 cycles
 SCF Done:  E(UB3LYP) =  -610.692727778     A.U. after   10 cycles
 SCF Done:  E(UB3LYP) =  -610.692728776     A.U. after   10 cycles
 SCF Done:  E(UB3LYP) =  -610.692729016     A.U. after   10 cycles
 SCF Done:  E(UB3LYP) =  -610.692729087     A.U. after   10 cycles
 Optimization completed.
    -- Stationary point found.
 Normal termination of Gaussian 16 at Sat Feb 10 10:46:38 2024.

 ----------------------------------------------------------------------
 #P Geom=AllCheck Guess=TCheck SCRF=Check GenChk UB3LYP/6-311++G(d,p) F
 req
 ----------------------------------------------------------------------

 Structure from the checkpoint file:  "085.chk"
 --------
 Oxidized
 --------
 Charge =  0 Multiplicity = 1

                          Input orientation:
 ---------------------------------------------------------------------
 Center     Atomic      Atomic             Coordinates (Angstroms)
 Number     Number       Type             X           Y           Z
 ---------------------------------------------------------------------
      1          6           0       -3.579808    0.693236   -0.160408
      2          8           0       -2.786842   -0.501330   -0.034987
      3          6           0       -1.468636   -0.384774    0.066095
      4          6           0       -0.756696    0.766631    0.071001
      5          6           0        0.691283    0.772195    0.210128
      6          8           0        1.324530    1.817917    0.292113
      7          6           0        1.399206   -0.570531    0.271755
      8          6           0        0.673053   -1.715813    0.286135
      9          6           0       -0.771566   -1.726515    0.187160
     10          8           0       -1.427369   -2.761584    0.187494
     11          8           0        2.724263   -0.673470    0.377323
     12          6           0        3.664859    0.396417    0.113760
     13          1           0       -4.609226    0.352640   -0.230157
     14          1           0       -3.302313    1.239714   -1.064152
     15          1           0       -3.452423    1.327328    0.719349
     16          1           0       -1.218454    1.741948    0.001517
     17          1           0        1.168684   -2.676163    0.356725
     18          1           0        3.446808    0.880503   -0.836564
     19          1           0        3.651947    1.127844    0.918355
     20          1           0        4.628698   -0.106193    0.069151
 ---------------------------------------------------------------------

 SCF Done:  E(UB3LYP) =  -610.692729087     A.U. after    1 cycles

 Alpha  occ. eigenvalues --  -19.19379 -19.18668 -19.13995 -19.13485 -10.29356
 Alpha  occ. eigenvalues --  -10.28661 -10.28034 -10.27833 -10.23685 -10.23085
 Alpha  occ. eigenvalues --  -10.19603 -10.19248  -1.11379  -1.10363  -1.06714
 Alpha  occ. eigenvalues --   -1.06148  -0.86048  -0.79771  -0.75097  -0.73206
 Alpha  occ. eigenvalues --   -0.68160  -0.63425  -0.60599  -0.55519  -0.54708
 Alpha  occ. eigenvalues --   -0.53431  -0.49977  -0.48885  -0.48083  -0.47353
 Alpha  occ. eigenvalues --   -0.45663  -0.45396  -0.44133  -0.43809  -0.41929
 Alpha  occ. eigenvalues --   -0.41444  -0.38305  -0.37439  -0.36810  -0.36264
 Alpha  occ. eigenvalues --   -0.28849  -0.28466  -0.28249  -0.25675
 Alpha virt. eigenvalues --   -0.12841  -0.01597  -0.00648   0.00067   0.00304
 Alpha virt. eigenvalues --    0.01054   0.02277   0.02367   0.03201   0.03655
 Alpha virt. eigenvalues --    0.04181   0.04422   0.05342   0.06517   0.06656

  Beta  occ. eigenvalues --  -19.19379 -19.18668 -19.13995 -19.13485 -10.29356
  Beta  occ. eigenvalues --  -10.28661 -10.28034 -10.27833 -10.23685 -10.23085
  Beta  occ. eigenvalues --  -10.19603 -10.19248  -1.11379  -1.10363  -1.06714
  Beta  occ. eigenvalues --   -1.06148  -0.86048  -0.79771  -0.75097  -0.73206
  Beta  occ. eigenvalues --   -0.68160  -0.63425  -0.60599  -0.55519  -0.54708
  Beta  occ. eigenvalues --   -0.53431  -0.49977  -0.48885  -0.48083  -0.47353
  Beta  occ. eigenvalues --   -0.45663  -0.45396  -0.44133  -0.43809  -0.41929
  Beta  occ. eigenvalues --   -0.41444  -0.38305  -0.37439  -0.36810  -0.36264
  Beta  occ. eigenvalues --   -0.28849  -0.28466  -0.28249  -0.25675
  Beta virt. eigenvalues --   -0.12841  -0.01597  -0.00648   0.00067   0.00304
  Beta virt. eigenvalues --    0.01054   0.02277   0.02367   0.03201   0.03655
  Beta virt. eigenvalues --    0.04181   0.04422   0.05342   0.06517   0.06656

 Mulliken charges and spin densities:
               1          2
     1  C   -0.302083   0.000000
     2  O   -0.152711   0.000000
     3  C   -0.242168  -0.000000
     4  C    0.861585   0.000000
     5  C   -0.499169  -0.000000
     6  O   -0.288228   0.000000
     7  C    0.118927   0.000000
     8  C    0.254830   0.000000
     9  C   -0.561442   0.000000
    10  O   -0.331564   0.000000
    11  O   -0.203856  -0.000000
    12  C   -0.282708  -0.000000
    13  H    0.212852   0.000000
    14  H    0.181515  -0.000000
    15  H    0.180778  -0.000000
    16  H    0.254189   0.000000
    17  H    0.242123   0.000000
    18  H    0.180685   0.000000
    19  H    0.195631  -0.000000
    20  H    0.180814   0.000000
 Sum of Mulliken charges =  -0.00000  -0.00000

 Dipole moment (field-independent basis, Debye):
    X=              0.2941    Y=              4.0873    Z=             -0.8795  Tot=              4.1912
 Quadrupole moment (field-independent basis, Debye-Ang):
   XX=            -53.1270   YY=            -86.0369   ZZ=            -68.9729
   XY=            -14.2834   XZ=             -0.1161   YZ=             -0.1981

  Exact polarizability: 207.486  50.254 177.248   5.959  -0.147  84.378
 Approx polarizability: 239.149  89.629 229.331   7.160   1.765  96.445

                      1                      2                      3
                      A                      A                      A
 Frequencies --     25.1043                61.4559               119.4338
 Red. masses --      3.7280                 5.0568                 4.4743
 Frc consts  --      0.0014                 0.0113                 0.0376
 IR Inten    --     16.9684                 3.2168                 1.0943

                      4                      5                      6
                      A                      A                      A
 Frequencies --    145.1669               163.0022               189.7153
 Red. masses --      3.0558                 3.6761                 3.3864
 Frc consts  --      0.0379                 0.0575                 0.0718
 IR Inten    --      1.2745                14.7227                 2.9763

                      7                      8                      9
                      A                      A                      A
 Frequencies --    219.1974               221.5354               261.4376
 Red. masses --      1.1442                 1.3214                 4.4773
 Frc consts  --      0.0324                 0.0382                 0.1803
 IR Inten    --      1.2021                 1.1548                 5.9265

                     10                     11                     12
                      A                      A                      A
 Frequencies --    324.8621               373.0108               385.3905
 Red. masses --      6.7941                 4.7049                10.8956
 Frc consts  --      0.4225                 0.3857                 0.9535
 IR Inten    --      5.7203                11.3533                24.8140

                     13                     14                     15
                      A                      A                      A
 Frequencies --    433.3407               458.2392               487.1736
 Red. masses --      3.4794                 7.4994                 6.6609
 Frc consts  --      0.3850                 0.9278                 0.9314
 IR Inten    --      1.8611                 3.7750                 0.9395

                     16                     17                     18
                      A                      A                      A
 Frequencies --    510.7064               649.9751               669.5232
 Red. masses --      7.2473                 6.6024                 6.1146
 Frc consts  --      1.1137                 1.6434                 1.6149
 IR Inten    --      4.6557                 2.9090                11.4858

                     19                     20                     21
                      A                      A                      A
 Frequencies --    737.6551               751.8988               770.1376
 Red. masses --      5.1962                 3.8946                 5.9114
 Frc consts  --      1.6659                 1.2973                 2.0657
 IR Inten    --     23.0060                18.1364                 3.8899

                     22                     23                     24
                      A                      A                      A
 Frequencies --    827.9289               839.3589               866.3635
 Red. masses --      1.6197                 3.2485                 1.5134
 Frc consts  --      0.6541                 1.3484                 0.6693
 IR Inten    --     10.3545                23.7642               122.7038

                     25                     26                     27
                      A                      A                      A
 Frequencies --    965.2155              1011.0610              1158.3939
 Red. masses --      6.8640                 6.1111                 1.2548
 Frc consts  --      3.7677                 3.6806                 0.9921
 IR Inten    --     85.3587                65.6036                 6.3407

                     28                     29                     30
                      A                      A                      A
 Frequencies --   1165.0693              1168.4363              1191.8545
 Red. masses --      1.2785                 1.9284                 1.6052
 Frc consts  --      1.0225                 1.5512                 1.3435
 IR Inten    --      3.3073               449.2922               141.2282

                     31                     32                     33
                      A                      A                      A
 Frequencies --   1210.5427              1217.8395              1280.0234
 Red. masses --      1.6580                 1.9943                 5.0076
 Frc consts  --      1.4315                 1.7427                 4.8341
 IR Inten    --    347.4579               597.1635                19.7958

                     34                     35                     36
                      A                      A                      A
 Frequencies --   1306.6925              1356.6934              1377.9911
 Red. masses --      2.4474                 3.5088                 3.3842
 Frc consts  --      2.4621                 3.8052                 3.7861
 IR Inten    --     81.1760               225.5144               172.1276

                     37                     38                     39
                      A                      A                      A
 Frequencies --   1471.7973              1473.7322              1480.9293
 Red. masses --      1.2123                 1.1125                 1.0490
 Frc consts  --      1.5472                 1.4235                 1.3555
 IR Inten    --     31.5055                14.0961                29.6429

                     40                     41                     42
                      A                      A                      A
 Frequencies --   1483.6793              1486.7501              1488.6494
 Red. masses --      1.0434                 1.1914                 1.0512
 Frc consts  --      1.3532                 1.5516                 1.3726
 IR Inten    --     18.8159                33.4502                20.7026

                     43                     44                     45
                      A                      A                      A
 Frequencies --   1606.4078              1649.5734              1684.2199
 Red. masses --      7.1127                 7.8486                11.9711
 Frc consts  --     10.8142                12.5830                20.0070
 IR Inten    --   1720.8466                47.6314               749.1924

                     46                     47                     48
                      A                      A                      A
 Frequencies --   1686.3636              3038.0555              3064.9831
 Red. masses --     10.8487                 1.0318                 1.0274
 Frc consts  --     18.1774                 5.6111                 5.6866
 IR Inten    --     45.8292                32.6457                53.6890

                     49                     50                     51
                      A                      A                      A
 Frequencies --   3112.3385              3153.5188              3159.2857
 Red. masses --      1.1081                 1.1084                 1.1087
 Frc consts  --      6.3242                 6.4944                 6.5200
 IR Inten    --     25.9223                26.3259                21.1696

                     52                     53                     54
                      A                      A                      A
 Frequencies --   3166.0230              3197.3359              3212.6206
 Red. masses --      1.1035                 1.0919                 1.0916
 Frc consts  --      6.5168                 6.5768                 6.6381
 IR Inten    --     15.1624                 0.7347                 0.7311

 - Thermochemistry -
 -------------------
 Temperature   298.150 Kelvin.  Pressure   1.00000 Atm.
 Atom     1 has atomic number  6 and mass  12.00000

 Molecular mass:   168.04226 amu.
 Principal axes and moments of inertia in atomic units:
                           1         2         3
     Eigenvalues --  1001.063802869.747413838.18202
           X            0.98952  -0.13331  -0.05556
           Y            0.13556   0.99000   0.03896
           Z            0.04981  -0.04608   0.99769
 This molecule is an asymmetric top.
 Rotational symmetry number  1.
 Warning -- assumption of classical behavior for rotation
           may cause significant error
 Rotational temperatures (Kelvin)      0.08652     0.03018     0.02257
 Rotational constants (GHZ):           1.80282     0.62889     0.47021
 Zero-point vibrational energy     391882.8 (Joules/Mol)
                                   93.66224 (Kcal/Mol)
 Warning -- explicit consideration of  16 degrees of freedom as
           vibrations may cause significant error
 Vibrational temperatures:     36.12    88.42   171.84   208.86   234.52
          (Kelvin)            272.96   315.38   318.74   376.15   467.40
                              536.68   554.49   623.48   659.30   700.93
                              734.79   935.17   963.29  1061.32  1081.81
                             1108.06  1191.21  1207.65  1246.50  1388.73
                             1454.69  1666.67  1676.27  1681.12  1714.81
                             1741.70  1752.20  1841.67  1880.04  1951.98
                             1982.62  2117.59  2120.37  2130.73  2134.68
                             2139.10  2141.83  2311.26  2373.37  2423.22
                             2426.30  4371.08  4409.83  4477.96  4537.21
                             4545.51  4555.20  4600.25  4622.24

 Zero-point correction=                           0.149260 (Hartree/Particle)
 Thermal correction to Energy=                    0.160911
 Thermal correction to Enthalpy=                  0.161855
 Thermal correction to Gibbs Free Energy=         0.110660
 Sum of electronic and zero-point Energies=           -610.543469
 Sum of electronic and thermal Energies=              -610.531818
 Sum of electronic and thermal Enthalpies=            -610.530874
 Sum of electronic and thermal Free Energies=         -610.582069

                     E (Thermal)             CV                S
                      KCal/Mol        Cal/Mol-Kelvin    Cal/Mol-Kelvin
 Total                  100.973             41.783            107.749
 Electronic               0.000              0.000              0.000
 Translational            0.889              2.981             41.265
 Rotational               0.889              2.981             30.779
 Vibrational             99.196             35.821             35.706
 Vibration     1          0.593              1.985              6.183
 Vibration     2          0.597              1.973              4.410
 Vibration     3          0.609              1.933              3.110
 Vibration     4          0.617              1.908              2.735
 Vibration     5          0.623              1.888              2.515
 Vibration     6          0.633              1.854              2.231
 Vibration     7          0.647              1.812              1.966
 Vibration     8          0.648              1.808              1.947
 Vibration     9          0.669              1.743              1.652
 Vibration    10          0.709              1.626              1.286
 Vibration    11          0.744              1.528              1.067
 Vibration    12          0.754              1.501              1.018
 Vibration    13          0.794              1.398              0.848
 Vibration    14          0.816              1.343              0.771
 Vibration    15          0.843              1.278              0.691
 Vibration    16          0.866              1.226              0.632

                           ! Non-Optimized Parameters !
 Normal termination of Gaussian 16 at Sat Feb 10 11:01:23 2024.
