 Gaussian 16, Revision A.03,
 Gaussian 16:  ES64L-G16RevA.03 25-Dec-2016

 ----------------------------------------------------------------------
 #P UB3LYP/6-311++G(d,p) nosym opt freq SCRF=(PCM,Solvent=n,n-DiMethylF
 ormamide)
 ----------------------------------------------------------------------

 -------
 Reduced
 -------
 Symbolic Z-matrix:
 Charge = -3 Multiplicity = 1

 SCF Done:  E(UB3LYP) =  -3941.57139364     A.U. after   19 cycles
 SCF Done:  E(UB3LYP) =  -3941.57364859     A.U. after   15 cycles
 SCF Done:  E(UB3LYP) =  -3941.57340548     A.U. after   15 cycles
 SCF Done:  E(UB3LYP) =  -3941.57438233     A.U. after   13 cycles
 SCF Done:  E(UB3LYP) =  -3941.57437085     A.U. after   14 cycles
 SCF Done:  E(UB3LYP) =  -3941.57455372     A.U. after   12 cycles
 SCF Done:  E(UB3LYP) =  -3941.57457111     A.U. after   12 cycles
 SCF Done:  E(UB3LYP) =  -3941.57459987     A.U. after   12 cycles
 SCF Done:  E(UB3LYP) =  -3941.57461501     A.U. after   12 cycles
 SCF Done:  E(UB3LYP) =  -3941.56997552     A.U. after   17 cycles
 SCF Done:  E(UB3LYP) =  -3941.57462076     A.U. after   12 cycles
 SCF Done:  E(UB3LYP) =  -3941.57459794     A.U. after   14 cycles
 SCF Done:  E(UB3LYP) =  -3941.57463213     A.U. after   13 cycles
 SCF Done:  E(UB3LYP) =  -3941.57463438     A.U. after   11 cycles
 SCF Done:  E(UB3LYP) =  -3941.57463480     A.U. after   10 cycles
 SCF Done:  E(UB3LYP) =  -3941.57463487     A.U. after   10 cycles
 Optimization completed.
    -- Stationary point found.
 Normal termination of Gaussian 16 at Sun Feb 11 00:53:11 2024.

 ----------------------------------------------------------------------
 #P Geom=AllCheck Guess=TCheck SCRF=Check GenChk UB3LYP/6-311++G(d,p) F
 req
 ----------------------------------------------------------------------

 Structure from the checkpoint file:  "163-an.chk"
 -------
 Reduced
 -------
 Charge = -3 Multiplicity = 1

                          Input orientation:
 ---------------------------------------------------------------------
 Center     Atomic      Atomic             Coordinates (Angstroms)
 Number     Number       Type             X           Y           Z
 ---------------------------------------------------------------------
      1          6           0       -1.681639    1.987183   -5.150654
      2          6           0       -1.712383    0.659825   -5.518442
      3          6           0       -1.523646   -0.344646   -4.534660
      4          6           0       -1.457164    2.390309   -3.806278
      5          6           0       -1.266537    1.376350   -2.811026
      6          6           0       -1.315230    0.016054   -3.221434
      7          6           0       -1.460582    3.793171   -3.471801
      8          6           0       -1.036539    1.693245   -1.416366
      9          6           0       -1.178465    4.130537   -2.104987
     10          6           0       -0.862474    3.084995   -1.113860
     11          6           0       -1.239872    5.522551   -1.674521
     12          6           0       -0.859022    5.865901   -0.372433
     13          6           0       -0.377081    4.871508    0.521465
     14          6           0       -0.392561    3.558134    0.161855
     15          8           0       -1.721991    4.671797   -4.409751
     16          8           0       -0.988387    0.749940   -0.532299
     17          1           0       -1.830309    2.768730   -5.886369
     18          1           0       -1.882074    0.381646   -6.554008
     19          1           0       -1.544045   -1.392570   -4.817973
     20          1           0       -1.174470   -0.739157   -2.456982
     21         35           0        0.567753    2.407561    1.435508
     22          7           0       -1.709379    6.464466   -2.554694
     23         16           0       -1.029611    7.529288    0.268777
     24          8           0       -0.641361    8.471766   -0.837558
     25          8           0       -2.460892    7.728150    0.670050
     26          8           0       -0.107507    7.627221    1.440971
     27          1           0        0.037934    5.185652    1.468617
     28          1           0       -1.760472    6.104418   -3.517832
     29          1           0       -1.449884    7.423592   -2.359935
 ---------------------------------------------------------------------

 SCF Done:  E(UB3LYP) =  -3941.57463487     A.U. after    1 cycles

 Alpha  occ. eigenvalues -- -482.80081 -89.02992 -62.45359 -56.27376 -56.27027
 Alpha  occ. eigenvalues --  -56.26996 -19.07519 -19.07500 -19.07285 -19.02888
 Alpha  occ. eigenvalues --  -19.01610 -14.27926 -10.20499 -10.19385 -10.18417
 Alpha  occ. eigenvalues --  -10.17822 -10.15908 -10.15497 -10.15246 -10.15177
 Alpha  occ. eigenvalues --  -10.15006 -10.14934 -10.14903 -10.14826 -10.14229
 Alpha  occ. eigenvalues --  -10.14177  -8.66316  -8.08876  -6.49388  -6.48237
 Alpha  occ. eigenvalues --   -6.48142  -6.05177  -6.05145  -6.05011  -2.60490
 Alpha  occ. eigenvalues --   -2.60182  -2.60110  -2.59194  -2.59192  -1.08947
 Alpha  occ. eigenvalues --   -0.95482  -0.95001  -0.94633  -0.93344  -0.89155
 Alpha  occ. eigenvalues --   -0.83136  -0.82460  -0.76842  -0.75805  -0.72575
 Alpha  occ. eigenvalues --   -0.71684  -0.69052  -0.65168  -0.62434  -0.60323
 Alpha  occ. eigenvalues --   -0.57772  -0.54954  -0.52993  -0.52455  -0.49479
 Alpha  occ. eigenvalues --   -0.47974  -0.46381  -0.45180  -0.44364  -0.43729
 Alpha  occ. eigenvalues --   -0.43301  -0.42014  -0.41522  -0.40039  -0.39415
 Alpha  occ. eigenvalues --   -0.38926  -0.37953  -0.36543  -0.36002  -0.35699
 Alpha  occ. eigenvalues --   -0.34171  -0.33374  -0.32733  -0.31958  -0.31854
 Alpha  occ. eigenvalues --   -0.31418  -0.30927  -0.30144  -0.28162  -0.28075
 Alpha  occ. eigenvalues --   -0.27613  -0.26787  -0.26024  -0.24054  -0.23136
 Alpha  occ. eigenvalues --   -0.22634  -0.21920  -0.20846  -0.19033  -0.18624
 Alpha  occ. eigenvalues --   -0.11153
 Alpha virt. eigenvalues --   -0.02572  -0.00951   0.00012   0.00321   0.01192
 Alpha virt. eigenvalues --    0.01823   0.02117   0.02705   0.03019   0.04475
 Alpha virt. eigenvalues --    0.04613   0.04882   0.05126   0.05758   0.05819

  Beta  occ. eigenvalues -- -482.80081 -89.02992 -62.45359 -56.27376 -56.27027
  Beta  occ. eigenvalues --  -56.26996 -19.07519 -19.07500 -19.07285 -19.02888
  Beta  occ. eigenvalues --  -19.01610 -14.27926 -10.20499 -10.19385 -10.18417
  Beta  occ. eigenvalues --  -10.17822 -10.15908 -10.15497 -10.15246 -10.15177
  Beta  occ. eigenvalues --  -10.15006 -10.14934 -10.14903 -10.14826 -10.14229
  Beta  occ. eigenvalues --  -10.14177  -8.66316  -8.08876  -6.49388  -6.48237
  Beta  occ. eigenvalues --   -6.48142  -6.05177  -6.05145  -6.05011  -2.60490
  Beta  occ. eigenvalues --   -2.60182  -2.60110  -2.59194  -2.59192  -1.08947
  Beta  occ. eigenvalues --   -0.95482  -0.95001  -0.94633  -0.93344  -0.89155
  Beta  occ. eigenvalues --   -0.83136  -0.82460  -0.76842  -0.75805  -0.72575
  Beta  occ. eigenvalues --   -0.71684  -0.69052  -0.65168  -0.62434  -0.60323
  Beta  occ. eigenvalues --   -0.57772  -0.54954  -0.52993  -0.52455  -0.49479
  Beta  occ. eigenvalues --   -0.47974  -0.46381  -0.45180  -0.44364  -0.43729
  Beta  occ. eigenvalues --   -0.43301  -0.42014  -0.41522  -0.40039  -0.39415
  Beta  occ. eigenvalues --   -0.38926  -0.37953  -0.36543  -0.36002  -0.35699
  Beta  occ. eigenvalues --   -0.34171  -0.33374  -0.32733  -0.31958  -0.31854
  Beta  occ. eigenvalues --   -0.31418  -0.30927  -0.30144  -0.28162  -0.28075
  Beta  occ. eigenvalues --   -0.27613  -0.26787  -0.26024  -0.24054  -0.23136
  Beta  occ. eigenvalues --   -0.22634  -0.21920  -0.20846  -0.19033  -0.18624
  Beta  occ. eigenvalues --   -0.11153
  Beta virt. eigenvalues --   -0.02572  -0.00951   0.00012   0.00321   0.01192
  Beta virt. eigenvalues --    0.01823   0.02117   0.02705   0.03019   0.04475
  Beta virt. eigenvalues --    0.04613   0.04882   0.05126   0.05758   0.05819

 Mulliken charges and spin densities:
               1          2
     1  C    0.054754  -0.000000
     2  C   -0.544121   0.000000
     3  C   -0.442388   0.000000
     4  C    0.013165   0.000000
     5  C    0.034493   0.000000
     6  C    0.004231  -0.000000
     7  C   -0.349173   0.000000
     8  C   -1.163734  -0.000000
     9  C    0.260868  -0.000000
    10  C    1.034166   0.000000
    11  C    0.225813   0.000000
    12  C   -0.879548   0.000000
    13  C   -0.377823   0.000000
    14  C    0.128293  -0.000000
    15  O   -0.608479  -0.000000
    16  O   -0.573160   0.000000
    17  H    0.154593  -0.000000
    18  H    0.162095  -0.000000
    19  H    0.160065   0.000000
    20  H    0.155248  -0.000000
    21  Br  -0.232859   0.000000
    22  N   -0.471979  -0.000000
    23  S    0.670922  -0.000000
    24  O   -0.473193   0.000000
    25  O   -0.392624   0.000000
    26  O   -0.404814  -0.000000
    27  H    0.236702   0.000000
    28  H    0.346378   0.000000
    29  H    0.272109  -0.000000
 Sum of Mulliken charges =  -3.00000   0.00000

 Dipole moment (field-independent basis, Debye):
    X=             16.2476    Y=            -66.8193    Z=             14.1083  Tot=             70.1986
 Quadrupole moment (field-independent basis, Debye-Ang):
   XX=           -193.4573   YY=           -599.9811   ZZ=           -240.4947
   XY=             79.2239   XZ=            -27.4687   YZ=             38.2150

  Exact polarizability: 242.600  -1.600 578.356  85.449  98.421 552.928
 Approx polarizability: 272.071  -2.756 633.049  91.920  76.723 618.266

                      1                      2                      3
                      A                      A                      A
 Frequencies --     24.2485                45.8981                50.5082
 Red. masses --     11.6386                 9.4212                11.7070
 Frc consts  --      0.0040                 0.0117                 0.0176
 IR Inten    --      7.1086                 1.1538                 2.7419

                      4                      5                      6
                      A                      A                      A
 Frequencies --     81.3691               108.0126               125.7948
 Red. masses --      8.7236                 8.9637                 8.8064
 Frc consts  --      0.0340                 0.0616                 0.0821
 IR Inten    --     10.3672                 8.6383                 9.8313

                      7                      8                      9
                      A                      A                      A
 Frequencies --    134.0454               149.9889               174.2288
 Red. masses --     10.2098                 6.4056                 9.0453
 Frc consts  --      0.1081                 0.0849                 0.1618
 IR Inten    --      0.3303                 2.1458                 1.2752

                     10                     11                     12
                      A                      A                      A
 Frequencies --    215.0192               222.8179               256.9036
 Red. masses --     10.9682                12.1218                 9.5250
 Frc consts  --      0.2988                 0.3546                 0.3704
 IR Inten    --      6.1525                 5.9250                 0.2253

                     13                     14                     15
                      A                      A                      A
 Frequencies --    261.9633               293.4284               314.9048
 Red. masses --      9.4874                 5.7277                10.0508
 Frc consts  --      0.3836                 0.2906                 0.5872
 IR Inten    --     13.7118                 3.6499                 5.1103

                     16                     17                     18
                      A                      A                      A
 Frequencies --    346.2683               366.0529               393.7285
 Red. masses --      6.7721                 8.0698                 6.9924
 Frc consts  --      0.4784                 0.6371                 0.6387
 IR Inten    --     44.7876                21.8987                13.9042

                     19                     20                     21
                      A                      A                      A
 Frequencies --    407.6364               428.1001               442.8247
 Red. masses --      9.0982                 7.1125                 6.9043
 Frc consts  --      0.8907                 0.7680                 0.7977
 IR Inten    --      4.7205                29.1179                12.4449

                     22                     23                     24
                      A                      A                      A
 Frequencies --    453.2108               481.3402               484.1388
 Red. masses --      4.2885                 7.5666                 6.1940
 Frc consts  --      0.5190                 1.0329                 0.8554
 IR Inten    --      2.7296                 6.6016                 9.9751

                     25                     26                     27
                      A                      A                      A
 Frequencies --    509.1291               526.4466               534.3103
 Red. masses --      8.3478                 8.1536                 7.9053
 Frc consts  --      1.2749                 1.3314                 1.3297
 IR Inten    --     36.3877                14.5454                56.6408

                     28                     29                     30
                      A                      A                      A
 Frequencies --    569.8103               578.4009               588.8972
 Red. masses --      3.6329                 1.6777                 7.3834
 Frc consts  --      0.6950                 0.3307                 1.5086
 IR Inten    --     71.4602               215.2214               740.9271

                     31                     32                     33
                      A                      A                      A
 Frequencies --    622.0737               654.8017               669.2704
 Red. masses --      5.3338                 5.7354                 5.6989
 Frc consts  --      1.2161                 1.4489                 1.5040
 IR Inten    --     14.2317                27.2994                36.3653

                     34                     35                     36
                      A                      A                      A
 Frequencies --    694.8518               709.4300               714.1551
 Red. masses --      7.0350                 3.2401                 7.2634
 Frc consts  --      2.0013                 0.9608                 2.1826
 IR Inten    --    321.1329                84.2099                 4.2621

                     37                     38                     39
                      A                      A                      A
 Frequencies --    740.9495               777.6531               789.9681
 Red. masses --      4.7740                 1.7168                 1.7325
 Frc consts  --      1.5442                 0.6117                 0.6370
 IR Inten    --     26.6967                96.7658                24.3260

                     40                     41                     42
                      A                      A                      A
 Frequencies --    802.4369               814.8626               855.6586
 Red. masses --      4.4966                 2.9734                 1.3201
 Frc consts  --      1.7059                 1.1632                 0.5695
 IR Inten    --      8.8814                97.9356               121.0977

                     43                     44                     45
                      A                      A                      A
 Frequencies --    866.4935               893.0083               934.8320
 Red. masses --      1.5770                 8.0051                 9.7335
 Frc consts  --      0.6976                 3.7612                 5.0117
 IR Inten    --      1.6513                42.1478               240.0647

                     46                     47                     48
                      A                      A                      A
 Frequencies --    964.8983               983.6047               989.9676
 Red. masses --      8.6921                 1.3579                 1.2474
 Frc consts  --      4.7680                 0.7740                 0.7203
 IR Inten    --    628.1289                 5.2948                 0.2320

                     49                     50                     51
                      A                      A                      A
 Frequencies --   1012.1803              1028.6776              1065.9777
 Red. masses --      4.9952                 2.0732                15.6917
 Frc consts  --      3.0152                 1.2926                10.5055
 IR Inten    --    197.9948               116.3942               509.7342

                     52                     53                     54
                      A                      A                      A
 Frequencies --   1089.3979              1097.5508              1120.3765
 Red. masses --      4.6134                 5.8060                 2.1894
 Frc consts  --      3.2258                 4.1208                 1.6192
 IR Inten    --    215.3283               904.5234               375.5615

                     55                     56                     57
                      A                      A                      A
 Frequencies --   1131.0241              1173.7779              1194.4046
 Red. masses --      1.7352                 2.7039                 1.7844
 Frc consts  --      1.3078                 2.1949                 1.4999
 IR Inten    --    143.9202                31.0868               155.0116

                     58                     59                     60
                      A                      A                      A
 Frequencies --   1205.7687              1237.1348              1253.6672
 Red. masses --      2.4527                 3.4406                 3.8898
 Frc consts  --      2.1010                 3.1026                 3.6020
 IR Inten    --    505.2485               624.3699                43.3412

                     61                     62                     63
                      A                      A                      A
 Frequencies --   1275.9828              1335.7889              1353.7361
 Red. masses --      3.1122                 2.3068                 8.8606
 Frc consts  --      2.9854                 2.4252                 9.5671
 IR Inten    --     28.1361               351.0792               357.0281

                     64                     65                     66
                      A                      A                      A
 Frequencies --   1378.4039              1406.8368              1432.4399
 Red. masses --      3.0995                 3.0381                 5.9375
 Frc consts  --      3.4698                 3.5427                 7.1780
 IR Inten    --    891.9680               457.6307                50.6165

                     67                     68                     69
                      A                      A                      A
 Frequencies --   1433.1670              1470.3829              1491.2607
 Red. masses --      4.9185                 2.7409                 4.3703
 Frc consts  --      5.9522                 3.4914                 5.7262
 IR Inten    --    841.2171               185.2473                96.7875

                     70                     71                     72
                      A                      A                      A
 Frequencies --   1519.9727              1562.5114              1579.3408
 Red. masses --      5.1691                 3.3468                 1.5125
 Frc consts  --      7.0362                 4.8142                 2.2228
 IR Inten    --    301.8070               330.5061               304.5872

                     73                     74                     75
                      A                      A                      A
 Frequencies --   1586.4185              1613.8568              3142.8259
 Red. masses --      7.8366                 5.4244                 1.0852
 Frc consts  --     11.6201                 8.3239                 6.3154
 IR Inten    --      1.2998                 5.3136                24.1245

                     76                     77                     78
                      A                      A                      A
 Frequencies --   3158.8821              3182.0636              3186.0999
 Red. masses --      1.0905                 1.0908                 1.0922
 Frc consts  --      6.4115                 6.5073                 6.5322
 IR Inten    --     48.3025                35.7155                67.4868

                     79                     80                     81
                      A                      A                      A
 Frequencies --   3202.0871              3209.0409              3548.5198
 Red. masses --      1.0705                 1.0893                 1.0851
 Frc consts  --      6.4672                 6.6093                 8.0506
 IR Inten    --    414.0885                36.3415               348.8255

 - Thermochemistry -
 -------------------
 Temperature   298.150 Kelvin.  Pressure   1.00000 Atm.
 Atom     1 has atomic number  6 and mass  12.00000

 Molecular mass:   379.92283 amu.
 Principal axes and moments of inertia in atomic units:
                           1         2         3
     Eigenvalues --  6077.48235********************
           X            0.07301   0.35232   0.93303
           Y            0.82398  -0.54838   0.14260
           Z            0.56189   0.75839  -0.33034
 This molecule is an asymmetric top.
 Rotational symmetry number  1.
 Warning -- assumption of classical behavior for rotation
           may cause significant error
 Rotational temperatures (Kelvin)      0.01425     0.00777     0.00519
 Rotational constants (GHZ):           0.29696     0.16194     0.10812
 Zero-point vibrational energy     482860.1 (Joules/Mol)
                                  115.40633 (Kcal/Mol)
 Warning -- explicit consideration of  30 degrees of freedom as
           vibrations may cause significant error
 Vibrational temperatures:     34.89    66.04    72.67   117.07   155.41
          (Kelvin)            180.99   192.86   215.80   250.68   309.36
                              320.59   369.63   376.91   422.18   453.08
                              498.20   526.67   566.49   586.50   615.94
                              637.13   652.07   692.54   696.57   732.52
                              757.44   768.75   819.83   832.19   847.29
                              895.03   942.11   962.93   999.74  1020.71
                             1027.51  1066.06  1118.87  1136.59  1154.53
                             1172.41  1231.10  1246.69  1284.84  1345.01
                             1388.27  1415.19  1424.34  1456.30  1480.04
                             1533.70  1567.40  1579.13  1611.97  1627.29
                             1688.80  1718.48  1734.83  1779.96  1803.75
                             1835.85  1921.90  1947.72  1983.22  2024.12
                             2060.96  2062.01  2115.55  2145.59  2186.90
                             2248.11  2272.32  2282.50  2321.98  4521.83
                             4544.93  4578.28  4584.09  4607.09  4617.09
                             5105.53

 Zero-point correction=                           0.183912 (Hartree/Particle)
 Thermal correction to Energy=                    0.201861
 Thermal correction to Enthalpy=                  0.202805
 Thermal correction to Gibbs Free Energy=         0.136500
 Sum of electronic and zero-point Energies=          -3941.390723
 Sum of electronic and thermal Energies=             -3941.372774
 Sum of electronic and thermal Enthalpies=           -3941.371830
 Sum of electronic and thermal Free Energies=        -3941.438135

                     E (Thermal)             CV                S
                      KCal/Mol        Cal/Mol-Kelvin    Cal/Mol-Kelvin
 Total                  126.669             69.758            139.550
 Electronic               0.000              0.000              0.000
 Translational            0.889              2.981             43.697
 Rotational               0.889              2.981             35.379
 Vibrational            124.892             63.797             60.474
 Vibration     1          0.593              1.985              6.252
 Vibration     2          0.595              1.979              4.987
 Vibration     3          0.595              1.977              4.797
 Vibration     4          0.600              1.962              3.858
 Vibration     5          0.606              1.943              3.304
 Vibration     6          0.611              1.927              3.009
 Vibration     7          0.613              1.919              2.887
 Vibration     8          0.618              1.903              2.672
 Vibration     9          0.627              1.874              2.389
 Vibration    10          0.645              1.818              2.001
 Vibration    11          0.648              1.806              1.936
 Vibration    12          0.666              1.751              1.683
 Vibration    13          0.669              1.742              1.649
 Vibration    14          0.688              1.686              1.454
 Vibration    15          0.702              1.645              1.336
 Vibration    16          0.724              1.583              1.183
 Vibration    17          0.739              1.542              1.096
 Vibration    18          0.761              1.484              0.986
 Vibration    19          0.772              1.454              0.935
 Vibration    20          0.790              1.409              0.865
 Vibration    21          0.802              1.377              0.818
 Vibration    22          0.812              1.354              0.786
 Vibration    23          0.838              1.291              0.706
 Vibration    24          0.840              1.285              0.699
 Vibration    25          0.864              1.230              0.636
 Vibration    26          0.881              1.191              0.595
 Vibration    27          0.889              1.174              0.578
 Vibration    28          0.926              1.097              0.505
 Vibration    29          0.935              1.078              0.488
 Vibration    30          0.946              1.055              0.469

                           ! Non-Optimized Parameters !
 Normal termination of Gaussian 16 at Sun Feb 11 03:57:37 2024.
