 Q-Chem 5.4, Q-Chem, Inc., Pleasanton, CA (2021)
 Q-Chem 5.4.0 for Intel X86 EM64T Linux

User input:
--------------------------------------------------------------
$molecule
0 1
C                 -0.2466350000     -0.4117830000      2.1660550000
C                 -0.6516940000     -1.0479170000      0.8876050000
C                 -0.2826770000     -0.5271680000     -0.2892180000
C                  0.5354380000      0.7076230000     -0.3718070000
C                  0.9398910000      1.3587210000      0.9108280000
C                  0.5886310000      0.8112050000      2.0859820000
O                 -0.5860720000     -0.8767740000      3.2413190000
O                  0.8791730000      1.1624390000     -1.4504050000
H                 -1.2504810000     -1.9481620000      0.9699150000
H                 -0.5534250000     -0.9730800000     -1.2400100000
C                  1.8352250000      2.5869210000      0.8604930000
C                  1.2822000000      3.9543300000      0.4075150000
C                 -0.2331020000      3.9387490000      0.1450340000
C                  1.6022200000      4.9601700000      1.5369050000
C                  2.0413820000      4.3592160000     -0.8767550000
O                  2.9817560000      2.4593230000      1.2271390000
H                 -0.4969090000      3.2918540000     -0.6935820000
H                 -0.5660030000      4.9491650000     -0.1070440000
H                 -0.7976680000      3.6198140000      1.0258660000
H                  1.0658830000      4.7126780000      2.4581800000
H                  1.2945000000      5.9633830000      1.2298350000
H                  2.6708180000      4.9730820000      1.7544050000
H                  1.8455200000      3.6556880000     -1.6881140000
H                  3.1171000000      4.3885870000     -0.6936600000
H                  1.7152460000      5.3542770000     -1.1929860000
H                  0.8953030000      1.2362800000      3.0358450000
$end

$rem
BASIS  =  6-311++G(d,p)
GUI  =  2
JOB_TYPE  =  SP
METHOD  =  B3LYP
SCF_CONVERGENCE  = 8
SOLVENT_METHOD = sm12
$end

$smx
solvent dimethylformamide
charges CM5
$end

--------------------------------------------------------------

             Standard Nuclear Orientation (Angstroms)
    I     Atom           X                Y                Z
 ----------------------------------------------------------------
    1      C      -0.2466350000    -0.4117830000     2.1660550000
    2      C      -0.6516940000    -1.0479170000     0.8876050000
    3      C      -0.2826770000    -0.5271680000    -0.2892180000
    4      C       0.5354380000     0.7076230000    -0.3718070000
    5      C       0.9398910000     1.3587210000     0.9108280000
    6      C       0.5886310000     0.8112050000     2.0859820000
    7      O      -0.5860720000    -0.8767740000     3.2413190000
    8      O       0.8791730000     1.1624390000    -1.4504050000
    9      H      -1.2504810000    -1.9481620000     0.9699150000
   10      H      -0.5534250000    -0.9730800000    -1.2400100000
   11      C       1.8352250000     2.5869210000     0.8604930000
   12      C       1.2822000000     3.9543300000     0.4075150000
   13      C      -0.2331020000     3.9387490000     0.1450340000
   14      C       1.6022200000     4.9601700000     1.5369050000
   15      C       2.0413820000     4.3592160000    -0.8767550000
   16      O       2.9817560000     2.4593230000     1.2271390000
   17      H      -0.4969090000     3.2918540000    -0.6935820000
   18      H      -0.5660030000     4.9491650000    -0.1070440000
   19      H      -0.7976680000     3.6198140000     1.0258660000
   20      H       1.0658830000     4.7126780000     2.4581800000
   21      H       1.2945000000     5.9633830000     1.2298350000
   22      H       2.6708180000     4.9730820000     1.7544050000
   23      H       1.8455200000     3.6556880000    -1.6881140000
   24      H       3.1171000000     4.3885870000    -0.6936600000
   25      H       1.7152460000     5.3542770000    -1.1929860000
   26      H       0.8953030000     1.2362800000     3.0358450000
 ----------------------------------------------------------------

   15    -652.2119622378      5.09e-09  Convergence criterion met
 Total energy in the final basis set =     -652.2291182461

                    Orbital Energies (a.u.)
 --------------------------------------------------------------

 Alpha MOs
 -- Occupied --
-19.1479 -19.1443 -19.1367 -10.2956 -10.2894 -10.2843 -10.2283 -10.2199
-10.2149 -10.2139 -10.2031 -10.1659 -10.1657 -10.1638  -1.0806  -1.0736
 -1.0714  -0.8730  -0.8303  -0.8046  -0.7219  -0.6953  -0.6936  -0.6705
 -0.6301  -0.6081  -0.5392  -0.5320  -0.5098  -0.4930  -0.4819  -0.4712
 -0.4547  -0.4532  -0.4520  -0.4404  -0.4320  -0.4267  -0.4165  -0.4133
 -0.3915  -0.3842  -0.3777  -0.3730  -0.3412  -0.3385  -0.3166  -0.3076
 -0.2959  -0.2928  -0.2647

          Ground-State Mulliken Net Atomic Charges

     Atom                 Charge (a.u.)
  ----------------------------------------
      1 C                    -0.860125
      2 C                     0.772892
      3 C                     0.753039
      4 C                    -1.473469
      5 C                     1.097023
      6 C                     0.360647
      7 O                    -0.315314
      8 O                    -0.278392
      9 H                     0.344980
     10 H                     0.347927
     11 C                    -1.355886
     12 C                     0.649691
     13 C                    -0.446931
     14 C                    -0.403337
     15 C                    -0.647805
     16 O                    -0.260098
     17 H                     0.120411
     18 H                     0.185156
     19 H                     0.172400
     20 H                     0.161416
     21 H                     0.190392
     22 H                     0.134830
     23 H                     0.119402
     24 H                     0.119750
     25 H                     0.190596
     26 H                     0.320804
  ----------------------------------------
  Sum of atomic charges =     0.000000

                    Cartesian Multipole Moments
 -----------------------------------------------------------------
    Charge (ESU x 10^10)
                -0.0000
    Dipole Moment (Debye)
         X      -2.7578      Y       0.5886      Z      -1.2412
       Tot       3.0810
    Quadrupole Moments (Debye-Ang)
        XX     -94.2560     XY      -3.8240     YY     -73.2137
        XZ       1.3609     YZ       6.4747     ZZ     -96.1373

 Total job time:  460.78s(wall), 3549.60s(cpu)
        *  Thank you very much for using Q-Chem.  Have a nice day.  *
