 Gaussian 16, Revision A.03,
 Gaussian 16:  ES64L-G16RevA.03 25-Dec-2016

 ----------------------------------------------------------------
 #P UB3LYP/6-311++G(d,p) SCRF=(PCM,Solvent=n,n-DiMethylFormamide)
 ----------------------------------------------------------------

 -------
 Reduced
 -------
 Symbolic Z-matrix:
 Charge = -2 Multiplicity = 1

                         Standard orientation:
 ---------------------------------------------------------------------
 Center     Atomic      Atomic             Coordinates (Angstroms)
 Number     Number       Type             X           Y           Z
 ---------------------------------------------------------------------
      1          9           0       -2.400517   -1.324683   -0.000017
      2          6           0       -1.164322   -0.697177    0.000003
      3          6           0       -1.164505    0.697118    0.000006
      4          9           0       -2.400561    1.324425   -0.000011
      5          6           0       -0.000072    1.521058    0.000033
      6          8           0       -0.000180    2.815833   -0.000006
      7          6           0        1.164305    0.697155    0.000014
      8          6           0        1.164480   -0.697099    0.000012
      9          9           0        2.400560   -1.324360   -0.000020
     10          6           0        0.000099   -1.520982    0.000029
     11          8           0        0.000178   -2.815891    0.000003
     12          9           0        2.400530    1.324621   -0.000014
 ---------------------------------------------------------------------

 SCF Done:  E(UB3LYP) =  -778.908732150     A.U. after   14 cycles

 The electronic state is 1-A.
 Alpha  occ. eigenvalues --  -24.66865 -24.66864 -24.66861 -24.66860 -19.03225
 Alpha  occ. eigenvalues --  -19.03224 -10.22157 -10.22155 -10.22104 -10.22103
 Alpha  occ. eigenvalues --  -10.19792 -10.19790  -1.20389  -1.20331  -1.19000
 Alpha  occ. eigenvalues --   -1.18957  -0.94571  -0.94246  -0.81415  -0.71753
 Alpha  occ. eigenvalues --   -0.68618  -0.60110  -0.59166  -0.52537  -0.52132
 Alpha  occ. eigenvalues --   -0.51773  -0.48462  -0.46663  -0.45511  -0.45100
 Alpha  occ. eigenvalues --   -0.43172  -0.42622  -0.41142  -0.40168  -0.37842
 Alpha  occ. eigenvalues --   -0.37529  -0.36359  -0.34885  -0.34763  -0.32278
 Alpha  occ. eigenvalues --   -0.23853  -0.21789  -0.21614  -0.21371  -0.13730
 Alpha virt. eigenvalues --   -0.00860   0.02867   0.02974   0.03118   0.05789
 Alpha virt. eigenvalues --    0.06017   0.06084   0.06729   0.08497   0.08577
 Alpha virt. eigenvalues --    0.09672   0.09759   0.09818   0.11667   0.13143

  Beta  occ. eigenvalues --  -24.66865 -24.66864 -24.66861 -24.66860 -19.03225
  Beta  occ. eigenvalues --  -19.03224 -10.22157 -10.22155 -10.22104 -10.22103
  Beta  occ. eigenvalues --  -10.19792 -10.19790  -1.20389  -1.20331  -1.19000
  Beta  occ. eigenvalues --   -1.18957  -0.94571  -0.94246  -0.81415  -0.71753
  Beta  occ. eigenvalues --   -0.68618  -0.60110  -0.59166  -0.52537  -0.52132
  Beta  occ. eigenvalues --   -0.51773  -0.48462  -0.46663  -0.45511  -0.45100
  Beta  occ. eigenvalues --   -0.43172  -0.42622  -0.41142  -0.40168  -0.37842
  Beta  occ. eigenvalues --   -0.37529  -0.36359  -0.34885  -0.34763  -0.32278
  Beta  occ. eigenvalues --   -0.23853  -0.21789  -0.21614  -0.21371  -0.13730
  Beta virt. eigenvalues --   -0.00860   0.02867   0.02974   0.03118   0.05789
  Beta virt. eigenvalues --    0.06017   0.06084   0.06729   0.08497   0.08577
  Beta virt. eigenvalues --    0.09672   0.09759   0.09818   0.11667   0.13143

 Mulliken charges and spin densities:
               1          2
     1  F   -0.274306  -0.000000
     2  C    0.093445   0.000000
     3  C    0.094109  -0.000000
     4  F   -0.274196  -0.000000
     5  C    0.093482   0.000000
     6  O   -0.732664   0.000000
     7  C    0.093946  -0.000000
     8  C    0.093657   0.000000
     9  F   -0.274200  -0.000000
    10  C    0.093854  -0.000000
    11  O   -0.732810   0.000000
    12  F   -0.274317   0.000000
 Sum of Mulliken charges =  -2.00000  -0.00000

 Dipole moment (field-independent basis, Debye):
    X=             -0.0001    Y=              0.0020    Z=              0.0001  Tot=              0.0020
 Quadrupole moment (field-independent basis, Debye-Ang):
   XX=            -93.5618   YY=           -135.5684   ZZ=            -68.8186
   XY=             -0.0025   XZ=              0.0000   YZ=              0.0001

 Normal termination of Gaussian 16 at Sun Jan 21 07:36:30 2024.
