 Gaussian 16, Revision A.03,
 Gaussian 16:  ES64L-G16RevA.03 25-Dec-2016

 ----------------------------------------------------------------
 #P UB3LYP/6-311++G(d,p) SCRF=(PCM,Solvent=n,n-DiMethylFormamide)
 ----------------------------------------------------------------

 ------------------
 Quinone PCM in DMF
 ------------------
 Symbolic Z-matrix:
 Charge =  0 Multiplicity = 1

                         Standard orientation:
 ---------------------------------------------------------------------
 Center     Atomic      Atomic             Coordinates (Angstroms)
 Number     Number       Type             X           Y           Z
 ---------------------------------------------------------------------
      1          6           0       -6.262087   -0.097696   -1.010925
      2          6           0       -6.847180   -1.359643   -1.023209
      3          6           0       -6.169511   -2.452994   -0.477230
      4          6           0       -4.993944    0.076115   -0.451338
      5          6           0       -4.314581   -1.019580    0.096651
      6          6           0       -4.906860   -2.284859    0.081786
      7          6           0       -4.364842    1.425618   -0.440055
      8          6           0       -3.003067    1.583246    0.158326
      9          6           0       -2.351850    0.528554    0.710876
     10          6           0       -2.963623   -0.839115    0.698698
     11          8           0       -4.943907    2.394128   -0.909256
     12          8           0       -2.361644   -1.789714    1.175764
     13          1           0       -7.831189   -1.494668   -1.457711
     14          6           0       -0.981360    0.610331    1.334991
     15          1           0       -6.628603   -3.435040   -0.488725
     16          6           0       -2.460248    2.983216    0.093630
     17          6           0        0.154194    0.344122    0.323816
     18          6           0        1.542257    0.384137    0.971521
     19          6           0        2.682199    0.119448   -0.018538
     20          1           0       -6.768835    0.763534   -1.428483
     21          1           0       -4.364473   -3.118219    0.510842
     22          1           0       -0.921331   -0.138974    2.127015
     23          1           0       -0.836018    1.588272    1.799278
     24          1           0       -2.499554    3.352537   -0.934107
     25          1           0       -1.436347    3.050881    0.453383
     26          1           0       -3.088128    3.661329    0.679563
     27          1           0        0.103217    1.083472   -0.484393
     28          1           0       -0.005265   -0.635612   -0.138434
     29          1           0        1.583468   -0.357226    1.779198
     30          1           0        1.694528    1.362260    1.446502
     31          1           0        2.637770    0.858725   -0.828834
     32          1           0        2.529175   -0.859089   -0.491249
     33          6           0        4.073224    0.158043    0.624592
     34          6           0        5.213838   -0.110198   -0.363716
     35          6           0        6.605238   -0.072702    0.278538
     36          6           0        7.745870   -0.341961   -0.709203
     37          6           0        9.137949   -0.304927   -0.068328
     38          6           0       10.270578   -0.575419   -1.063051
     39          1           0        4.116583   -0.580088    1.435833
     40          1           0        4.226588    1.137142    1.096841
     41          1           0        5.170274    0.627756   -1.175301
     42          1           0        5.059951   -1.089177   -0.835817
     43          1           0        6.648532   -0.810414    1.090340
     44          1           0        6.759407    0.906460    0.750448
     45          1           0        7.703553    0.395497   -1.521536
     46          1           0        7.592650   -1.321275   -1.181348
     47          1           0        9.180940   -1.042004    0.742859
     48          1           0        9.291921    0.673624    0.402758
     49          1           0       10.164003   -1.562062   -1.525115
     50          1           0       11.248634   -0.541859   -0.574894
     51          1           0       10.275784    0.166494   -1.867967
 ---------------------------------------------------------------------

 SCF Done:  E(UB3LYP) =  -967.845135092     A.U. after   15 cycles

 The electronic state is 1-A.
 Alpha  occ. eigenvalues --  -19.13351 -19.13328 -10.28170 -10.28102 -10.21409
 Alpha  occ. eigenvalues --  -10.21143 -10.20691 -10.20638 -10.19850 -10.19812
 Alpha  occ. eigenvalues --  -10.19770 -10.19755 -10.17705 -10.17475 -10.17041
 Alpha  occ. eigenvalues --  -10.16355 -10.16167 -10.16123 -10.16010 -10.15962
 Alpha  occ. eigenvalues --  -10.15940 -10.15919 -10.15528  -1.06766  -1.06581
 Alpha  occ. eigenvalues --   -0.89048  -0.85325  -0.81386  -0.80118  -0.78781
 Alpha  occ. eigenvalues --   -0.77815  -0.77372  -0.74851  -0.72315  -0.69730
 Alpha  occ. eigenvalues --   -0.67964  -0.65940  -0.63328  -0.61936  -0.60022
 Alpha  occ. eigenvalues --   -0.58489  -0.58175  -0.57490  -0.57262  -0.55148
 Alpha  occ. eigenvalues --   -0.51990  -0.50082  -0.48697  -0.47868  -0.47040
 Alpha  occ. eigenvalues --   -0.46173  -0.46050  -0.45787  -0.45203  -0.44615
 Alpha  occ. eigenvalues --   -0.43637  -0.43030  -0.42772  -0.42229  -0.42089
 Alpha  occ. eigenvalues --   -0.41085  -0.40850  -0.39983  -0.39692  -0.39255
 Alpha  occ. eigenvalues --   -0.38943  -0.37759  -0.37641  -0.36952  -0.36605
 Alpha  occ. eigenvalues --   -0.35946  -0.34724  -0.34439  -0.33982  -0.33045
 Alpha  occ. eigenvalues --   -0.32780  -0.32362  -0.32158  -0.31995  -0.30452
 Alpha  occ. eigenvalues --   -0.29033  -0.28889  -0.27894  -0.27242  -0.27077
 Alpha virt. eigenvalues --   -0.12305  -0.05663  -0.02959  -0.00836  -0.00368
 Alpha virt. eigenvalues --    0.00119   0.00524   0.00636   0.01043   0.01391
 Alpha virt. eigenvalues --    0.01737   0.02092   0.02270   0.02446   0.03179

  Beta  occ. eigenvalues --  -19.13351 -19.13328 -10.28170 -10.28102 -10.21409
  Beta  occ. eigenvalues --  -10.21143 -10.20691 -10.20638 -10.19850 -10.19812
  Beta  occ. eigenvalues --  -10.19770 -10.19755 -10.17705 -10.17475 -10.17041
  Beta  occ. eigenvalues --  -10.16355 -10.16167 -10.16123 -10.16010 -10.15962
  Beta  occ. eigenvalues --  -10.15940 -10.15919 -10.15528  -1.06766  -1.06581
  Beta  occ. eigenvalues --   -0.89048  -0.85325  -0.81386  -0.80118  -0.78781
  Beta  occ. eigenvalues --   -0.77815  -0.77372  -0.74851  -0.72315  -0.69730
  Beta  occ. eigenvalues --   -0.67964  -0.65940  -0.63328  -0.61936  -0.60022
  Beta  occ. eigenvalues --   -0.58489  -0.58175  -0.57490  -0.57262  -0.55148
  Beta  occ. eigenvalues --   -0.51990  -0.50082  -0.48697  -0.47868  -0.47040
  Beta  occ. eigenvalues --   -0.46173  -0.46050  -0.45787  -0.45203  -0.44615
  Beta  occ. eigenvalues --   -0.43637  -0.43030  -0.42772  -0.42229  -0.42089
  Beta  occ. eigenvalues --   -0.41085  -0.40850  -0.39983  -0.39692  -0.39255
  Beta  occ. eigenvalues --   -0.38943  -0.37759  -0.37641  -0.36952  -0.36605
  Beta  occ. eigenvalues --   -0.35946  -0.34724  -0.34439  -0.33982  -0.33045
  Beta  occ. eigenvalues --   -0.32780  -0.32362  -0.32158  -0.31995  -0.30452
  Beta  occ. eigenvalues --   -0.29033  -0.28889  -0.27894  -0.27242  -0.27077
  Beta virt. eigenvalues --   -0.12305  -0.05663  -0.02959  -0.00836  -0.00368
  Beta virt. eigenvalues --    0.00119   0.00524   0.00636   0.01043   0.01391
  Beta virt. eigenvalues --    0.01737   0.02092   0.02270   0.02446   0.03179

 Mulliken charges and spin densities:
               1          2
     1  C    0.231050  -0.000000
     2  C   -0.465663   0.000000
     3  C   -0.399414   0.000000
     4  C    0.027199   0.000000
     5  C   -0.139632   0.000000
     6  C    0.198764  -0.000000
     7  C   -0.373487  -0.000000
     8  C    0.882744   0.000000
     9  C    1.070136   0.000000
    10  C   -0.942604  -0.000000
    11  O   -0.277710  -0.000000
    12  O   -0.260051  -0.000000
    13  H    0.204013   0.000000
    14  C   -0.582768  -0.000000
    15  H    0.203807  -0.000000
    16  C   -0.457921  -0.000000
    17  C   -0.945951  -0.000000
    18  C   -0.261469  -0.000000
    19  C   -0.022165  -0.000000
    20  H    0.190520   0.000000
    21  H    0.188966   0.000000
    22  H    0.225864   0.000000
    23  H    0.216431   0.000000
    24  H    0.186540   0.000000
    25  H    0.141215  -0.000000
    26  H    0.205405   0.000000
    27  H    0.145450   0.000000
    28  H    0.191801  -0.000000
    29  H    0.122297   0.000000
    30  H    0.129494   0.000000
    31  H    0.131723   0.000000
    32  H    0.128441   0.000000
    33  C    0.066951   0.000000
    34  C   -0.011004   0.000000
    35  C   -0.238952  -0.000000
    36  C   -0.451784  -0.000000
    37  C   -0.279652   0.000000
    38  C   -0.691769   0.000000
    39  H    0.131776  -0.000000
    40  H    0.130737  -0.000000
    41  H    0.130338  -0.000000
    42  H    0.130082  -0.000000
    43  H    0.126767  -0.000000
    44  H    0.126709  -0.000000
    45  H    0.123464  -0.000000
    46  H    0.123672  -0.000000
    47  H    0.131081  -0.000000
    48  H    0.131033  -0.000000
    49  H    0.140020  -0.000000
    50  H    0.147479   0.000000
    51  H    0.140023   0.000000
 Sum of Mulliken charges =  -0.00000  -0.00000

 Dipole moment (field-independent basis, Debye):
    X=             -0.1675    Y=             -0.3934    Z=             -0.1780  Tot=              0.4631
 Quadrupole moment (field-independent basis, Debye-Ang):
   XX=           -132.3010   YY=           -143.5932   ZZ=           -146.0534
   XY=             17.8383   XZ=              2.7956   YZ=              7.0635

 Normal termination of Gaussian 16 at Sun Jan 21 08:04:15 2024.
