 Gaussian 16, Revision A.03,
 Gaussian 16:  ES64L-G16RevA.03 25-Dec-2016

 ----------------------------------------------------------------------
 #P UB3LYP/6-311++G(d,p) nosym opt freq SCRF=(PCM,Solvent=n,n-DiMethylF
 ormamide)
 ----------------------------------------------------------------------

 --------
 Oxidized
 --------
 Symbolic Z-matrix:
 Charge =  0 Multiplicity = 1

 SCF Done:  E(UB3LYP) =  -744.348684036     A.U. after   14 cycles
 SCF Done:  E(UB3LYP) =  -744.348796778     A.U. after   12 cycles
 SCF Done:  E(UB3LYP) =  -744.348835954     A.U. after   11 cycles
 SCF Done:  E(UB3LYP) =  -744.348843358     A.U. after   10 cycles
 SCF Done:  E(UB3LYP) =  -744.348843828     A.U. after    9 cycles
 SCF Done:  E(UB3LYP) =  -744.348844364     A.U. after    9 cycles
 Optimization completed.
    -- Stationary point found.
 Normal termination of Gaussian 16 at Sat Feb 10 16:03:46 2024.

 ----------------------------------------------------------------------
 #P Geom=AllCheck Guess=TCheck SCRF=Check GenChk UB3LYP/6-311++G(d,p) F
 req
 ----------------------------------------------------------------------

 Structure from the checkpoint file:  "150.chk"
 --------
 Oxidized
 --------
 Charge =  0 Multiplicity = 1

                          Input orientation:
 ---------------------------------------------------------------------
 Center     Atomic      Atomic             Coordinates (Angstroms)
 Number     Number       Type             X           Y           Z
 ---------------------------------------------------------------------
      1          7           0       -2.935820    1.845356    0.273688
      2          6           0       -2.526526    0.562597    0.131850
      3          6           0       -3.502497   -0.465146    0.058017
      4          6           0       -3.139391   -1.785159   -0.087245
      5          6           0       -1.788152   -2.150623   -0.166377
      6          6           0       -0.806989   -1.174263   -0.097339
      7          6           0        0.616409   -1.615816   -0.185466
      8          8           0        0.907891   -2.799892   -0.316825
      9          6           0        1.670901   -0.573350   -0.108820
     10          6           0        3.017633   -0.945894   -0.186226
     11          6           0        4.016317    0.018037   -0.116755
     12          6           0        3.675312    1.365634    0.030966
     13          6           0        2.339336    1.743668    0.108670
     14          6           0        1.326821    0.780884    0.039808
     15          6           0       -0.098027    1.218445    0.125937
     16          8           0       -0.349848    2.425373    0.256725
     17          6           0       -1.145815    0.200410    0.052859
     18          1           0       -3.917907    2.060203    0.329315
     19          1           0       -2.242439    2.578328    0.329357
     20          1           0       -4.549470   -0.188689    0.118590
     21          1           0       -3.908137   -2.547483   -0.140528
     22          1           0       -1.496867   -3.185768   -0.280583
     23          1           0        3.263413   -1.994038   -0.300648
     24          1           0        5.057830   -0.275150   -0.177146
     25          1           0        4.453001    2.118568    0.085058
     26          1           0        2.063019    2.783771    0.223115
 ---------------------------------------------------------------------

 SCF Done:  E(UB3LYP) =  -744.348844364     A.U. after    1 cycles

 Alpha  occ. eigenvalues --  -19.12693 -19.12450 -14.33711 -10.28003 -10.27790
 Alpha  occ. eigenvalues --  -10.24995 -10.20718 -10.20651 -10.20567 -10.20189
 Alpha  occ. eigenvalues --  -10.19784 -10.19762 -10.19693 -10.19638 -10.19534
 Alpha  occ. eigenvalues --  -10.19320 -10.18748  -1.05987  -1.05579  -0.94731
 Alpha  occ. eigenvalues --   -0.88904  -0.86761  -0.81035  -0.77690  -0.76965
 Alpha  occ. eigenvalues --   -0.75772  -0.68806  -0.66722  -0.64821  -0.61567
 Alpha  occ. eigenvalues --   -0.58927  -0.57408  -0.55819  -0.52894  -0.50971
 Alpha  occ. eigenvalues --   -0.50168  -0.48438  -0.47585  -0.46961  -0.45451
 Alpha  occ. eigenvalues --   -0.45357  -0.44981  -0.44089  -0.43042  -0.41778
 Alpha  occ. eigenvalues --   -0.40234  -0.39394  -0.38892  -0.37400  -0.37260
 Alpha  occ. eigenvalues --   -0.36625  -0.33588  -0.28861  -0.28510  -0.27729
 Alpha  occ. eigenvalues --   -0.27558  -0.27320  -0.22822
 Alpha virt. eigenvalues --   -0.11622  -0.06726  -0.03571  -0.01636  -0.00682
 Alpha virt. eigenvalues --    0.00095   0.00747   0.01726   0.01912   0.03363
 Alpha virt. eigenvalues --    0.03551   0.03997   0.04008   0.04077   0.04429

  Beta  occ. eigenvalues --  -19.12693 -19.12450 -14.33711 -10.28003 -10.27790
  Beta  occ. eigenvalues --  -10.24995 -10.20718 -10.20651 -10.20567 -10.20189
  Beta  occ. eigenvalues --  -10.19784 -10.19762 -10.19693 -10.19638 -10.19534
  Beta  occ. eigenvalues --  -10.19320 -10.18748  -1.05987  -1.05579  -0.94731
  Beta  occ. eigenvalues --   -0.88904  -0.86761  -0.81035  -0.77690  -0.76965
  Beta  occ. eigenvalues --   -0.75772  -0.68806  -0.66722  -0.64821  -0.61567
  Beta  occ. eigenvalues --   -0.58927  -0.57408  -0.55819  -0.52894  -0.50971
  Beta  occ. eigenvalues --   -0.50168  -0.48438  -0.47585  -0.46961  -0.45451
  Beta  occ. eigenvalues --   -0.45357  -0.44981  -0.44089  -0.43042  -0.41778
  Beta  occ. eigenvalues --   -0.40234  -0.39394  -0.38892  -0.37400  -0.37260
  Beta  occ. eigenvalues --   -0.36625  -0.33588  -0.28861  -0.28510  -0.27729
  Beta  occ. eigenvalues --   -0.27558  -0.27320  -0.22822
  Beta virt. eigenvalues --   -0.11622  -0.06726  -0.03571  -0.01636  -0.00682
  Beta virt. eigenvalues --    0.00095   0.00747   0.01726   0.01912   0.03363
  Beta virt. eigenvalues --    0.03551   0.03997   0.04008   0.04077   0.04429

 Mulliken charges and spin densities:
               1          2
     1  N   -0.431125  -0.000000
     2  C    0.308654   0.000000
     3  C   -0.198962  -0.000000
     4  C   -0.425893  -0.000000
     5  C    0.074155  -0.000000
     6  C    0.454096   0.000000
     7  C   -0.546570  -0.000000
     8  O   -0.287236   0.000000
     9  C    0.017602   0.000000
    10  C    0.182171   0.000000
    11  C   -0.409144   0.000000
    12  C   -0.443184  -0.000000
    13  C    0.270555  -0.000000
    14  C    0.064911  -0.000000
    15  C   -0.428044   0.000000
    16  O   -0.323438   0.000000
    17  C    0.118752  -0.000000
    18  H    0.314452   0.000000
    19  H    0.333558   0.000000
    20  H    0.188745  -0.000000
    21  H    0.211551   0.000000
    22  H    0.174982  -0.000000
    23  H    0.182535  -0.000000
    24  H    0.203918  -0.000000
    25  H    0.204717   0.000000
    26  H    0.188244  -0.000000
 Sum of Mulliken charges =  -0.00000  -0.00000

 Dipole moment (field-independent basis, Debye):
    X=             -2.4064    Y=              2.0940    Z=              0.3055  Tot=              3.2045
 Quadrupole moment (field-independent basis, Debye-Ang):
   XX=            -61.2037   YY=           -105.4690   ZZ=           -102.0515
   XY=              3.4595   XZ=             -0.8993   YZ=             -0.4536

  Exact polarizability: 383.133  12.362 303.908  -6.689  18.722 118.843
 Approx polarizability: 416.262   2.841 388.579  -8.049  25.560 140.165

                      1                      2                      3
                      A                      A                      A
 Frequencies --     38.8123                71.3565               114.8792
 Red. masses --      7.0804                 7.8199                 4.8455
 Frc consts  --      0.0063                 0.0235                 0.0377
 IR Inten    --     14.7117                15.1160                 7.4519

                      4                      5                      6
                      A                      A                      A
 Frequencies --    141.5432               188.4675               221.1378
 Red. masses --      2.7521                 4.0644                 4.6555
 Frc consts  --      0.0325                 0.0851                 0.1341
 IR Inten    --     66.2371                51.1980                 4.0676

                      7                      8                      9
                      A                      A                      A
 Frequencies --    225.4309               252.6138               324.0617
 Red. masses --      1.5366                 5.4964                 6.1426
 Frc consts  --      0.0460                 0.2067                 0.3801
 IR Inten    --    164.4702                 0.4659                 2.0717

                     10                     11                     12
                      A                      A                      A
 Frequencies --    348.7542               388.1087               417.7204
 Red. masses --      6.6243                 7.3248                12.0980
 Frc consts  --      0.4747                 0.6501                 1.2438
 IR Inten    --      0.3664                10.5881                39.7456

                     13                     14                     15
                      A                      A                      A
 Frequencies --    424.8374               433.4017               451.9588
 Red. masses --      3.3509                 4.8838                 4.5875
 Frc consts  --      0.3563                 0.5405                 0.5521
 IR Inten    --      0.3534                 0.3833                16.4833

                     16                     17                     18
                      A                      A                      A
 Frequencies --    483.5365               488.7203               556.8910
 Red. masses --      7.6293                 3.7015                 4.1989
 Frc consts  --      1.0510                 0.5209                 0.7672
 IR Inten    --      1.5475                 4.1589                16.5813

                     19                     20                     21
                      A                      A                      A
 Frequencies --    560.2757               621.1132               628.8756
 Red. masses --      6.1143                 6.4467                 1.0637
 Frc consts  --      1.1308                 1.4653                 0.2479
 IR Inten    --      1.1806                 3.8453                15.2377

                     22                     23                     24
                      A                      A                      A
 Frequencies --    668.1046               670.6765               701.3860
 Red. masses --      6.5560                 4.1245                 7.0332
 Frc consts  --      1.7242                 1.0931                 2.0385
 IR Inten    --     19.9984                10.8808                 0.2704

                     25                     26                     27
                      A                      A                      A
 Frequencies --    722.4910               743.6907               788.1994
 Red. masses --      2.6255                 2.2820                 2.0944
 Frc consts  --      0.8075                 0.7436                 0.7666
 IR Inten    --     69.6903                75.1199                 8.5678

                     28                     29                     30
                      A                      A                      A
 Frequencies --    795.7199               811.9981               831.1732
 Red. masses --      6.4042                 2.7256                 2.2541
 Frc consts  --      2.3891                 1.0588                 0.9175
 IR Inten    --      4.1425                 1.6587                46.6751

                     31                     32                     33
                      A                      A                      A
 Frequencies --    888.7433               912.2741               921.2819
 Red. masses --      6.9869                 1.3879                 1.4629
 Frc consts  --      3.2515                 0.6806                 0.7316
 IR Inten    --     89.0836                 0.0082                 0.0961

                     34                     35                     36
                      A                      A                      A
 Frequencies --    928.1041              1001.5432              1004.9817
 Red. masses --      6.4389                 1.3826                 1.3238
 Frc consts  --      3.2678                 0.8171                 0.7878
 IR Inten    --      4.6661                 1.9385                 0.8048

                     37                     38                     39
                      A                      A                      A
 Frequencies --   1012.3646              1022.7982              1054.6838
 Red. masses --      2.7198                 1.3283                 1.9219
 Frc consts  --      1.6424                 0.8187                 1.2596
 IR Inten    --    130.0681                 0.0216                 1.7699

                     40                     41                     42
                      A                      A                      A
 Frequencies --   1064.8116              1111.9145              1123.8177
 Red. masses --      2.5391                 2.3167                 1.7562
 Frc consts  --      1.6962                 1.6876                 1.3068
 IR Inten    --     14.2119                 1.3260                 8.5117

                     43                     44                     45
                      A                      A                      A
 Frequencies --   1173.0829              1183.7515              1194.5151
 Red. masses --      1.4044                 1.7582                 1.1986
 Frc consts  --      1.1387                 1.4516                 1.0076
 IR Inten    --      2.2990                48.6218                62.7805

                     46                     47                     48
                      A                      A                      A
 Frequencies --   1211.2532              1267.6155              1280.4085
 Red. masses --      1.8749                 1.8666                 5.0470
 Frc consts  --      1.6207                 1.7671                 4.8750
 IR Inten    --     21.4663                69.0051              1517.8524

                     49                     50                     51
                      A                      A                      A
 Frequencies --   1320.3911              1356.5284              1362.3903
 Red. masses --      2.3104                 7.9100                 4.2280
 Frc consts  --      2.3732                 8.5760                 4.6237
 IR Inten    --     48.9076                20.6388                 6.4824

                     52                     53                     54
                      A                      A                      A
 Frequencies --   1400.8663              1470.0448              1473.9912
 Red. masses --      5.8383                 2.7103                 2.7221
 Frc consts  --      6.7504                 3.4509                 3.4846
 IR Inten    --    122.1790               142.1458                 6.8690

                     55                     56                     57
                      A                      A                      A
 Frequencies --   1484.5558              1505.4723              1566.8944
 Red. masses --      2.5149                 2.6461                 3.6581
 Frc consts  --      3.2656                 3.5335                 5.2916
 IR Inten    --     12.0482                 0.3317               463.0942

                     58                     59                     60
                      A                      A                      A
 Frequencies --   1595.4646              1607.9816              1620.8282
 Red. masses --      2.2660                 4.1944                 5.9356
 Frc consts  --      3.3985                 6.3897                 9.1873
 IR Inten    --    168.9027                28.5259               349.3004

                     61                     62                     63
                      A                      A                      A
 Frequencies --   1626.6550              1656.8855              1690.8663
 Red. masses --      3.7892                 7.0734                11.0689
 Frc consts  --      5.9073                11.4411                18.6454
 IR Inten    --    343.6024               356.4216               303.4662

                     64                     65                     66
                      A                      A                      A
 Frequencies --   3170.1599              3177.1830              3186.9104
 Red. masses --      1.0880                 1.0874                 1.0940
 Frc consts  --      6.4423                 6.4672                 6.5465
 IR Inten    --      9.7070                 3.6989                24.9991

                     67                     68                     69
                      A                      A                      A
 Frequencies --   3189.9450              3203.2507              3207.3708
 Red. masses --      1.0916                 1.0931                 1.0942
 Frc consts  --      6.5446                 6.6084                 6.6323
 IR Inten    --     13.0657                 8.1075                17.5330

                     70                     71                     72
                      A                      A                      A
 Frequencies --   3212.5720              3535.0976              3692.9191
 Red. masses --      1.0926                 1.0495                 1.1022
 Frc consts  --      6.6439                 7.7276                 8.8566
 IR Inten    --      4.2101               137.8949               165.3800

 - Thermochemistry -
 -------------------
 Temperature   298.150 Kelvin.  Pressure   1.00000 Atm.
 Atom     1 has atomic number  7 and mass  14.00307

 Molecular mass:   223.06333 amu.
 Principal axes and moments of inertia in atomic units:
                           1         2         3
     Eigenvalues --  1990.302534485.716016476.01512
           X            0.99532  -0.09198   0.02957
           Y            0.09454   0.99032  -0.10165
           Z           -0.01993   0.10397   0.99438
 This molecule is an asymmetric top.
 Rotational symmetry number  1.
 Warning -- assumption of classical behavior for rotation
           may cause significant error
 Rotational temperatures (Kelvin)      0.04352     0.01931     0.01337
 Rotational constants (GHZ):           0.90677     0.40233     0.27868
 Zero-point vibrational energy     513132.8 (Joules/Mol)
                                  122.64168 (Kcal/Mol)
 Warning -- explicit consideration of  19 degrees of freedom as
           vibrations may cause significant error
 Vibrational temperatures:     55.84   102.67   165.29   203.65   271.16
          (Kelvin)            318.17   324.34   363.45   466.25   501.78
                              558.40   601.01   611.25   623.57   650.27
                              695.70   703.16   801.24   806.11   893.64
                              904.81   961.25   964.95  1009.14  1039.50
                             1070.01  1134.04  1144.86  1168.28  1195.87
                             1278.70  1312.56  1325.52  1335.33  1441.00
                             1445.94  1456.57  1471.58  1517.45  1532.03
                             1599.80  1616.92  1687.80  1703.15  1718.64
                             1742.72  1823.82  1842.22  1899.75  1951.74
                             1960.18  2015.53  2115.07  2120.74  2135.94
                             2166.04  2254.41  2295.52  2313.53  2332.01
                             2340.39  2383.89  2432.78  4561.15  4571.26
                             4585.25  4589.62  4608.76  4614.69  4622.17
                             5086.22  5313.29

 Zero-point correction=                           0.195442 (Hartree/Particle)
 Thermal correction to Energy=                    0.208220
 Thermal correction to Enthalpy=                  0.209164
 Thermal correction to Gibbs Free Energy=         0.156039
 Sum of electronic and zero-point Energies=           -744.153402
 Sum of electronic and thermal Energies=              -744.140625
 Sum of electronic and thermal Enthalpies=            -744.139680
 Sum of electronic and thermal Free Energies=         -744.192805

                     E (Thermal)             CV                S
                      KCal/Mol        Cal/Mol-Kelvin    Cal/Mol-Kelvin
 Total                  130.660             51.623            111.810
 Electronic               0.000              0.000              0.000
 Translational            0.889              2.981             42.109
 Rotational               0.889              2.981             32.425
 Vibrational            128.882             45.661             37.276
 Vibration     1          0.594              1.981              5.319
 Vibration     2          0.598              1.968              4.116
 Vibration     3          0.608              1.937              3.185
 Vibration     4          0.615              1.912              2.783
 Vibration     5          0.633              1.856              2.243
 Vibration     6          0.648              1.809              1.950
 Vibration     7          0.650              1.802              1.915
 Vibration     8          0.664              1.758              1.712
 Vibration     9          0.709              1.627              1.290
 Vibration    10          0.726              1.578              1.172
 Vibration    11          0.756              1.496              1.007
 Vibration    12          0.781              1.432              0.900
 Vibration    13          0.787              1.416              0.876
 Vibration    14          0.794              1.397              0.848
 Vibration    15          0.811              1.357              0.790
 Vibration    16          0.840              1.287              0.701
 Vibration    17          0.845              1.275              0.687
 Vibration    18          0.912              1.125              0.530
 Vibration    19          0.916              1.117              0.523

                           ! Non-Optimized Parameters !
 Normal termination of Gaussian 16 at Sat Feb 10 16:31:25 2024.
