 Gaussian 16, Revision A.03,
 Gaussian 16:  ES64L-G16RevA.03 25-Dec-2016

 ----------------------------------------------------------------
 #P UB3LYP/6-311++G(d,p) SCRF=(PCM,Solvent=n,n-DiMethylFormamide)
 ----------------------------------------------------------------

 -------
 Reduced
 -------
 Symbolic Z-matrix:
 Charge = -2 Multiplicity = 1

                         Standard orientation:
 ---------------------------------------------------------------------
 Center     Atomic      Atomic             Coordinates (Angstroms)
 Number     Number       Type             X           Y           Z
 ---------------------------------------------------------------------
      1          8           0        2.492460   -1.948576    1.157480
      2          7           0        2.936245   -1.211806    0.266373
      3          8           0        4.038951   -1.437052   -0.313011
      4          6           0        2.213272   -0.004417   -0.069758
      5          6           0        3.015976    1.114227   -0.205552
      6          6           0        2.447548    2.399424   -0.235546
      7          6           0        1.070517    2.532502   -0.087746
      8          6           0        0.217071    1.428057    0.010122
      9          6           0       -1.215645    1.694012    0.118232
     10          8           0       -1.696060    2.870715    0.214870
     11          6           0       -2.057254    0.511692    0.064613
     12          6           0       -3.461222    0.651120    0.175150
     13          6           0       -4.310767   -0.435579    0.108266
     14          6           0       -3.765747   -1.733024   -0.081040
     15          6           0       -2.400396   -1.895228   -0.201230
     16          6           0       -1.501711   -0.801124   -0.131772
     17          6           0       -0.068401   -1.068157   -0.272009
     18          8           0        0.358827   -2.232980   -0.563694
     19          6           0        0.770184    0.076060   -0.072923
     20          1           0        4.090277    0.974749   -0.212407
     21          1           0        3.087514    3.274992   -0.308304
     22          1           0        0.600047    3.510101   -0.047344
     23          1           0       -3.840933    1.658863    0.312560
     24          1           0       -5.386960   -0.300868    0.198494
     25          1           0       -4.425500   -2.597667   -0.131610
     26          1           0       -1.952126   -2.871775   -0.354018
 ---------------------------------------------------------------------

 SCF Done:  E(UB3LYP) =  -893.763902944     A.U. after   20 cycles

 The electronic state is 1-A.
 Alpha  occ. eigenvalues --  -19.11825 -19.10980 -19.04810 -19.02807 -14.49331
 Alpha  occ. eigenvalues --  -10.20387 -10.20106 -10.18526 -10.17429 -10.16485
 Alpha  occ. eigenvalues --  -10.16243 -10.15995 -10.15976 -10.15849 -10.15544
 Alpha  occ. eigenvalues --  -10.15497 -10.15424 -10.15302 -10.15021  -1.17367
 Alpha  occ. eigenvalues --   -1.00104  -0.96772  -0.95031  -0.85130  -0.83696
 Alpha  occ. eigenvalues --   -0.77962  -0.76371  -0.73439  -0.72210  -0.67616
 Alpha  occ. eigenvalues --   -0.64650  -0.61319  -0.60328  -0.56012  -0.53827
 Alpha  occ. eigenvalues --   -0.52485  -0.51459  -0.48761  -0.48142  -0.47841
 Alpha  occ. eigenvalues --   -0.45361  -0.44520  -0.43933  -0.43024  -0.40897
 Alpha  occ. eigenvalues --   -0.39513  -0.39004  -0.38823  -0.37834  -0.36485
 Alpha  occ. eigenvalues --   -0.35366  -0.34597  -0.34211  -0.32990  -0.31790
 Alpha  occ. eigenvalues --   -0.31631  -0.28469  -0.28140  -0.26993  -0.24269
 Alpha  occ. eigenvalues --   -0.24035  -0.23299  -0.22835  -0.22076  -0.20334
 Alpha  occ. eigenvalues --   -0.11965
 Alpha virt. eigenvalues --   -0.07021  -0.02703  -0.00785   0.00123   0.00780
 Alpha virt. eigenvalues --    0.01353   0.01771   0.02593   0.02884   0.04673
 Alpha virt. eigenvalues --    0.04787   0.04957   0.05438   0.06135   0.06461

  Beta  occ. eigenvalues --  -19.11825 -19.10980 -19.04810 -19.02807 -14.49331
  Beta  occ. eigenvalues --  -10.20387 -10.20106 -10.18526 -10.17429 -10.16485
  Beta  occ. eigenvalues --  -10.16243 -10.15995 -10.15976 -10.15849 -10.15544
  Beta  occ. eigenvalues --  -10.15497 -10.15424 -10.15302 -10.15021  -1.17367
  Beta  occ. eigenvalues --   -1.00104  -0.96772  -0.95031  -0.85130  -0.83696
  Beta  occ. eigenvalues --   -0.77962  -0.76371  -0.73439  -0.72210  -0.67616
  Beta  occ. eigenvalues --   -0.64650  -0.61319  -0.60328  -0.56012  -0.53827
  Beta  occ. eigenvalues --   -0.52485  -0.51459  -0.48761  -0.48142  -0.47841
  Beta  occ. eigenvalues --   -0.45361  -0.44520  -0.43933  -0.43024  -0.40897
  Beta  occ. eigenvalues --   -0.39513  -0.39004  -0.38823  -0.37834  -0.36485
  Beta  occ. eigenvalues --   -0.35366  -0.34597  -0.34211  -0.32990  -0.31790
  Beta  occ. eigenvalues --   -0.31631  -0.28469  -0.28140  -0.26993  -0.24269
  Beta  occ. eigenvalues --   -0.24035  -0.23299  -0.22835  -0.22076  -0.20334
  Beta  occ. eigenvalues --   -0.11965
  Beta virt. eigenvalues --   -0.07021  -0.02703  -0.00785   0.00123   0.00780
  Beta virt. eigenvalues --    0.01353   0.01771   0.02593   0.02884   0.04673
  Beta virt. eigenvalues --    0.04787   0.04957   0.05438   0.06135   0.06461

 Mulliken charges and spin densities:
               1          2
     1  O   -0.148977   0.000000
     2  N   -0.163825  -0.000000
     3  O   -0.205131   0.000000
     4  C   -0.207172  -0.000000
     5  C   -0.047205   0.000000
     6  C   -0.673216   0.000000
     7  C   -0.146548  -0.000000
     8  C    0.879598  -0.000000
     9  C   -0.231059  -0.000000
    10  O   -0.541568  -0.000000
    11  C    0.342904   0.000000
    12  C    0.039279   0.000000
    13  C   -0.548159   0.000000
    14  C   -0.513680  -0.000000
    15  C    0.020414   0.000000
    16  C    0.055159  -0.000000
    17  C   -0.609369   0.000000
    18  O   -0.577837  -0.000000
    19  C    0.072475  -0.000000
    20  H    0.217353  -0.000000
    21  H    0.174985   0.000000
    22  H    0.158428  -0.000000
    23  H    0.156557   0.000000
    24  H    0.168527   0.000000
    25  H    0.169164   0.000000
    26  H    0.158902   0.000000
 Sum of Mulliken charges =  -2.00000  -0.00000

 Dipole moment (field-independent basis, Debye):
    X=             -4.7361    Y=              4.8542    Z=             -0.0452  Tot=              6.7820
 Quadrupole moment (field-independent basis, Debye-Ang):
   XX=           -163.2932   YY=           -163.7464   ZZ=           -123.5777
   XY=             35.7650   XZ=              0.0172   YZ=             -2.0402

 Normal termination of Gaussian 16 at Sun Jan 14 01:30:36 2024.
