 Q-Chem 6.0, Q-Chem, Inc., Pleasanton, CA (2022)
 Q-Chem 6.0.2 for Intel X86 EM64T Linux

User input:
--------------------------------------------------------------
$molecule
-2 1
C                  0.3774040000      1.8278680000     -1.2680180000
C                 -0.7157090000      1.2397050000     -1.8736290000
C                 -0.7704530000     -0.1675760000     -2.0236200000
C                  1.4615240000      1.0528260000     -0.7847930000
C                  1.4071230000     -0.3794100000     -0.9378610000
C                  0.2789140000     -0.9455920000     -1.5596080000
C                  2.5901590000      1.6757160000     -0.1547360000
C                  3.6218740000      0.7919830000      0.2938070000
C                  3.6035300000     -0.5927080000      0.1706170000
C                  2.4902160000     -1.2504500000     -0.4634850000
O                  2.7499200000      2.9463460000      0.0426780000
O                  2.4418400000     -2.5163780000     -0.5984020000
O                  4.6717400000      1.4504500000      0.8903110000
H                  0.4407180000      2.9040140000     -1.1429230000
H                 -1.5346600000      1.8569250000     -2.2368610000
H                 -1.6293710000     -0.6328940000     -2.5008680000
H                  0.2676170000     -2.0260380000     -1.6616120000
H                  4.3546820000      2.3834830000      0.8144330000
C                  4.7314390000     -1.4385890000      0.7022880000
C                  5.7885060000     -1.7856720000     -0.3685580000
C                  6.8672930000     -2.7882320000      0.1120380000
C                  7.7730670000     -3.2388800000     -1.0229340000
C                  8.6750380000     -2.3605340000     -1.6411210000
C                  7.7337090000     -4.5571750000     -1.4940490000
C                  9.5144120000     -2.7820490000     -2.6699590000
C                  9.4623350000     -4.1037370000     -3.1030490000
C                  8.5653490000     -4.9944640000     -2.5247490000
H                  4.3033080000     -2.3785470000      1.0709630000
H                  5.2080120000     -0.9179380000      1.5377930000
H                  6.2717800000     -0.8631260000     -0.7127670000
H                  5.2682250000     -2.2175940000     -1.2279710000
H                  6.3346090000     -3.6803620000      0.4644960000
C                  7.6920030000     -2.2459760000      1.2964540000
H                  8.7189610000     -1.3258000000     -1.3197210000
H                  7.0296970000     -5.2538680000     -1.0501110000
H                  8.5205090000     -6.0162480000     -2.8845790000
O                 10.2475960000     -4.5038570000     -4.1837110000
C                 11.4531640000     -5.1351170000     -3.9666510000
C                 12.0066830000     -5.3472970000     -2.7031970000
C                 12.1317620000     -5.5622600000     -5.1124880000
C                 13.3602720000     -6.2009980000     -4.9904650000
C                 13.2416000000     -5.9909350000     -2.5983220000
C                 13.9235960000     -6.4209040000     -3.7325370000
H                 10.2048420000     -2.0950090000     -3.1461780000
H                  7.0483960000     -2.0446370000      2.1549630000
H                  8.1909920000     -1.3073110000      1.0355240000
H                  8.4604350000     -2.9632290000      1.6034200000
H                 11.4817680000     -5.0146110000     -1.8166130000
H                 11.6819050000     -5.3851630000     -6.0835590000
H                 13.8834390000     -6.5321380000     -5.8844000000
H                 13.6714940000     -6.1555760000     -1.6139150000
H                 14.8830570000     -6.9218920000     -3.6416590000
$end
$rem
MAX_SCF_CYCLES=200
SCF_GUESS = SADMO
BASIS  =  6-311++G(d,p)
GUI  =  2
JOB_TYPE  =  SP
SCF_CONVERGENCE  = 6
METHOD  =  B3LYP
SOLVENT_METHOD = COSMO
$end
$solvent
dielectric 37.219
opticaldielectric 1.43
$end

--------------------------------------------------------------

             Standard Nuclear Orientation (Angstroms)
    I     Atom           X                Y                Z
 ----------------------------------------------------------------
    1      C       6.9492559797     0.8667976217    -1.2081497196
    2      C       7.4439412139     2.0844131163    -0.7835375964
    3      C       6.7693377676     2.8087568893     0.2294630488
    4      C       5.7692706712     0.3127470452    -0.6512158750
    5      C       5.0815022171     1.0496677548     0.3791295343
    6      C       5.6127574606     2.2868921175     0.7878234043
    7      C       5.2672193055    -0.9546452061    -1.0989234203
    8      C       4.0703999471    -1.4126271577    -0.4629307830
    9      C       3.3823136768    -0.7353064685     0.5373968695
   10      C       3.8535361529     0.5427067878     1.0051675849
   11      O       5.7976348694    -1.7077190409    -2.0102606741
   12      O       3.2459623502     1.1938929553     1.9161709796
   13      O       3.6443293846    -2.6324306514    -0.9342669081
   14      H       7.4494464155     0.2949382015    -1.9830909860
   15      H       8.3512046284     2.4884170817    -1.2276464200
   16      H       7.1561759048     3.7679052282     0.5647500080
   17      H       5.0719655488     2.8186629535     1.5641351222
   18      H       4.3489141083    -2.8137150126    -1.6032438680
   19      C       2.1420373998    -1.3182447377     1.1637076244
   20      C       0.8363610392    -0.8100802847     0.5144414715
   21      C      -0.4506825814    -1.2656881856     1.2464391624
   22      C      -1.6941715129    -0.5953933309     0.6842010593
   23      C      -2.1676225896    -0.8800217752    -0.6049960840
   24      C      -2.4121435113     0.3386787794     1.4414497665
   25      C      -3.3165873027    -0.2753533133    -1.1099588318
   26      C      -4.0167621176     0.6358866027    -0.3247612927
   27      C      -3.5627141267     0.9548447379     0.9498035321
   28      H       2.1290064436    -1.0265657610     2.2208225753
   29      H       2.1865497186    -2.4092619855     1.1007162635
   30      H       0.8000797664    -1.1389396426    -0.5313404889
   31      H       0.8664347131     0.2830330579     0.5082421304
   32      H      -0.3560577828    -0.9334451515     2.2878495216
   33      C      -0.6086662293    -2.7992276410     1.2645311661
   34      H      -1.6261781448    -1.5809135221    -1.2306879515
   35      H      -2.0568905794     0.5958764745     2.4342940042
   36      H      -4.1059035241     1.6811388572     1.5439187801
   37      O      -5.1216274268     1.2972164475    -0.8599964707
   38      C      -6.3949610183     0.8386910112    -0.6004306356
   39      C      -6.6742577415    -0.3224814745     0.1216437683
   40      C      -7.4381451956     1.6110929569    -1.1210560531
   41      C      -8.7562902089     1.2202423546    -0.9165024033
   42      C      -8.0041295320    -0.7006854656     0.3183450633
   43      C      -9.0488827193     0.0621659379    -0.1944746566
   44      H      -3.6725268678    -0.4969136547    -2.1098188838
   45      H       0.2289014074    -3.2675062037     1.7851084496
   46      H      -0.6311837253    -3.2076162775     0.2492094667
   47      H      -1.5350907826    -3.0945587445     1.7682025035
   48      H      -5.8661571424    -0.9210917481     0.5227498429
   49      H      -7.1960689840     2.5088657961    -1.6797300116
   50      H      -9.5638541077     1.8248107726    -1.3224762586
   51      H      -8.2202528888    -1.6050557159     0.8808197709
   52      H     -10.0804062102    -0.2387147211    -0.0355932096
 ----------------------------------------------------------------

  199   -1305.2764949214      6.70e-07  Convergence criterion met
 Total energy in the final basis set =    -1305.2764949214
    7   -1305.5312606666      9.36e-07  Convergence criterion met
 Total energy in the final basis set =    -1305.5312606666

                    Orbital Energies (a.u.)
 --------------------------------------------------------------

 Alpha MOs
 -- Occupied --
-19.1673 -19.1137 -19.0307 -19.0222 -10.2437 -10.2344 -10.1796 -10.1796
-10.1792 -10.1775 -10.1774 -10.1774 -10.1767 -10.1752 -10.1751 -10.1749
-10.1748 -10.1713 -10.1696 -10.1639 -10.1498 -10.1490 -10.1481 -10.1451
-10.1446 -10.1436 -10.1412 -10.1372 -10.1331 -10.1248  -1.0842  -1.0284
 -0.9460  -0.9380  -0.8696  -0.8564  -0.8254  -0.8045  -0.7746  -0.7588
 -0.7537  -0.7525  -0.7344  -0.7224  -0.7145  -0.6857  -0.6500  -0.6369
 -0.6207  -0.6180  -0.6135  -0.5894  -0.5818  -0.5642  -0.5511  -0.5500
 -0.5361  -0.5055  -0.5038  -0.4880  -0.4796  -0.4759  -0.4677  -0.4533
 -0.4475  -0.4442  -0.4389  -0.4286  -0.4259  -0.4245  -0.4202  -0.4150
 -0.4098  -0.4060  -0.4006  -0.3953  -0.3915  -0.3802  -0.3750  -0.3687
 -0.3660  -0.3607  -0.3601  -0.3575  -0.3526  -0.3504  -0.3422  -0.3380
 -0.3333  -0.3285  -0.3222  -0.3130  -0.3114  -0.3073  -0.3007  -0.2995
 -0.2652  -0.2600  -0.2443  -0.2347  -0.2314  -0.2278  -0.2194  -0.2003
 -0.1937  -0.1099

          Ground-State Mulliken Net Atomic Charges

     Atom                 Charge (a.u.)
  ----------------------------------------
      1 C                    -0.080983
      2 C                    -0.435614
      3 C                    -0.537343
      4 C                     0.301130
      5 C                     0.100626
      6 C                     0.005250
      7 C                    -0.932286
      8 C                    -0.802301
      9 C                     2.108563
     10 C                    -0.827733
     11 O                    -0.767735
     12 O                    -0.672230
     13 O                    -0.335822
     14 H                     0.157823
     15 H                     0.175908
     16 H                     0.171671
     17 H                     0.154459
     18 H                     0.288420
     19 C                    -0.193111
     20 C                    -1.055150
     21 C                     0.185787
     22 C                     0.752097
     23 C                    -0.327530
     24 C                    -0.248542
     25 C                    -0.062359
     26 C                    -0.360525
     27 C                    -0.082384
     28 H                     0.158837
     29 H                     0.244622
     30 H                     0.171207
     31 H                     0.197657
     32 H                     0.204874
     33 C                    -0.763915
     34 H                     0.204984
     35 H                     0.196968
     36 H                     0.229578
     37 O                    -0.077192
     38 C                    -0.219721
     39 C                     0.081475
     40 C                    -0.271018
     41 C                    -0.235357
     42 C                    -0.180498
     43 C                    -0.355971
     44 H                     0.224498
     45 H                     0.145463
     46 H                     0.169075
     47 H                     0.156046
     48 H                     0.189859
     49 H                     0.207413
     50 H                     0.216977
     51 H                     0.235459
     52 H                     0.188587
  ----------------------------------------
  Sum of atomic charges =    -2.000004

                    Cartesian Multipole Moments
 -----------------------------------------------------------------
    Charge (ESU x 10^10)
                -9.6064
    Dipole Moment (Debye)
         X     -42.6778      Y      -0.1459      Z       1.7023
       Tot      42.7120
    Quadrupole Moments (Debye-Ang)
        XX    -409.1014     XY      14.6427     YY    -209.1464
        XZ      15.9683     YZ     -18.4455     ZZ    -210.5107

 Total job time:  3352.19s(wall), 26341.89s(cpu)
        *  Thank you very much for using Q-Chem.  Have a nice day.  *
