 Q-Chem 5.4, Q-Chem, Inc., Pleasanton, CA (2021)
 Q-Chem 5.4.0 for Intel X86 EM64T Linux

User input:
--------------------------------------------------------------
$molecule
-1 2
O                 -1.0928960000      1.7445260000     -1.8638000000
C                 -0.8128180000      0.8793770000     -1.0090500000
C                 -1.8276060000     -0.0190670000     -0.4667030000
C                 -1.5529050000     -0.9665370000      0.4611190000
C                 -0.2158970000     -1.1796200000      1.0073150000
O                  0.0101180000     -2.0602930000      1.8620890000
C                  0.8198550000     -0.2943730000      0.4827290000
C                  0.5347970000      0.6891780000     -0.4804430000
C                  1.5561090000      1.5436730000     -0.9811350000
N                  2.3874920000      2.2396130000     -1.3890670000
C                  2.1389110000     -0.4663620000      0.9873680000
N                  3.2129780000     -0.6064020000      1.3980900000
H                 -2.8314230000      0.1186840000     -0.8567370000
H                 -2.3267160000     -1.6223960000      0.8482260000
$end
$rem
MAX_SCF_CYCLES=200
BASIS  =  6-311++G(d,p)
GUI  =  2
JOB_TYPE  =  SP
METHOD  =  B3LYP
SOLVENT_METHOD = PCM
$end
$pcm
theory = CPCM
$end
$solvent
dielectric 37.219
opticaldielectric 1.43
$end

--------------------------------------------------------------

             Standard Nuclear Orientation (Angstroms)
    I     Atom           X                Y                Z
 ----------------------------------------------------------------
    1      O      -1.0928960000     1.7445260000    -1.8638000000
    2      C      -0.8128180000     0.8793770000    -1.0090500000
    3      C      -1.8276060000    -0.0190670000    -0.4667030000
    4      C      -1.5529050000    -0.9665370000     0.4611190000
    5      C      -0.2158970000    -1.1796200000     1.0073150000
    6      O       0.0101180000    -2.0602930000     1.8620890000
    7      C       0.8198550000    -0.2943730000     0.4827290000
    8      C       0.5347970000     0.6891780000    -0.4804430000
    9      C       1.5561090000     1.5436730000    -0.9811350000
   10      N       2.3874920000     2.2396130000    -1.3890670000
   11      C       2.1389110000    -0.4663620000     0.9873680000
   12      N       3.2129780000    -0.6064020000     1.3980900000
   13      H      -2.8314230000     0.1186840000    -0.8567370000
   14      H      -2.3267160000    -1.6223960000     0.8482260000
 ----------------------------------------------------------------

    9    -566.2793079641      4.16e-06  Convergence criterion met
 Total energy in the final basis set =     -566.2793079641

                    Orbital Energies (a.u.)
 --------------------------------------------------------------

 Alpha MOs
 -- Occupied --
-19.1106 -19.1106 -14.3275 -14.3275 -10.2609 -10.2609 -10.2308 -10.2303
-10.2286 -10.2286 -10.1937 -10.1930  -1.0394  -1.0370  -0.9317  -0.9247
 -0.8647  -0.7981  -0.7409  -0.6680  -0.6337  -0.5455  -0.5349  -0.5132
 -0.4691  -0.4524  -0.4442  -0.4205  -0.4123  -0.4064  -0.3922  -0.3897
 -0.3869  -0.3705  -0.3578  -0.3517  -0.3070  -0.2860  -0.2753  -0.2710
 -0.1980

 Beta MOs
 -- Occupied --
-19.1044 -19.1043 -14.3261 -14.3261 -10.2604 -10.2604 -10.2292 -10.2292
-10.2281 -10.2276 -10.1934 -10.1927  -1.0289  -1.0262  -0.9292  -0.9226
 -0.8581  -0.7954  -0.7311  -0.6641  -0.6305  -0.5422  -0.5318  -0.5107
 -0.4673  -0.4376  -0.4367  -0.4168  -0.4046  -0.3912  -0.3900  -0.3876
 -0.3764  -0.3601  -0.3566  -0.3508  -0.2809  -0.2732  -0.2694  -0.2651

          Ground-State Mulliken Net Atomic Charges

     Atom                 Charge (a.u.)    Spin (a.u.)
  --------------------------------------------------------
      1 O                    -0.425956       0.228749
      2 C                    -0.775840       0.006624
      3 C                     0.133359       0.026291
      4 C                     0.134211       0.026300
      5 C                    -0.774460       0.006727
      6 O                    -0.425839       0.228781
      7 C                     1.716128       0.199058
      8 C                     1.709146       0.199105
      9 C                    -1.077102      -0.026978
     10 N                    -0.307988       0.069033
     11 C                    -1.076633      -0.027034
     12 N                    -0.307789       0.069053
     13 H                     0.239389      -0.002853
     14 H                     0.239374      -0.002857
  --------------------------------------------------------
  Sum of atomic charges =    -1.000000

                    Cartesian Multipole Moments
 -----------------------------------------------------------------
    Charge (ESU x 10^10)
                -4.8032
    Dipole Moment (Debye)
         X      -8.3754      Y      -2.4450      Z      -0.0114
       Tot       8.7250
    Quadrupole Moments (Debye-Ang)
        XX     -96.4434     XY      -0.4873     YY     -95.0699
        XZ      -6.8488     YZ      23.4743     ZZ     -91.9172

 Total job time:  16.67s(wall), 121.96s(cpu)
        *  Thank you very much for using Q-Chem.  Have a nice day.  *
