 Gaussian 16, Revision A.03,
 Gaussian 16:  ES64L-G16RevA.03 25-Dec-2016

 ----------------------------------------------------------------
 #P UB3LYP/6-311++G(d,p) SCRF=(PCM,Solvent=n,n-DiMethylFormamide)
 ----------------------------------------------------------------

 -------
 Reduced
 -------
 Symbolic Z-matrix:
 Charge = -3 Multiplicity = 1

                         Standard orientation:
 ---------------------------------------------------------------------
 Center     Atomic      Atomic             Coordinates (Angstroms)
 Number     Number       Type             X           Y           Z
 ---------------------------------------------------------------------
      1          6           0        3.737948   -1.855931    0.020820
      2          6           0        5.057932   -1.451674    0.013148
      3          6           0        5.368724   -0.062614   -0.016774
      4          6           0        2.665046   -0.928703   -0.000346
      5          6           0        2.980358    0.480730   -0.000256
      6          6           0        4.347970    0.864763   -0.025351
      7          6           0        1.303186   -1.397977   -0.006966
      8          6           0        0.256566   -0.399560   -0.000623
      9          6           0        0.581378    1.004465    0.003366
     10          6           0        1.945856    1.473477    0.010876
     11          6           0       -1.125751   -0.815372   -0.001179
     12          6           0       -2.141355    0.143889   -0.001986
     13          6           0       -0.494600    1.947130    0.001907
     14          6           0       -1.807178    1.515789   -0.001095
     15          8           0        1.033876   -2.671281   -0.007701
     16          8           0        2.224086    2.751671    0.014128
     17          8           0       -1.407845   -2.133621    0.000286
     18          1           0        3.474142   -2.908246    0.039950
     19          1           0        5.862827   -2.185520    0.025679
     20          1           0        6.410160    0.258361   -0.030266
     21          1           0       -0.500250   -2.586780   -0.001448
     22          8           0       -0.219596    3.289495    0.001778
     23          1           0       -2.610916    2.240539   -0.002766
     24          1           0        0.798868    3.320407    0.005076
     25          1           0        4.557440    1.929217   -0.046063
     26         16           0       -3.931134   -0.282929   -0.000923
     27          8           0       -4.196975   -1.062750   -1.245374
     28          8           0       -4.198063   -1.050129    1.251211
     29          8           0       -4.629309    1.045169   -0.007909
 ---------------------------------------------------------------------

 SCF Done:  E(UB3LYP) =  -1463.18685707     A.U. after   16 cycles

 The electronic state is 1-A.
 Alpha  occ. eigenvalues --  -89.02794 -19.10423 -19.09830 -19.07316 -19.07313
 Alpha  occ. eigenvalues --  -19.07151 -19.04279 -19.03966 -10.21163 -10.19911
 Alpha  occ. eigenvalues --  -10.18941 -10.18547 -10.16218 -10.15401 -10.15317
 Alpha  occ. eigenvalues --  -10.15163 -10.15131 -10.14985 -10.14701 -10.14412
 Alpha  occ. eigenvalues --  -10.14373 -10.13801  -8.08639  -6.04927  -6.04914
 Alpha  occ. eigenvalues --   -6.04793  -1.08734  -1.02837  -1.01505  -0.95597
 Alpha  occ. eigenvalues --   -0.95280  -0.94963  -0.94895  -0.83346  -0.81794
 Alpha  occ. eigenvalues --   -0.76237  -0.72942  -0.71866  -0.70520  -0.65064
 Alpha  occ. eigenvalues --   -0.62350  -0.60729  -0.58185  -0.56000  -0.54423
 Alpha  occ. eigenvalues --   -0.51368  -0.50005  -0.49017  -0.47699  -0.46205
 Alpha  occ. eigenvalues --   -0.44157  -0.43569  -0.43545  -0.43137  -0.41024
 Alpha  occ. eigenvalues --   -0.40580  -0.40192  -0.39469  -0.38545  -0.38447
 Alpha  occ. eigenvalues --   -0.37355  -0.37164  -0.36548  -0.34994  -0.33413
 Alpha  occ. eigenvalues --   -0.32852  -0.32754  -0.31844  -0.31711  -0.31562
 Alpha  occ. eigenvalues --   -0.30833  -0.29228  -0.27653  -0.27205  -0.27115
 Alpha  occ. eigenvalues --   -0.23849  -0.23574  -0.23441  -0.22527  -0.22164
 Alpha  occ. eigenvalues --   -0.21305  -0.18591  -0.11336
 Alpha virt. eigenvalues --   -0.02570  -0.00367   0.00303   0.01292   0.01691
 Alpha virt. eigenvalues --    0.02589   0.02962   0.03086   0.04581   0.04894
 Alpha virt. eigenvalues --    0.05013   0.05143   0.05810   0.06642   0.06834

  Beta  occ. eigenvalues --  -89.02794 -19.10423 -19.09830 -19.07316 -19.07313
  Beta  occ. eigenvalues --  -19.07151 -19.04279 -19.03966 -10.21163 -10.19911
  Beta  occ. eigenvalues --  -10.18941 -10.18547 -10.16218 -10.15401 -10.15317
  Beta  occ. eigenvalues --  -10.15163 -10.15131 -10.14985 -10.14701 -10.14412
  Beta  occ. eigenvalues --  -10.14373 -10.13801  -8.08639  -6.04927  -6.04914
  Beta  occ. eigenvalues --   -6.04793  -1.08734  -1.02837  -1.01505  -0.95597
  Beta  occ. eigenvalues --   -0.95280  -0.94963  -0.94895  -0.83346  -0.81794
  Beta  occ. eigenvalues --   -0.76237  -0.72942  -0.71866  -0.70520  -0.65064
  Beta  occ. eigenvalues --   -0.62350  -0.60729  -0.58185  -0.56000  -0.54423
  Beta  occ. eigenvalues --   -0.51368  -0.50005  -0.49017  -0.47699  -0.46205
  Beta  occ. eigenvalues --   -0.44157  -0.43569  -0.43545  -0.43137  -0.41024
  Beta  occ. eigenvalues --   -0.40580  -0.40192  -0.39469  -0.38545  -0.38447
  Beta  occ. eigenvalues --   -0.37355  -0.37164  -0.36548  -0.34994  -0.33413
  Beta  occ. eigenvalues --   -0.32852  -0.32754  -0.31844  -0.31711  -0.31562
  Beta  occ. eigenvalues --   -0.30833  -0.29228  -0.27653  -0.27205  -0.27115
  Beta  occ. eigenvalues --   -0.23849  -0.23574  -0.23441  -0.22527  -0.22164
  Beta  occ. eigenvalues --   -0.21305  -0.18591  -0.11336
  Beta virt. eigenvalues --   -0.02570  -0.00367   0.00303   0.01292   0.01691
  Beta virt. eigenvalues --    0.02589   0.02962   0.03086   0.04581   0.04894
  Beta virt. eigenvalues --    0.05013   0.05143   0.05810   0.06642   0.06834

 Mulliken charges and spin densities:
               1          2
     1  C   -0.120589   0.000000
     2  C   -0.474152   0.000000
     3  C   -0.515856  -0.000000
     4  C    0.222824  -0.000000
     5  C    0.139283   0.000000
     6  C   -0.106367  -0.000000
     7  C   -0.277488  -0.000000
     8  C    0.274865   0.000000
     9  C    0.738509   0.000000
    10  C   -0.338348   0.000000
    11  C   -0.519479   0.000000
    12  C   -0.363683  -0.000000
    13  C   -0.387173   0.000000
    14  C   -0.245656  -0.000000
    15  O   -0.640011  -0.000000
    16  O   -0.655004   0.000000
    17  O   -0.424023   0.000000
    18  H    0.151116   0.000000
    19  H    0.164647   0.000000
    20  H    0.162801   0.000000
    21  H    0.405912   0.000000
    22  O   -0.476218   0.000000
    23  H    0.211504   0.000000
    24  H    0.374708  -0.000000
    25  H    0.156419  -0.000000
    26  S    0.769692  -0.000000
    27  O   -0.407658   0.000000
    28  O   -0.409453   0.000000
    29  O   -0.411120   0.000000
 Sum of Mulliken charges =  -3.00000   0.00000

 Dipole moment (field-independent basis, Debye):
    X=             15.5531    Y=             -0.0164    Z=             -0.0150  Tot=             15.5531
 Quadrupole moment (field-independent basis, Debye-Ang):
   XX=           -297.0648   YY=           -208.5647   ZZ=           -155.5294
   XY=            -16.2077   XZ=             -0.1100   YZ=             -0.2950

 Normal termination of Gaussian 16 at Tue Jan 16 06:44:07 2024.
