 Gaussian 16, Revision A.03,
 Gaussian 16:  ES64L-G16RevA.03 25-Dec-2016

 --------------------------------------
 #P UB3LYP/6-311++G(d,p) nosym opt freq
 --------------------------------------

 --------
 Oxidized
 --------
 Symbolic Z-matrix:
 Charge =  0 Multiplicity = 1

 SCF Done:  E(UB3LYP) =  -653.231891225     A.U. after   15 cycles
 SCF Done:  E(UB3LYP) =  -653.237774466     A.U. after   14 cycles
 SCF Done:  E(UB3LYP) =  -653.238008345     A.U. after   13 cycles
 SCF Done:  E(UB3LYP) =  -653.238324993     A.U. after   11 cycles
 SCF Done:  E(UB3LYP) =  -653.238331279     A.U. after   10 cycles
 SCF Done:  E(UB3LYP) =  -653.238331002     A.U. after   10 cycles
 SCF Done:  E(UB3LYP) =  -653.238331052     A.U. after   10 cycles
 SCF Done:  E(UB3LYP) =  -653.238331413     A.U. after    9 cycles
 SCF Done:  E(UB3LYP) =  -653.238331797     A.U. after    9 cycles
 Optimization completed.
    -- Stationary point found.
 Normal termination of Gaussian 16 at Tue Dec 26 20:23:54 2023.

 ----------------------------------------------------------------------
 #P Geom=AllCheck Guess=TCheck SCRF=Check GenChk UB3LYP/6-311++G(d,p) F
 req
 ----------------------------------------------------------------------

 Structure from the checkpoint file:  "255.chk"
 --------
 Oxidized
 --------
 Charge =  0 Multiplicity = 1

                          Input orientation:
 ---------------------------------------------------------------------
 Center     Atomic      Atomic             Coordinates (Angstroms)
 Number     Number       Type             X           Y           Z
 ---------------------------------------------------------------------
      1          6           0       -1.627895    2.778625    0.020044
      2          6           0       -2.892100    2.201756    0.015955
      3          6           0       -3.013364    0.819666    0.006185
      4          6           0       -0.499051    1.964072    0.014331
      5          6           0       -0.613304    0.554278    0.004405
      6          6           0       -1.899931   -0.034643    0.000187
      7          6           0        0.830982    2.646397    0.019147
      8          6           0        2.069318    1.819913    0.013268
      9          6           0        1.975658    0.470541    0.003847
     10          6           0        0.655000   -0.240834   -0.001079
     11          8           0        0.900250    3.867060    0.027589
     12          8           0        0.674485   -1.464136   -0.009405
     13          6           0        3.376196    2.569852    0.018441
     14          6           0        3.169588   -0.441180   -0.002540
     15          6           0       -2.202723   -1.518404   -0.010360
     16          1           0       -1.492023    3.852268    0.027611
     17          1           0       -3.778587    2.825968    0.020347
     18          1           0       -4.002161    0.371817    0.002981
     19          1           0        3.189492    3.641940    0.025939
     20          1           0        3.973918    2.327856   -0.864900
     21          1           0        3.974004    2.315544    0.898259
     22          1           0        4.106411    0.111806    0.001341
     23          1           0        3.145589   -1.093751   -0.879567
     24          1           0        3.145580   -1.105982    0.865252
     25          1           0       -1.314073   -2.135750   -0.014811
     26          1           0       -2.805831   -1.761269   -0.891293
     27          1           0       -2.805708   -1.773811    0.867105
 ---------------------------------------------------------------------

 SCF Done:  E(UB3LYP) =  -653.238331797     A.U. after    1 cycles

 Alpha  occ. eigenvalues --  -19.12505 -19.12499 -10.27775 -10.27423 -10.21184
 Alpha  occ. eigenvalues --  -10.21164 -10.21033 -10.20824 -10.20424 -10.19727
 Alpha  occ. eigenvalues --  -10.19386 -10.19189 -10.17698 -10.17557 -10.16703
 Alpha  occ. eigenvalues --   -1.06060  -1.05806  -0.88830  -0.85107  -0.79521
 Alpha  occ. eigenvalues --   -0.78656  -0.75090  -0.71082  -0.69851  -0.66886
 Alpha  occ. eigenvalues --   -0.62141  -0.61393  -0.56720  -0.54546  -0.51850
 Alpha  occ. eigenvalues --   -0.49613  -0.47466  -0.46382  -0.46242  -0.45196
 Alpha  occ. eigenvalues --   -0.43407  -0.42814  -0.42647  -0.41997  -0.41458
 Alpha  occ. eigenvalues --   -0.41236  -0.39836  -0.39612  -0.39498  -0.38245
 Alpha  occ. eigenvalues --   -0.36966  -0.36586  -0.36453  -0.28812  -0.27919
 Alpha  occ. eigenvalues --   -0.27225  -0.26568  -0.26369
 Alpha virt. eigenvalues --   -0.11750  -0.05284  -0.03029  -0.01191  -0.00583
 Alpha virt. eigenvalues --    0.00741   0.01818   0.02006   0.02299   0.02636
 Alpha virt. eigenvalues --    0.03493   0.03557   0.04374   0.04573   0.05144

  Beta  occ. eigenvalues --  -19.12505 -19.12499 -10.27775 -10.27423 -10.21184
  Beta  occ. eigenvalues --  -10.21164 -10.21033 -10.20824 -10.20424 -10.19727
  Beta  occ. eigenvalues --  -10.19386 -10.19189 -10.17698 -10.17557 -10.16703
  Beta  occ. eigenvalues --   -1.06060  -1.05806  -0.88830  -0.85107  -0.79521
  Beta  occ. eigenvalues --   -0.78656  -0.75090  -0.71082  -0.69851  -0.66886
  Beta  occ. eigenvalues --   -0.62141  -0.61393  -0.56720  -0.54546  -0.51850
  Beta  occ. eigenvalues --   -0.49613  -0.47466  -0.46382  -0.46242  -0.45196
  Beta  occ. eigenvalues --   -0.43407  -0.42814  -0.42647  -0.41997  -0.41458
  Beta  occ. eigenvalues --   -0.41236  -0.39836  -0.39612  -0.39498  -0.38245
  Beta  occ. eigenvalues --   -0.36966  -0.36586  -0.36453  -0.28812  -0.27919
  Beta  occ. eigenvalues --   -0.27225  -0.26568  -0.26369
  Beta virt. eigenvalues --   -0.11750  -0.05284  -0.03029  -0.01191  -0.00583
  Beta virt. eigenvalues --    0.00741   0.01818   0.02006   0.02299   0.02636
  Beta virt. eigenvalues --    0.03493   0.03557   0.04374   0.04573   0.05144

 Mulliken charges and spin densities:
               1          2
     1  C   -0.065563   0.000000
     2  C   -0.137611  -0.000000
     3  C   -0.057820  -0.000000
     4  C    0.436471   0.000000
     5  C    0.909680   0.000000
     6  C    0.231267   0.000000
     7  C   -1.457535  -0.000000
     8  C    0.413437  -0.000000
     9  C    0.992005  -0.000000
    10  C   -1.449989   0.000000
    11  O   -0.217123   0.000000
    12  O   -0.187064  -0.000000
    13  C   -0.491100   0.000000
    14  C   -0.507828  -0.000000
    15  C   -0.510584   0.000000
    16  H    0.180458   0.000000
    17  H    0.180551   0.000000
    18  H    0.163440  -0.000000
    19  H    0.217918   0.000000
    20  H    0.166215   0.000000
    21  H    0.166211   0.000000
    22  H    0.152371   0.000000
    23  H    0.184574   0.000000
    24  H    0.184583   0.000000
    25  H    0.188974  -0.000000
    26  H    0.157013   0.000000
    27  H    0.157044   0.000000
 Sum of Mulliken charges =  -0.00000   0.00000

 Dipole moment (field-independent basis, Debye):
    X=             -0.6680    Y=             -0.5566    Z=             -0.0043  Tot=              0.8695
 Quadrupole moment (field-independent basis, Debye-Ang):
   XX=            -72.1112   YY=           -101.5427   ZZ=            -89.1517
   XY=             -1.6134   XZ=             -0.0117   YZ=             -0.0854

  Exact polarizability: 200.509   5.249 192.891   0.039   0.740  87.183
 Approx polarizability: 281.455   4.966 363.226   0.038   1.556 140.353

 ******    2 imaginary frequencies (negative Signs) ******

                      1                      2                      3
                      A                      A                      A
 Frequencies --   -177.8296                -1.9279                44.4589
 Red. masses --      1.0437                 3.7818                 1.4449
 Frc consts  --      0.0194                 0.0000                 0.0017
 IR Inten    --      0.0047                 6.0719                 0.4364

                      4                      5                      6
                      A                      A                      A
 Frequencies --     59.1966                80.4642               107.3960
 Red. masses --      3.2616                 1.1733                 1.9931
 Frc consts  --      0.0067                 0.0045                 0.0135
 IR Inten    --      1.4540                 0.2578                 0.0417

                      7                      8                      9
                      A                      A                      A
 Frequencies --    166.3570               215.6892               248.9217
 Red. masses --      4.8241                 3.3802                 3.7091
 Frc consts  --      0.0787                 0.0926                 0.1354
 IR Inten    --      0.8554                 0.6824                 0.7180

                     10                     11                     12
                      A                      A                      A
 Frequencies --    291.9622               331.0949               350.7201
 Red. masses --      3.7787                 2.7063                 3.9574
 Frc consts  --      0.1898                 0.1748                 0.2868
 IR Inten    --      0.3515                 0.0383                 1.0876

                     13                     14                     15
                      A                      A                      A
 Frequencies --    363.3117               396.3755               420.2666
 Red. masses --      4.8983                 7.3929                 4.4477
 Frc consts  --      0.3809                 0.6844                 0.4628
 IR Inten    --      0.0719                 0.3945                 0.0204

                     16                     17                     18
                      A                      A                      A
 Frequencies --    423.7890               439.7106               496.7278
 Red. masses --      5.2831                 5.4693                 3.4847
 Frc consts  --      0.5590                 0.6230                 0.5066
 IR Inten    --      8.0414                26.5354                 1.7334

                     19                     20                     21
                      A                      A                      A
 Frequencies --    504.1353               519.5399               554.8332
 Red. masses --      7.4177                 3.7323                 5.0832
 Frc consts  --      1.1108                 0.5936                 0.9220
 IR Inten    --      2.3751                 1.7479                 0.7042

                     22                     23                     24
                      A                      A                      A
 Frequencies --    625.2768               698.8306               698.9820
 Red. masses --      5.8847                 3.8934                 4.3565
 Frc consts  --      1.3556                 1.1203                 1.2541
 IR Inten    --      2.1482                 6.8095                 2.9958

                     25                     26                     27
                      A                      A                      A
 Frequencies --    737.2806               785.8875               799.5070
 Red. masses --      4.1673                 3.9372                 3.9626
 Frc consts  --      1.3347                 1.4327                 1.4924
 IR Inten    --     27.4506                 5.3456                 1.7796

                     28                     29                     30
                      A                      A                      A
 Frequencies --    821.0904               846.3095               945.5493
 Red. masses --      1.6386                 4.5159                 2.6053
 Frc consts  --      0.6509                 1.9057                 1.3724
 IR Inten    --     19.3750                25.0697                 8.1329

                     31                     32                     33
                      A                      A                      A
 Frequencies --    950.4798               970.0127              1008.5512
 Red. masses --      1.3352                 4.0352                 1.5026
 Frc consts  --      0.7107                 2.2370                 0.9005
 IR Inten    --      0.3517                 6.7824                29.0271

                     34                     35                     36
                      A                      A                      A
 Frequencies --   1012.7938              1027.6175              1046.4166
 Red. masses --      1.3352                 1.4730                 2.2723
 Frc consts  --      0.8069                 0.9165                 1.4660
 IR Inten    --      0.3805                 0.2832                53.1462

                     37                     38                     39
                      A                      A                      A
 Frequencies --   1057.5666              1060.7174              1111.3425
 Red. masses --      1.5655                 1.5199                 2.0619
 Frc consts  --      1.0316                 1.0075                 1.5005
 IR Inten    --      0.0045                 1.5927                 5.3210

                     40                     41                     42
                      A                      A                      A
 Frequencies --   1121.9865              1175.6621              1192.6359
 Red. masses --      2.2453                 2.4666                 1.1989
 Frc consts  --      1.6653                 2.0087                 1.0047
 IR Inten    --     16.0000                 6.3208                 1.9395

                     43                     44                     45
                      A                      A                      A
 Frequencies --   1228.6414              1265.5008              1284.6872
 Red. masses --      6.0583                 2.0586                 6.0688
 Frc consts  --      5.3883                 1.9424                 5.9013
 IR Inten    --     20.3090                 5.5499               286.0231

                     46                     47                     48
                      A                      A                      A
 Frequencies --   1336.3554              1350.4402              1404.4488
 Red. masses --      3.8560                 7.7589                 1.2608
 Frc consts  --      4.0572                 8.3368                 1.4653
 IR Inten    --     38.5889                53.3495                34.0097

                     49                     50                     51
                      A                      A                      A
 Frequencies --   1405.1456              1414.9639              1445.3571
 Red. masses --      1.2477                 1.2604                 2.0342
 Frc consts  --      1.4515                 1.4867                 2.5038
 IR Inten    --      2.6483                24.4385                16.9720

                     52                     53                     54
                      A                      A                      A
 Frequencies --   1469.0597              1472.6395              1487.3644
 Red. masses --      1.1094                 1.0439                 1.8569
 Frc consts  --      1.4107                 1.3339                 2.4203
 IR Inten    --      3.4719                12.6400                 1.7433

                     55                     56                     57
                      A                      A                      A
 Frequencies --   1490.1003              1494.8357              1505.1716
 Red. masses --      1.1302                 1.5308                 1.0441
 Frc consts  --      1.4785                 2.0153                 1.3937
 IR Inten    --      7.6325                19.3949                 4.9163

                     58                     59                     60
                      A                      A                      A
 Frequencies --   1511.3442              1607.2239              1624.4035
 Red. masses --      1.0437                 5.3844                 5.9804
 Frc consts  --      1.4046                 8.1948                 9.2975
 IR Inten    --      7.6024                20.3039                39.2838

                     61                     62                     63
                      A                      A                      A
 Frequencies --   1676.1838              1701.1804              1706.2619
 Red. masses --      8.2679                11.5394                12.2318
 Frc consts  --     13.6863                19.6758                20.9812
 IR Inten    --     59.7661                72.0847               343.8198

                     64                     65                     66
                      A                      A                      A
 Frequencies --   3025.3879              3032.8227              3042.3521
 Red. masses --      1.0449                 1.0399                 1.0392
 Frc consts  --      5.6351                 5.6357                 5.6672
 IR Inten    --     22.0432                14.4252                 8.8244

                     67                     68                     69
                      A                      A                      A
 Frequencies --   3066.7670              3080.8523              3085.7606
 Red. masses --      1.0991                 1.1000                 1.0983
 Frc consts  --      6.0904                 6.1514                 6.1616
 IR Inten    --     14.2100                15.0372                 3.3204

                     70                     71                     72
                      A                      A                      A
 Frequencies --   3140.6942              3145.3409              3157.4120
 Red. masses --      1.0972                 1.0989                 1.0879
 Frc consts  --      6.3766                 6.4056                 6.3900
 IR Inten    --      8.1095                10.2224                 8.2556

                     73                     74                     75
                      A                      A                      A
 Frequencies --   3179.5587              3203.4076              3206.7900
 Red. masses --      1.0929                 1.0926                 1.0932
 Frc consts  --      6.5097                 6.6061                 6.6233
 IR Inten    --     14.6972                 8.5636                 3.9826

 - Thermochemistry -
 -------------------
 Temperature   298.150 Kelvin.  Pressure   1.00000 Atm.
 Atom     1 has atomic number  6 and mass  12.00000

 Molecular mass:   200.08373 amu.
 Principal axes and moments of inertia in atomic units:
                           1         2         3
     Eigenvalues --  1968.110133161.637565096.47287
           X            0.97822  -0.20755  -0.00002
           Y            0.20755   0.97820  -0.00700
           Z            0.00147   0.00684   0.99998
 This molecule is an asymmetric top.
 Rotational symmetry number  1.
 Warning -- assumption of classical behavior for rotation
           may cause significant error
 Rotational temperatures (Kelvin)      0.04401     0.02740     0.01699
 Rotational constants (GHZ):           0.91699     0.57082     0.35412
    2 imaginary frequencies ignored.
 Zero-point vibrational energy     561993.1 (Joules/Mol)
                                  134.31956 (Kcal/Mol)
 Warning -- explicit consideration of  19 degrees of freedom as
           vibrations may cause significant error
 Vibrational temperatures:     63.97    85.17   115.77   154.52   239.35
          (Kelvin)            310.33   358.14   420.07   476.37   504.61
                              522.72   570.30   604.67   609.74   632.65
                              714.68   725.34   747.50   798.28   899.63
                             1005.46  1005.68  1060.78  1130.72  1150.31
                             1181.37  1217.65  1360.43  1367.53  1395.63
                             1451.08  1457.18  1478.51  1505.56  1521.60
                             1526.14  1598.97  1614.29  1691.52  1715.94
                             1767.74  1820.77  1848.38  1922.72  1942.98
                             2020.69  2021.69  2035.82  2079.55  2113.65
                             2118.80  2139.99  2143.92  2150.74  2165.61
                             2174.49  2312.44  2337.15  2411.65  2447.62
                             2454.93  4352.86  4363.56  4377.27  4412.39
                             4432.66  4439.72  4518.76  4525.44  4542.81
                             4574.68  4608.99  4613.86

 Zero-point correction=                           0.214052 (Hartree/Particle)
 Thermal correction to Energy=                    0.226520
 Thermal correction to Enthalpy=                  0.227464
 Thermal correction to Gibbs Free Energy=         0.174722
 Sum of electronic and zero-point Energies=           -653.024280
 Sum of electronic and thermal Energies=              -653.011812
 Sum of electronic and thermal Enthalpies=            -653.010868
 Sum of electronic and thermal Free Energies=         -653.063610

                     E (Thermal)             CV                S
                      KCal/Mol        Cal/Mol-Kelvin    Cal/Mol-Kelvin
 Total                  142.143             48.383            111.006
 Electronic               0.000              0.000              0.000
 Translational            0.889              2.981             41.785
 Rotational               0.889              2.981             31.828
 Vibrational            140.366             42.422             37.392
 Vibration     1          0.595              1.980              5.050
 Vibration     2          0.597              1.974              4.484
 Vibration     3          0.600              1.962              3.880
 Vibration     4          0.606              1.943              3.315
 Vibration     5          0.624              1.884              2.476
 Vibration     6          0.645              1.817              1.995
 Vibration     7          0.662              1.765              1.738
 Vibration     8          0.687              1.689              1.463
 Vibration     9          0.713              1.613              1.255
 Vibration    10          0.728              1.574              1.163
 Vibration    11          0.737              1.548              1.108
 Vibration    12          0.763              1.478              0.976
 Vibration    13          0.783              1.426              0.891
 Vibration    14          0.786              1.419              0.879
 Vibration    15          0.800              1.384              0.828
 Vibration    16          0.852              1.257              0.666
 Vibration    17          0.859              1.241              0.648
 Vibration    18          0.875              1.207              0.611
 Vibration    19          0.910              1.129              0.534

                           ! Non-Optimized Parameters !
 Normal termination of Gaussian 16 at Tue Dec 26 20:48:55 2023.
