 Gaussian 16, Revision A.03,
 Gaussian 16:  ES64L-G16RevA.03 25-Dec-2016

 ----------------------------------------------------------------
 #P UB3LYP/6-311++G(d,p) SCRF=(PCM,Solvent=n,n-DiMethylFormamide)
 ----------------------------------------------------------------

 -------
 Reduced
 -------
 Symbolic Z-matrix:
 Charge = -2 Multiplicity = 1

                         Standard orientation:
 ---------------------------------------------------------------------
 Center     Atomic      Atomic             Coordinates (Angstroms)
 Number     Number       Type             X           Y           Z
 ---------------------------------------------------------------------
      1         17           0        2.765377    0.969432   -0.000028
      2          6           0        1.157467    0.119093   -0.000010
      3          6           0        1.192217   -1.274670    0.000005
      4          6           0       -0.000212   -2.068494    0.000009
      5          8           0       -0.000501   -3.367468    0.000006
      6          6           0       -1.192279   -1.274278    0.000004
      7          6           0       -1.157310    0.119472    0.000012
      8         17           0       -2.765317    0.969848   -0.000030
      9          6           0        0.000033    0.968867    0.000088
     10          8           0        0.000402    2.251311    0.000040
     11          1           0        2.148315   -1.789139   -0.000005
     12          1           0       -2.148038   -1.789298   -0.000031
 ---------------------------------------------------------------------

 SCF Done:  E(UB3LYP) =  -1301.09231158     A.U. after   17 cycles

 The electronic state is 1-A.
 Alpha  occ. eigenvalues -- -101.52820-101.52820 -19.02773 -19.02173 -10.19505
 Alpha  occ. eigenvalues --  -10.19484 -10.19447 -10.18392 -10.13721 -10.13718
 Alpha  occ. eigenvalues --   -9.44237  -9.44236  -7.20625  -7.20625  -7.19774
 Alpha  occ. eigenvalues --   -7.19773  -7.19729  -7.19729  -0.94880  -0.93251
 Alpha  occ. eigenvalues --   -0.83938  -0.83041  -0.76943  -0.68994  -0.66369
 Alpha  occ. eigenvalues --   -0.55962  -0.53938  -0.45478  -0.44475  -0.41770
 Alpha  occ. eigenvalues --   -0.38890  -0.38576  -0.37105  -0.34882  -0.34077
 Alpha  occ. eigenvalues --   -0.33272  -0.32698  -0.29965  -0.29806  -0.29170
 Alpha  occ. eigenvalues --   -0.23334  -0.21667  -0.21115  -0.20262  -0.13131
 Alpha virt. eigenvalues --    0.00035   0.00783   0.01144   0.02113   0.03432
 Alpha virt. eigenvalues --    0.03511   0.05185   0.05453   0.06272   0.06811
 Alpha virt. eigenvalues --    0.07890   0.08284   0.09149   0.09182   0.09343

  Beta  occ. eigenvalues -- -101.52820-101.52820 -19.02773 -19.02173 -10.19505
  Beta  occ. eigenvalues --  -10.19484 -10.19447 -10.18392 -10.13721 -10.13718
  Beta  occ. eigenvalues --   -9.44237  -9.44236  -7.20625  -7.20625  -7.19774
  Beta  occ. eigenvalues --   -7.19773  -7.19729  -7.19729  -0.94880  -0.93251
  Beta  occ. eigenvalues --   -0.83938  -0.83041  -0.76943  -0.68994  -0.66369
  Beta  occ. eigenvalues --   -0.55962  -0.53938  -0.45478  -0.44475  -0.41770
  Beta  occ. eigenvalues --   -0.38890  -0.38576  -0.37105  -0.34882  -0.34077
  Beta  occ. eigenvalues --   -0.33272  -0.32698  -0.29965  -0.29806  -0.29170
  Beta  occ. eigenvalues --   -0.23334  -0.21667  -0.21115  -0.20262  -0.13131
  Beta virt. eigenvalues --    0.00035   0.00783   0.01144   0.02113   0.03432
  Beta virt. eigenvalues --    0.03511   0.05185   0.05453   0.06272   0.06811
  Beta virt. eigenvalues --    0.07890   0.08284   0.09149   0.09182   0.09343

 Mulliken charges and spin densities:
               1          2
     1  Cl   0.118897   0.000000
     2  C    1.052767  -0.000000
     3  C   -0.660571   0.000000
     4  C   -0.686148  -0.000000
     5  O   -0.719132   0.000000
     6  C   -0.661111   0.000000
     7  C    1.053341  -0.000000
     8  Cl   0.118787   0.000000
     9  C   -1.312556   0.000000
    10  O   -0.607222  -0.000000
    11  H    0.151480  -0.000000
    12  H    0.151469  -0.000000
 Sum of Mulliken charges =  -2.00000  -0.00000

 Dipole moment (field-independent basis, Debye):
    X=              0.0020    Y=              2.7239    Z=             -0.0001  Tot=              2.7239
 Quadrupole moment (field-independent basis, Debye-Ang):
   XX=            -95.4514   YY=           -143.0683   ZZ=            -79.4701
   XY=             -0.0071   XZ=              0.0001   YZ=             -0.0002

 Normal termination of Gaussian 16 at Sun Jan 21 07:32:25 2024.
