 Gaussian 16, Revision A.03,
 Gaussian 16:  ES64L-G16RevA.03 25-Dec-2016

 ----------------------------------------------
 #P UB3LYP/6-311++G(d,p) nosym opt freq SCF=YQC
 ----------------------------------------------

 -------
 Reduced
 -------
 Symbolic Z-matrix:
 Charge = -2 Multiplicity = 1

 SCF Done:  E(UB3LYP) =  -799.591612320     a.u. after    8 cycles
 SCF Done:  E(UB3LYP) =  -799.600691809     A.U. after   33 cycles
 SCF Done:  E(UB3LYP) =  -799.600691809     a.u. after    1 cycles
 SCF Done:  E(UB3LYP) =  -799.632497079     a.u. after   43 cycles
 SCF Done:  E(UB3LYP) =  -799.632841959     A.U. after   26 cycles
 SCF Done:  E(UB3LYP) =  -799.651265912     a.u. after   28 cycles
 SCF Done:  E(UB3LYP) =  -799.651671906     A.U. after   26 cycles
 SCF Done:  E(UB3LYP) =  -799.662746937     a.u. after   26 cycles
 SCF Done:  E(UB3LYP) =  -799.662991770     A.U. after   24 cycles
 SCF Done:  E(UB3LYP) =  -799.668642113     a.u. after   33 cycles
 SCF Done:  E(UB3LYP) =  -799.679840724     a.u. after    1 cycles
 SCF Done:  E(UB3LYP) =  -799.679843887     A.U. after   20 cycles
 SCF Done:  E(UB3LYP) =  -799.679814236     a.u. after    1 cycles
 SCF Done:  E(UB3LYP) =  -799.679821216     A.U. after   17 cycles
 SCF Done:  E(UB3LYP) =  -799.679818188     a.u. after    1 cycles
 SCF Done:  E(UB3LYP) =  -799.679843883     A.U. after   20 cycles
 SCF Done:  E(UB3LYP) =  -799.679814959     a.u. after    1 cycles
 SCF Done:  E(UB3LYP) =  -799.679821360     A.U. after   16 cycles
 Optimization completed.
    -- Stationary point found.
 Normal termination of Gaussian 16 at Thu Dec 21 17:23:00 2023.

 ----------------------------------------------------------------------
 #P Geom=AllCheck Guess=TCheck SCRF=Check GenChk UB3LYP/6-311++G(d,p) F
 req
 ----------------------------------------------------------------------

 Structure from the checkpoint file:  "165-an.chk"
 -------
 Reduced
 -------
 Charge = -2 Multiplicity = 1

                          Input orientation:
 ---------------------------------------------------------------------
 Center     Atomic      Atomic             Coordinates (Angstroms)
 Number     Number       Type             X           Y           Z
 ---------------------------------------------------------------------
      1          7           0       -4.518273   -0.048084    0.189349
      2          6           0       -3.123900   -0.374857    0.277871
      3          6           0       -2.748526   -1.627015    0.824861
      4          6           0       -1.418194   -1.960146    0.942119
      5          6           0       -0.386368   -1.072811    0.551014
      6          6           0        0.987903   -1.503065    0.740008
      7          8           0        1.292586   -2.634941    1.257028
      8          6           0        1.990986   -0.557701    0.298412
      9          6           0        3.363558   -0.878242    0.437100
     10          6           0        4.365677   -0.020371    0.030217
     11          6           0        4.018750    1.233253   -0.550004
     12          6           0        2.691315    1.574330   -0.701244
     13          6           0        1.636354    0.713323   -0.293732
     14          6           0        0.270969    1.134737   -0.480643
     15          8           0        0.003471    2.287353   -1.031745
     16          6           0       -0.743182    0.210618   -0.025829
     17          6           0       -2.148771    0.513524   -0.165422
     18          7           0       -2.557665    1.746298   -0.740862
     19          1           0       -5.014037   -0.608090   -0.510505
     20          1           0       -4.629889    0.931024   -0.052845
     21          1           0       -3.530137   -2.294771    1.180118
     22          1           0       -1.106606   -2.908981    1.365137
     23          1           0        3.589956   -1.842105    0.883001
     24          1           0        5.411636   -0.296820    0.151527
     25          1           0        4.800294    1.919369   -0.872929
     26          1           0        2.398291    2.522309   -1.140761
     27          1           0       -1.694646    2.239874   -1.044105
     28          1           0       -3.201550    1.601987   -1.517135
 ---------------------------------------------------------------------

 SCF Done:  E(UB3LYP) =  -799.679821360     a.u. after    1 cycles
 SCF Done:  E(UB3LYP) =  -799.679821360     A.U. after    1 cycles

 Alpha  occ. eigenvalues --  -18.79359 -18.78862 -14.08856 -14.05818  -9.95884
 Alpha  occ. eigenvalues --   -9.95251  -9.94924  -9.94771  -9.93518  -9.93380
 Alpha  occ. eigenvalues --   -9.92659  -9.92586  -9.92402  -9.91567  -9.91539
 Alpha  occ. eigenvalues --   -9.91112  -9.90933  -9.90657  -0.71196  -0.70574
 Alpha  occ. eigenvalues --   -0.68647  -0.63966  -0.60263  -0.57877  -0.52409
 Alpha  occ. eigenvalues --   -0.50118  -0.47927  -0.47134  -0.40866  -0.38522
 Alpha  occ. eigenvalues --   -0.36796  -0.33617  -0.30618  -0.29267  -0.28281
 Alpha  occ. eigenvalues --   -0.26713  -0.24871  -0.22508  -0.22077  -0.20966
 Alpha  occ. eigenvalues --   -0.19801  -0.18387  -0.17694  -0.16032  -0.15382
 Alpha  occ. eigenvalues --   -0.14727  -0.13522  -0.12713  -0.12508  -0.10591
 Alpha  occ. eigenvalues --   -0.09901  -0.09447  -0.08712  -0.07698  -0.06047
 Alpha  occ. eigenvalues --   -0.04658  -0.00557   0.00575   0.01609   0.02735
 Alpha  occ. eigenvalues --    0.03565   0.04101   0.12779
 Alpha virt. eigenvalues --    0.14860   0.15807   0.17553   0.17650   0.19043
 Alpha virt. eigenvalues --    0.20053   0.20217   0.20506   0.20912   0.22236
 Alpha virt. eigenvalues --    0.22697   0.24266   0.24764   0.24944   0.25171

  Beta  occ. eigenvalues --  -18.79359 -18.78862 -14.08856 -14.05818  -9.95884
  Beta  occ. eigenvalues --   -9.95251  -9.94924  -9.94771  -9.93518  -9.93380
  Beta  occ. eigenvalues --   -9.92659  -9.92586  -9.92402  -9.91567  -9.91539
  Beta  occ. eigenvalues --   -9.91112  -9.90933  -9.90657  -0.71196  -0.70574
  Beta  occ. eigenvalues --   -0.68647  -0.63966  -0.60263  -0.57877  -0.52409
  Beta  occ. eigenvalues --   -0.50118  -0.47927  -0.47134  -0.40866  -0.38522
  Beta  occ. eigenvalues --   -0.36796  -0.33617  -0.30618  -0.29267  -0.28281
  Beta  occ. eigenvalues --   -0.26713  -0.24871  -0.22508  -0.22077  -0.20966
  Beta  occ. eigenvalues --   -0.19801  -0.18387  -0.17694  -0.16032  -0.15382
  Beta  occ. eigenvalues --   -0.14727  -0.13522  -0.12713  -0.12508  -0.10591
  Beta  occ. eigenvalues --   -0.09901  -0.09447  -0.08712  -0.07698  -0.06047
  Beta  occ. eigenvalues --   -0.04658  -0.00557   0.00575   0.01609   0.02735
  Beta  occ. eigenvalues --    0.03565   0.04101   0.12779
  Beta virt. eigenvalues --    0.14860   0.15807   0.17553   0.17650   0.19043
  Beta virt. eigenvalues --    0.20053   0.20217   0.20506   0.20912   0.22236
  Beta virt. eigenvalues --    0.22697   0.24266   0.24764   0.24944   0.25171

 Mulliken charges and spin densities:
               1          2
     1  N   -0.482272  -0.000000
     2  C    0.120553   0.000000
     3  C   -0.372335  -0.000000
     4  C   -0.037844  -0.000000
     5  C    0.597895   0.000000
     6  C   -0.768589   0.000000
     7  O   -0.485311   0.000000
     8  C    0.188500   0.000000
     9  C   -0.007770   0.000000
    10  C   -0.402807   0.000000
    11  C   -0.508082   0.000000
    12  C    0.054600   0.000000
    13  C    0.308216   0.000000
    14  C   -0.596450   0.000000
    15  O   -0.499580   0.000000
    16  C    0.280099   0.000000
    17  C    0.116919   0.000000
    18  N   -0.451817   0.000000
    19  H   -0.219791  -0.000000
    20  H    0.163768  -0.000000
    21  H    0.045409  -0.000000
    22  H    0.129891  -0.000000
    23  H    0.126105  -0.000000
    24  H    0.076033  -0.000000
    25  H    0.075650  -0.000000
    26  H    0.130269  -0.000000
    27  H    0.317870  -0.000000
    28  H    0.100870  -0.000000
 Sum of Mulliken charges =  -2.00000   0.00000

 Dipole moment (field-independent basis, Debye):
    X=              0.8843    Y=              1.9306    Z=             -1.6396  Tot=              2.6829
 Quadrupole moment (field-independent basis, Debye-Ang):
   XX=           -198.3909   YY=           -157.8505   ZZ=           -128.2671
   XY=              0.7405   XZ=             -0.5712   YZ=             14.2065

  Exact polarizability:1616.562 123.431 365.922 276.942 -53.301 263.014
 Approx polarizability:3476.174 293.844 552.644 595.403 -75.524 417.286

                      1                      2                      3
                      A                      A                      A
 Frequencies --     51.5797                82.0547               125.4212
 Red. masses --      6.5344                 4.3272                 4.2814
 Frc consts  --      0.0102                 0.0172                 0.0397
 IR Inten    --      2.5068                 0.9514                15.8677

                      4                      5                      6
                      A                      A                      A
 Frequencies --    134.6387               173.4069               186.4783
 Red. masses --      4.5783                 1.2860                 5.5002
 Frc consts  --      0.0489                 0.0228                 0.1127
 IR Inten    --      0.3728                81.2016                 1.0982

                      7                      8                      9
                      A                      A                      A
 Frequencies --    209.6930               265.9048               294.7084
 Red. masses --      3.7025                 4.2348                 4.4119
 Frc consts  --      0.0959                 0.1764                 0.2258
 IR Inten    --      2.4713                 0.8696                45.4922

                     10                     11                     12
                      A                      A                      A
 Frequencies --    309.8127               330.8993               341.2959
 Red. masses --      5.4465                 4.9553                 3.9666
 Frc consts  --      0.3080                 0.3197                 0.2722
 IR Inten    --      5.3755               162.7896                28.9891

                     13                     14                     15
                      A                      A                      A
 Frequencies --    381.6952               400.0856               408.2938
 Red. masses --      5.3388                 4.0459                 6.6067
 Frc consts  --      0.4583                 0.3816                 0.6489
 IR Inten    --     81.5405                14.8287                 5.5746

                     16                     17                     18
                      A                      A                      A
 Frequencies --    434.9934               446.4614               477.8092
 Red. masses --      1.9257                 3.3964                 5.5045
 Frc consts  --      0.2147                 0.3989                 0.7404
 IR Inten    --    264.8776                 6.0917                10.0439

                     19                     20                     21
                      A                      A                      A
 Frequencies --    482.9383               515.8190               556.7094
 Red. masses --     11.3458                 4.2340                 4.1723
 Frc consts  --      1.5591                 0.6637                 0.7619
 IR Inten    --    412.5988                 6.9810                11.4220

                     22                     23                     24
                      A                      A                      A
 Frequencies --    570.7638               606.9492               644.8985
 Red. masses --      6.3382                 4.7781                 4.2907
 Frc consts  --      1.2165                 1.0371                 1.0514
 IR Inten    --     28.7482                 7.4098                 9.8729

                     25                     26                     27
                      A                      A                      A
 Frequencies --    658.0977               685.4015               689.1369
 Red. masses --      6.3384                 3.3521                 2.2066
 Frc consts  --      1.6174                 0.9278                 0.6174
 IR Inten    --     24.1562                40.8246                44.8668

                     28                     29                     30
                      A                      A                      A
 Frequencies --    723.5657               747.2078               758.4604
 Red. masses --      3.5958                 1.7717                 6.5752
 Frc consts  --      1.1092                 0.5828                 2.2286
 IR Inten    --      4.4437                 5.6367                34.2861

                     31                     32                     33
                      A                      A                      A
 Frequencies --    765.2483               787.7673               814.4611
 Red. masses --      2.2097                 1.6764                 5.9992
 Frc consts  --      0.7624                 0.6130                 2.3447
 IR Inten    --      5.8489                17.9538                91.5478

                     34                     35                     36
                      A                      A                      A
 Frequencies --    830.7195               859.7026               900.4707
 Red. masses --      4.2280                 1.4363                 6.0143
 Frc consts  --      1.7191                 0.6254                 2.8733
 IR Inten    --      4.3336               102.2103                 7.5422

                     37                     38                     39
                      A                      A                      A
 Frequencies --    945.8493               954.6772               960.1949
 Red. masses --      1.2689                 1.2572                 1.3520
 Frc consts  --      0.6688                 0.6751                 0.7344
 IR Inten    --      6.6703                 0.9021                 5.4976

                     40                     41                     42
                      A                      A                      A
 Frequencies --    967.3116              1003.6632              1011.6622
 Red. masses --      2.1115                 2.5752                 2.3318
 Frc consts  --      1.1641                 1.5284                 1.4061
 IR Inten    --    177.3513                82.9387               213.4450

                     43                     44                     45
                      A                      A                      A
 Frequencies --   1026.3205              1095.0245              1120.7617
 Red. masses --      2.2125                 2.1191                 1.4424
 Frc consts  --      1.3731                 1.4971                 1.0675
 IR Inten    --    107.5943                68.6878                59.2267

                     46                     47                     48
                      A                      A                      A
 Frequencies --   1142.6138              1155.4427              1174.3251
 Red. masses --      1.6246                 1.1879                 2.8962
 Frc consts  --      1.2497                 0.9344                 2.3532
 IR Inten    --    249.6541                51.0072               421.0019

                     49                     50                     51
                      A                      A                      A
 Frequencies --   1195.4992              1221.3989              1239.4698
 Red. masses --      1.9083                 2.6814                 2.8199
 Frc consts  --      1.6069                 2.3569                 2.5524
 IR Inten    --     81.3676               155.3082              1259.8817

                     52                     53                     54
                      A                      A                      A
 Frequencies --   1251.1979              1272.9003              1323.8155
 Red. masses --      2.7314                 2.8107                 5.3495
 Frc consts  --      2.5193                 2.6832                 5.5235
 IR Inten    --    105.5854                 5.7027               768.8719

                     55                     56                     57
                      A                      A                      A
 Frequencies --   1353.3427              1360.3736              1379.6529
 Red. masses --      7.1903                 2.0131                 3.2135
 Frc consts  --      7.7592                 2.1949                 3.6039
 IR Inten    --     93.9801                 8.8435               471.6798

                     58                     59                     60
                      A                      A                      A
 Frequencies --   1428.9459              1447.7416              1465.4453
 Red. masses --      4.4485                 3.9112                 2.6774
 Frc consts  --      5.3518                 4.8299                 3.3877
 IR Inten    --    242.0436              1173.5117               613.1191

                     61                     62                     63
                      A                      A                      A
 Frequencies --   1485.4863              1491.5339              1530.3575
 Red. masses --      4.6025                 4.5527                 5.2779
 Frc consts  --      5.9838                 5.9674                 7.2828
 IR Inten    --    445.7990               301.1039               218.1514

                     64                     65                     66
                      A                      A                      A
 Frequencies --   1565.8851              1585.6732              1598.2669
 Red. masses --      6.9202                 5.2700                 3.6129
 Frc consts  --      9.9974                 7.8070                 5.4375
 IR Inten    --   2034.8437               287.4361                 1.3231

                     67                     68                     69
                      A                      A                      A
 Frequencies --   1612.8107              1643.3412              3073.4749
 Red. masses --      1.1233                 1.3241                 1.0730
 Frc consts  --      1.7215                 2.1067                 5.9721
 IR Inten    --    166.1351               125.8945               496.2645

                     70                     71                     72
                      A                      A                      A
 Frequencies --   3090.9602              3114.8429              3121.7199
 Red. masses --      1.0826                 1.0905                 1.0870
 Frc consts  --      6.0941                 6.2337                 6.2409
 IR Inten    --     42.4201               279.4198                36.9830

                     73                     74                     75
                      A                      A                      A
 Frequencies --   3156.9098              3164.1599              3169.8724
 Red. masses --      1.0907                 1.0908                 1.0910
 Frc consts  --      6.4045                 6.4345                 6.4590
 IR Inten    --     92.9335               114.1621                26.1192

                     76                     77                     78
                      A                      A                      A
 Frequencies --   3344.3692              3444.7987              3542.9189
 Red. masses --      1.0604                 1.0774                 1.0794
 Frc consts  --      6.9879                 7.5326                 7.9829
 IR Inten    --   2135.9689               583.4068                72.8190

 - Thermochemistry -
 -------------------
 Temperature   298.150 Kelvin.  Pressure   1.00000 Atm.
 Atom     1 has atomic number  7 and mass  14.00307

 Molecular mass:   238.07423 amu.
 Principal axes and moments of inertia in atomic units:
                           1         2         3
     Eigenvalues --  2081.298715660.919307732.07786
           X            0.99838  -0.05657   0.00665
           Y            0.04845   0.90481   0.42305
           Z           -0.02995  -0.42204   0.90608
 This molecule is an asymmetric top.
 Rotational symmetry number  1.
 Warning -- assumption of classical behavior for rotation
           may cause significant error
 Rotational temperatures (Kelvin)      0.04162     0.01530     0.01120
 Rotational constants (GHZ):           0.86712     0.31881     0.23341
 Zero-point vibrational energy     543634.3 (Joules/Mol)
                                  129.93172 (Kcal/Mol)
 Warning -- explicit consideration of  23 degrees of freedom as
           vibrations may cause significant error
 Vibrational temperatures:     74.21   118.06   180.45   193.72   249.49
          (Kelvin)            268.30   301.70   382.58   424.02   445.75
                              476.09   491.05   549.17   575.63   587.44
                              625.86   642.36   687.46   694.84   742.15
                              800.98   821.20   873.26   927.87   946.86
                              986.14   991.51  1041.05  1075.07  1091.26
                             1101.02  1133.42  1171.83  1195.22  1236.92
                             1295.58  1360.87  1373.57  1381.51  1391.75
                             1444.05  1455.56  1476.65  1575.50  1612.53
                             1643.97  1662.42  1689.59  1720.06  1757.32
                             1783.32  1800.19  1831.42  1904.68  1947.16
                             1957.27  1985.01  2055.93  2082.98  2108.45
                             2137.28  2145.98  2201.84  2252.96  2281.43
                             2299.55  2320.47  2364.40  4422.04  4447.20
                             4481.56  4491.46  4542.09  4552.52  4560.74
                             4811.80  4956.30  5097.47

 Zero-point correction=                           0.207059 (Hartree/Particle)
 Thermal correction to Energy=                    0.221097
 Thermal correction to Enthalpy=                  0.222041
 Thermal correction to Gibbs Free Energy=         0.166916
 Sum of electronic and zero-point Energies=           -799.472762
 Sum of electronic and thermal Energies=              -799.458725
 Sum of electronic and thermal Enthalpies=            -799.457781
 Sum of electronic and thermal Free Energies=         -799.512905

                     E (Thermal)             CV                S
                      KCal/Mol        Cal/Mol-Kelvin    Cal/Mol-Kelvin
 Total                  138.740             57.504            116.019
 Electronic               0.000              0.000              0.000
 Translational            0.889              2.981             42.304
 Rotational               0.889              2.981             32.877
 Vibrational            136.963             51.542             40.839
 Vibration     1          0.596              1.977              4.756
 Vibration     2          0.600              1.961              3.841
 Vibration     3          0.610              1.928              3.015
 Vibration     4          0.613              1.919              2.879
 Vibration     5          0.627              1.875              2.398
 Vibration     6          0.632              1.858              2.263
 Vibration     7          0.642              1.826              2.046
 Vibration     8          0.672              1.736              1.623
 Vibration     9          0.689              1.684              1.447
 Vibration    10          0.699              1.655              1.363
 Vibration    11          0.713              1.614              1.256
 Vibration    12          0.721              1.593              1.206
 Vibration    13          0.751              1.509              1.032
 Vibration    14          0.766              1.470              0.962
 Vibration    15          0.773              1.452              0.933
 Vibration    16          0.796              1.394              0.842
 Vibration    17          0.806              1.369              0.807
 Vibration    18          0.834              1.299              0.716
 Vibration    19          0.839              1.288              0.702
 Vibration    20          0.871              1.215              0.620
 Vibration    21          0.912              1.125              0.530
 Vibration    22          0.927              1.094              0.503
 Vibration    23          0.966              1.017              0.438

                           ! Non-Optimized Parameters !
 Normal termination of Gaussian 16 at Thu Dec 21 18:15:52 2023.
