 Q-Chem 5.4, Q-Chem, Inc., Pleasanton, CA (2021)
 Q-Chem 5.4.0 for Intel X86 EM64T Linux

User input:
--------------------------------------------------------------
$molecule
-1 2
C                 -3.5871940000      0.2012120000      0.8473840000
C                 -3.6160990000     -0.1759780000     -0.5063370000
C                 -2.4281910000     -0.3666060000     -1.2000850000
C                 -1.1685500000     -0.1900360000     -0.5761290000
N                 -0.0295620000     -0.3860500000     -1.2886960000
C                  1.1391700000     -0.1979310000     -0.6226150000
C                  2.3704590000     -0.3834040000     -1.2981420000
C                  3.5872560000     -0.2012950000     -0.6539060000
C                  3.6159830000      0.1759550000      0.7000250000
C                  2.4283400000      0.3665890000      1.3937850000
C                  1.1685020000      0.1900570000      0.7699710000
N                  0.0296740000      0.3861340000      1.4827610000
C                 -1.1393010000      0.1979840000      0.8165730000
C                 -2.3704240000      0.3834120000      1.4919430000
H                 -4.5164840000      0.3502990000      1.3897780000
H                 -4.5673680000     -0.3186390000     -1.0108280000
H                 -2.4270920000     -0.6579960000     -2.2458370000
H                  2.3235960000     -0.6745950000     -2.3428280000
H                  4.5166710000     -0.3502750000     -1.1959220000
H                  4.5674470000      0.3185750000      1.2043700000
H                  2.4271700000      0.6579900000      2.4395740000
H                 -2.3240050000      0.6745980000      2.5366130000
$end
$rem
MAX_SCF_CYCLES=200
BASIS  =  6-311++G(d,p)
GUI  =  2
JOB_TYPE  =  SP
METHOD  =  B3LYP
SOLVENT_METHOD = PCM
$end
$pcm
theory = CPCM
$end
$solvent
dielectric 37.219
opticaldielectric 1.43
$end

--------------------------------------------------------------

             Standard Nuclear Orientation (Angstroms)
    I     Atom           X                Y                Z
 ----------------------------------------------------------------
    1      C      -3.5871940000     0.2012120000     0.8473840000
    2      C      -3.6160990000    -0.1759780000    -0.5063370000
    3      C      -2.4281910000    -0.3666060000    -1.2000850000
    4      C      -1.1685500000    -0.1900360000    -0.5761290000
    5      N      -0.0295620000    -0.3860500000    -1.2886960000
    6      C       1.1391700000    -0.1979310000    -0.6226150000
    7      C       2.3704590000    -0.3834040000    -1.2981420000
    8      C       3.5872560000    -0.2012950000    -0.6539060000
    9      C       3.6159830000     0.1759550000     0.7000250000
   10      C       2.4283400000     0.3665890000     1.3937850000
   11      C       1.1685020000     0.1900570000     0.7699710000
   12      N       0.0296740000     0.3861340000     1.4827610000
   13      C      -1.1393010000     0.1979840000     0.8165730000
   14      C      -2.3704240000     0.3834120000     1.4919430000
   15      H      -4.5164840000     0.3502990000     1.3897780000
   16      H      -4.5673680000    -0.3186390000    -1.0108280000
   17      H      -2.4270920000    -0.6579960000    -2.2458370000
   18      H       2.3235960000    -0.6745950000    -2.3428280000
   19      H       4.5166710000    -0.3502750000    -1.1959220000
   20      H       4.5674470000     0.3185750000     1.2043700000
   21      H       2.4271700000     0.6579900000     2.4395740000
   22      H      -2.3240050000     0.6745980000     2.5366130000
 ----------------------------------------------------------------

    8    -571.8738728640      4.07e-06  Convergence criterion met
 Total energy in the final basis set =     -571.8738728640

                    Orbital Energies (a.u.)
 --------------------------------------------------------------

 Alpha MOs
 -- Occupied --
-14.2831 -14.2831 -10.1931 -10.1931 -10.1927 -10.1927 -10.1615 -10.1615
-10.1610 -10.1610 -10.1562 -10.1562 -10.1562 -10.1562  -0.9480  -0.8809
 -0.8432  -0.8142  -0.7437  -0.7362  -0.7145  -0.6659  -0.6184  -0.5917
 -0.5792  -0.5436  -0.5287  -0.4780  -0.4676  -0.4579  -0.4450  -0.4209
 -0.4190  -0.4116  -0.4080  -0.3713  -0.3604  -0.3586  -0.3399  -0.3376
 -0.3354  -0.3136  -0.2900  -0.2528  -0.2439  -0.2333  -0.2131  -0.1282

 Beta MOs
 -- Occupied --
-14.2772 -14.2772 -10.1933 -10.1933 -10.1929 -10.1929 -10.1608 -10.1608
-10.1603 -10.1603 -10.1551 -10.1551 -10.1551 -10.1551  -0.9412  -0.8708
 -0.8405  -0.8104  -0.7410  -0.7338  -0.7111  -0.6598  -0.6172  -0.5885
 -0.5768  -0.5408  -0.5268  -0.4761  -0.4653  -0.4567  -0.4439  -0.4178
 -0.4105  -0.4091  -0.4064  -0.3704  -0.3568  -0.3531  -0.3389  -0.3359
 -0.3139  -0.3014  -0.2828  -0.2452  -0.2353  -0.2278  -0.1956

          Ground-State Mulliken Net Atomic Charges

     Atom                 Charge (a.u.)    Spin (a.u.)
  --------------------------------------------------------
      1 C                    -0.342238       0.059863
      2 C                    -0.340430       0.059138
      3 C                    -0.235263       0.045328
      4 C                     0.066118       0.018456
      5 N                    -0.206257       0.275818
      6 C                     0.068570       0.019344
      7 C                    -0.236670       0.044562
      8 C                    -0.341805       0.059889
      9 C                    -0.340158       0.059257
     10 C                    -0.235462       0.045102
     11 C                     0.065936       0.018571
     12 N                    -0.206430       0.275882
     13 C                     0.069043       0.019271
     14 C                    -0.236633       0.044557
     15 H                     0.184989      -0.004100
     16 H                     0.185038      -0.004041
     17 H                     0.177892      -0.007209
     18 H                     0.177908      -0.007170
     19 H                     0.185004      -0.004102
     20 H                     0.185033      -0.004047
     21 H                     0.177865      -0.007200
     22 H                     0.177950      -0.007168
  --------------------------------------------------------
  Sum of atomic charges =    -1.000000

                    Cartesian Multipole Moments
 -----------------------------------------------------------------
    Charge (ESU x 10^10)
                -4.8032
    Dipole Moment (Debye)
         X      -0.0007      Y      -0.0003      Z      -0.4663
       Tot       0.4663
    Quadrupole Moments (Debye-Ang)
        XX     -90.1375     XY      -0.0226     YY     -91.4091
        XZ      -0.0936     YZ      -1.0346     ZZ     -94.8166

 Total job time:  35.13s(wall), 228.42s(cpu)
        *  Thank you very much for using Q-Chem.  Have a nice day.  *
