 Q-Chem 5.4, Q-Chem, Inc., Pleasanton, CA (2021)
 Q-Chem 5.4.0 for Intel X86 EM64T Linux

User input:
--------------------------------------------------------------
$molecule
-1 2
C                  4.9790560000     -2.7055140000      0.0117400000
C                  5.6972770000     -1.7544470000     -0.6853680000
C                  5.0608370000     -0.6697760000     -1.3313900000
C                  3.5786230000     -2.6020260000      0.0977180000
C                  2.9178070000     -1.5157880000     -0.5444800000
C                  3.6910750000     -0.5682060000     -1.2556180000
C                  2.8436000000     -3.6216000000      0.8585510000
C                  1.3845990000     -3.4544260000      0.9034950000
C                  0.7283370000     -2.3663580000      0.2597290000
C                  1.4657420000     -1.3505280000     -0.4906340000
C                  0.6202080000     -4.3990800000      1.6124640000
C                 -0.6799980000     -2.2663210000      0.3499590000
C                 -1.4226750000     -3.1886120000      1.0500610000
O                  3.4211960000     -4.5615880000      1.4369410000
O                  0.8859310000     -0.3910850000     -1.0544520000
H                  5.4653230000     -3.5437570000      0.4948450000
H                 -2.5011030000     -3.1152490000      1.1109060000
H                  3.1623080000      0.2426820000     -1.7418120000
H                  1.1326610000     -5.2272820000      2.0857180000
H                 -1.1541070000     -1.4341710000     -0.1562690000
C                 -0.7516400000     -4.2599750000      1.6831540000
S                  7.4732560000     -1.8607700000     -0.7302140000
S                 -1.6992420000     -5.4245760000      2.6387560000
O                 -0.8952680000     -6.6290330000      2.8641390000
O                 -3.0585570000     -5.5377570000      2.1009600000
N                 -1.9112170000     -4.5943150000      4.1213670000
H                 -1.1143830000     -4.7662180000      4.7288850000
H                 -2.7629720000     -4.9451310000      4.5519860000
O                  7.8835500000     -3.2177820000     -0.3586600000
O                  7.9891580000     -1.2467030000     -1.9576250000
N                  7.9362060000     -0.7667280000      0.5031120000
H                  5.6502040000      0.0514950000     -1.8832130000
H                  8.8671800000     -0.4249690000      0.2784360000
H                  7.9447590000     -1.2438340000      1.4008120000
$end

$rem
BASIS  =  6-311++G(d,p)
GUI  =  2
JOB_TYPE  =  SP
METHOD  =  B3LYP
SCF_CONVERGENCE  = 8
SOLVENT_METHOD = sm12
$end

$smx
solvent dimethylformamide
charges CM5
$end

--------------------------------------------------------------

             Standard Nuclear Orientation (Angstroms)
    I     Atom           X                Y                Z
 ----------------------------------------------------------------
    1      C       4.9790560000    -2.7055140000     0.0117400000
    2      C       5.6972770000    -1.7544470000    -0.6853680000
    3      C       5.0608370000    -0.6697760000    -1.3313900000
    4      C       3.5786230000    -2.6020260000     0.0977180000
    5      C       2.9178070000    -1.5157880000    -0.5444800000
    6      C       3.6910750000    -0.5682060000    -1.2556180000
    7      C       2.8436000000    -3.6216000000     0.8585510000
    8      C       1.3845990000    -3.4544260000     0.9034950000
    9      C       0.7283370000    -2.3663580000     0.2597290000
   10      C       1.4657420000    -1.3505280000    -0.4906340000
   11      C       0.6202080000    -4.3990800000     1.6124640000
   12      C      -0.6799980000    -2.2663210000     0.3499590000
   13      C      -1.4226750000    -3.1886120000     1.0500610000
   14      O       3.4211960000    -4.5615880000     1.4369410000
   15      O       0.8859310000    -0.3910850000    -1.0544520000
   16      H       5.4653230000    -3.5437570000     0.4948450000
   17      H      -2.5011030000    -3.1152490000     1.1109060000
   18      H       3.1623080000     0.2426820000    -1.7418120000
   19      H       1.1326610000    -5.2272820000     2.0857180000
   20      H      -1.1541070000    -1.4341710000    -0.1562690000
   21      C      -0.7516400000    -4.2599750000     1.6831540000
   22      S       7.4732560000    -1.8607700000    -0.7302140000
   23      S      -1.6992420000    -5.4245760000     2.6387560000
   24      O      -0.8952680000    -6.6290330000     2.8641390000
   25      O      -3.0585570000    -5.5377570000     2.1009600000
   26      N      -1.9112170000    -4.5943150000     4.1213670000
   27      H      -1.1143830000    -4.7662180000     4.7288850000
   28      H      -2.7629720000    -4.9451310000     4.5519860000
   29      O       7.8835500000    -3.2177820000    -0.3586600000
   30      O       7.9891580000    -1.2467030000    -1.9576250000
   31      N       7.9362060000    -0.7667280000     0.5031120000
   32      H       5.6502040000     0.0514950000    -1.8832130000
   33      H       8.8671800000    -0.4249690000     0.2784360000
   34      H       7.9447590000    -1.2438340000     1.4008120000
 ----------------------------------------------------------------

   17   -1897.0697706637      7.01e-09  Convergence criterion met
 Total energy in the final basis set =    -1897.1627573954

                    Orbital Energies (a.u.)
 --------------------------------------------------------------

 Alpha MOs
 -- Occupied --
-89.0719 -89.0719 -19.1239 -19.1239 -19.1238 -19.1238 -19.0922 -19.0872
-14.3409 -14.3409 -10.2441 -10.2359 -10.2197 -10.2197 -10.2013 -10.2013
-10.1994 -10.1994 -10.1947 -10.1947 -10.1943 -10.1943 -10.1905 -10.1904
 -8.1336  -8.1336  -6.0965  -6.0965  -6.0960  -6.0960  -6.0944  -6.0944
 -1.1269  -1.1268  -1.0226  -1.0168  -1.0168  -1.0138  -0.9067  -0.9066
 -0.8870  -0.8805  -0.8171  -0.7840  -0.7791  -0.7716  -0.7109  -0.6832
 -0.6801  -0.6317  -0.6274  -0.6055  -0.5796  -0.5591  -0.5567  -0.5271
 -0.5245  -0.5174  -0.5157  -0.5044  -0.4944  -0.4920  -0.4826  -0.4600
 -0.4542  -0.4508  -0.4474  -0.4405  -0.4403  -0.4357  -0.4254  -0.4107
 -0.3946  -0.3942  -0.3931  -0.3713  -0.3684  -0.3637  -0.3617  -0.3594
 -0.3398  -0.3396  -0.3287  -0.3276  -0.3173  -0.3169  -0.2984  -0.2983
 -0.2815  -0.2808  -0.2763  -0.2699  -0.2592  -0.2501  -0.1594

 Beta MOs
 -- Occupied --
-89.0719 -89.0719 -19.1239 -19.1239 -19.1238 -19.1238 -19.0869 -19.0806
-14.3409 -14.3408 -10.2432 -10.2347 -10.2191 -10.2190 -10.2016 -10.2016
-10.1988 -10.1988 -10.1938 -10.1937 -10.1933 -10.1933 -10.1905 -10.1905
 -8.1336  -8.1336  -6.0965  -6.0965  -6.0960  -6.0960  -6.0944  -6.0944
 -1.1268  -1.1267  -1.0167  -1.0167  -1.0135  -1.0023  -0.9065  -0.9064
 -0.8846  -0.8794  -0.8131  -0.7825  -0.7768  -0.7701  -0.7073  -0.6817
 -0.6758  -0.6301  -0.6258  -0.6047  -0.5776  -0.5574  -0.5560  -0.5266
 -0.5238  -0.5168  -0.5149  -0.5041  -0.4920  -0.4913  -0.4817  -0.4595
 -0.4540  -0.4506  -0.4472  -0.4380  -0.4347  -0.4288  -0.4208  -0.4066
 -0.3928  -0.3900  -0.3719  -0.3705  -0.3653  -0.3635  -0.3584  -0.3526
 -0.3394  -0.3394  -0.3283  -0.3273  -0.3169  -0.3167  -0.2968  -0.2923
 -0.2780  -0.2682  -0.2645  -0.2618  -0.2539  -0.2442

          Ground-State Mulliken Net Atomic Charges

     Atom                 Charge (a.u.)    Spin (a.u.)
  --------------------------------------------------------
      1 C                     0.154729      -0.015937
      2 C                     0.567668       0.032199
      3 C                     0.379336       0.053260
      4 C                    -0.522243       0.063806
      5 C                    -0.803188       0.058975
      6 C                    -0.034725       0.027510
      7 C                    -1.351600       0.044944
      8 C                    -0.515753       0.063880
      9 C                    -0.806833       0.058714
     10 C                    -1.887954       0.063405
     11 C                     0.157992      -0.015828
     12 C                    -0.033451       0.027337
     13 C                     0.386791       0.053301
     14 O                    -0.314256       0.198353
     15 O                    -0.307977       0.251275
     16 H                     0.186533       0.000508
     17 H                     0.323626      -0.003493
     18 H                     0.202310      -0.001515
     19 H                     0.186844       0.000488
     20 H                     0.202322      -0.001503
     21 C                     0.559760       0.032014
     22 S                     0.817299       0.004537
     23 S                     0.815789       0.004563
     24 O                    -0.210666       0.002052
     25 O                    -0.255861      -0.001789
     26 N                    -0.129917       0.000392
     27 H                     0.355966      -0.000162
     28 H                     0.397287       0.000855
     29 O                    -0.210433       0.002035
     30 O                    -0.255686      -0.001813
     31 N                    -0.130468       0.000444
     32 H                     0.323504      -0.003484
     33 H                     0.397287       0.000860
     34 H                     0.355966      -0.000181
  --------------------------------------------------------
  Sum of atomic charges =    -1.000000

                    Cartesian Multipole Moments
 -----------------------------------------------------------------
    Charge (ESU x 10^10)
                -4.8032
    Dipole Moment (Debye)
         X     -11.0392      Y      17.4398      Z       3.0584
       Tot      20.8654
    Quadrupole Moments (Debye-Ang)
        XX    -234.4252     XY      38.0343     YY    -255.2044
        XZ      23.1104     YZ       8.5086     ZZ    -153.1540

 Total job time:  1448.27s(wall), 10978.05s(cpu)
        *  Thank you very much for using Q-Chem.  Have a nice day.  *
