 Q-Chem 5.4, Q-Chem, Inc., Pleasanton, CA (2021)
 Q-Chem 5.4.0 for Intel X86 EM64T Linux

User input:
--------------------------------------------------------------
$molecule
-1 2
N                 -2.0460950000      2.8994570000     -0.2060540000
C                 -2.0583260000      1.5179530000     -0.0002210000
C                 -3.2815240000      0.8560320000      0.0928510000
C                 -3.3519780000     -0.5311790000      0.2057620000
C                 -2.2023120000     -1.3191130000      0.2304300000
N                 -2.3304180000     -2.7095050000      0.2500400000
C                 -0.9198640000     -0.6840690000      0.1878620000
C                  0.2914540000     -1.4876450000      0.3125560000
O                  0.2791380000     -2.7509880000      0.4524280000
C                  1.5709650000     -0.7863260000      0.2886490000
C                  2.7698740000     -1.5274040000      0.3896790000
C                  3.9992760000     -0.9002140000      0.3757380000
C                  4.0707040000      0.5062180000      0.2616120000
C                  2.9108320000      1.2479960000      0.1644430000
C                  1.6426060000      0.6248020000      0.1741300000
C                  0.4403780000      1.4459510000      0.0743560000
O                  0.5563350000      2.7100650000      0.0092740000
C                 -0.8466730000      0.7587270000      0.0706150000
H                 -1.1187170000      3.3019370000     -0.0579210000
H                 -2.8228240000      3.3932460000      0.2081910000
H                 -4.1976950000      1.4390160000      0.0427630000
H                 -4.3225580000     -1.0193560000      0.2430210000
H                 -3.1510110000     -3.0504590000      0.7284830000
H                 -1.4472730000     -3.1749000000      0.4676050000
H                  2.6834610000     -2.6038200000      0.4775700000
H                  4.9110000000     -1.4856200000      0.4519920000
H                  5.0372980000      1.0014980000      0.2501120000
H                  2.9339460000      2.3277000000      0.0773620000
$end
$rem
MAX_SCF_CYCLES=200
BASIS  =  6-311++G(d,p)
GUI  =  2
JOB_TYPE  =  SP
METHOD  =  B3LYP
SOLVENT_METHOD = PCM
$end
$pcm
theory = CPCM
$end
$solvent
dielectric 37.219
opticaldielectric 1.43
$end

--------------------------------------------------------------

             Standard Nuclear Orientation (Angstroms)
    I     Atom           X                Y                Z
 ----------------------------------------------------------------
    1      N      -2.0460950000     2.8994570000    -0.2060540000
    2      C      -2.0583260000     1.5179530000    -0.0002210000
    3      C      -3.2815240000     0.8560320000     0.0928510000
    4      C      -3.3519780000    -0.5311790000     0.2057620000
    5      C      -2.2023120000    -1.3191130000     0.2304300000
    6      N      -2.3304180000    -2.7095050000     0.2500400000
    7      C      -0.9198640000    -0.6840690000     0.1878620000
    8      C       0.2914540000    -1.4876450000     0.3125560000
    9      O       0.2791380000    -2.7509880000     0.4524280000
   10      C       1.5709650000    -0.7863260000     0.2886490000
   11      C       2.7698740000    -1.5274040000     0.3896790000
   12      C       3.9992760000    -0.9002140000     0.3757380000
   13      C       4.0707040000     0.5062180000     0.2616120000
   14      C       2.9108320000     1.2479960000     0.1644430000
   15      C       1.6426060000     0.6248020000     0.1741300000
   16      C       0.4403780000     1.4459510000     0.0743560000
   17      O       0.5563350000     2.7100650000     0.0092740000
   18      C      -0.8466730000     0.7587270000     0.0706150000
   19      H      -1.1187170000     3.3019370000    -0.0579210000
   20      H      -2.8228240000     3.3932460000     0.2081910000
   21      H      -4.1976950000     1.4390160000     0.0427630000
   22      H      -4.3225580000    -1.0193560000     0.2430210000
   23      H      -3.1510110000    -3.0504590000     0.7284830000
   24      H      -1.4472730000    -3.1749000000     0.4676050000
   25      H       2.6834610000    -2.6038200000     0.4775700000
   26      H       4.9110000000    -1.4856200000     0.4519920000
   27      H       5.0372980000     1.0014980000     0.2501120000
   28      H       2.9339460000     2.3277000000     0.0773620000
 ----------------------------------------------------------------

    8    -799.8574287093      6.67e-06  Convergence criterion met
 Total energy in the final basis set =     -799.8574287093

                    Orbital Energies (a.u.)
 --------------------------------------------------------------

 Alpha MOs
 -- Occupied --
-19.0737 -19.0737 -14.2968 -14.2966 -10.2243 -10.2243 -10.2055 -10.2054
-10.1710 -10.1706 -10.1704 -10.1700 -10.1692 -10.1688 -10.1673 -10.1673
-10.1622 -10.1617  -1.0023  -0.9997  -0.9088  -0.8981  -0.8558  -0.8187
 -0.7785  -0.7485  -0.7362  -0.7125  -0.6620  -0.6332  -0.6233  -0.5789
 -0.5575  -0.5431  -0.5284  -0.5062  -0.4829  -0.4721  -0.4698  -0.4568
 -0.4436  -0.4351  -0.4226  -0.4211  -0.4087  -0.4086  -0.3881  -0.3848
 -0.3820  -0.3692  -0.3691  -0.3456  -0.3426  -0.3351  -0.3344  -0.2741
 -0.2596  -0.2549  -0.2456  -0.2445  -0.2369  -0.1929  -0.1331

 Beta MOs
 -- Occupied --
-19.0694 -19.0694 -14.2960 -14.2959 -10.2224 -10.2224 -10.2050 -10.2049
-10.1710 -10.1707 -10.1700 -10.1695 -10.1685 -10.1681 -10.1673 -10.1673
-10.1611 -10.1605  -0.9947  -0.9919  -0.9068  -0.8964  -0.8537  -0.8169
 -0.7746  -0.7464  -0.7346  -0.7095  -0.6555  -0.6314  -0.6208  -0.5779
 -0.5555  -0.5407  -0.5274  -0.5053  -0.4815  -0.4692  -0.4687  -0.4558
 -0.4421  -0.4336  -0.4206  -0.4133  -0.4072  -0.4040  -0.3864  -0.3804
 -0.3681  -0.3665  -0.3653  -0.3442  -0.3338  -0.3314  -0.3261  -0.2648
 -0.2486  -0.2460  -0.2414  -0.2404  -0.2329  -0.1813

          Ground-State Mulliken Net Atomic Charges

     Atom                 Charge (a.u.)    Spin (a.u.)
  --------------------------------------------------------
      1 N                    -0.450895       0.030082
      2 C                    -0.140138       0.055253
      3 C                    -0.327997       0.093140
      4 C                    -0.329597       0.093911
      5 C                    -0.142187       0.055574
      6 N                    -0.451120       0.030105
      7 C                     0.520905      -0.017318
      8 C                    -0.311617       0.101110
      9 O                    -0.488428       0.161233
     10 C                    -0.047353       0.026550
     11 C                     0.101547       0.027939
     12 C                    -0.496414       0.035503
     13 C                    -0.497113       0.035366
     14 C                     0.099367       0.028040
     15 C                    -0.044923       0.026883
     16 C                    -0.311947       0.101942
     17 O                    -0.488115       0.161343
     18 C                     0.519390      -0.016778
     19 H                     0.314850      -0.002942
     20 H                     0.272606      -0.001095
     21 H                     0.191328      -0.006943
     22 H                     0.191009      -0.006970
     23 H                     0.272800      -0.001081
     24 H                     0.315054      -0.002978
     25 H                     0.169249      -0.000958
     26 H                     0.195105      -0.002976
     27 H                     0.194982      -0.002968
     28 H                     0.169653      -0.000966
  --------------------------------------------------------
  Sum of atomic charges =    -1.000000

                    Cartesian Multipole Moments
 -----------------------------------------------------------------
    Charge (ESU x 10^10)
                -4.8032
    Dipole Moment (Debye)
         X      -2.5643      Y       0.3136      Z       1.2974
       Tot       2.8909
    Quadrupole Moments (Debye-Ang)
        XX     -99.0383     XY      -2.2124     YY    -133.3787
        XZ      -6.5900     YZ       1.8943     ZZ    -114.2153

 Total job time:  62.06s(wall), 402.79s(cpu)
        *  Thank you very much for using Q-Chem.  Have a nice day.  *
