 Gaussian 16, Revision A.03,
 Gaussian 16:  ES64L-G16RevA.03 25-Dec-2016

 --------------------------------------
 #P UB3LYP/6-311++G(d,p) nosym opt freq
 --------------------------------------

 -------
 Radical
 -------
 Symbolic Z-matrix:
 Charge = -1 Multiplicity = 2

 SCF Done:  E(UB3LYP) =  -725.111893559     A.U. after   23 cycles
 SCF Done:  E(UB3LYP) =  -725.132169707     A.U. after   18 cycles
 SCF Done:  E(UB3LYP) =  -725.134563034     A.U. after   17 cycles
 SCF Done:  E(UB3LYP) =  -725.134688258     A.U. after   15 cycles
 SCF Done:  E(UB3LYP) =  -725.134702478     A.U. after   14 cycles
 SCF Done:  E(UB3LYP) =  -725.134703090     A.U. after   11 cycles
 Optimization completed.
    -- Stationary point found.
 Normal termination of Gaussian 16 at Tue Dec 26 20:25:12 2023.

 ----------------------------------------------------------------------
 #P Geom=AllCheck Guess=TCheck SCRF=Check GenChk UB3LYP/6-311++G(d,p) F
 req
 ----------------------------------------------------------------------

 Structure from the checkpoint file:  "259-rad.chk"
 -------
 Radical
 -------
 Charge = -1 Multiplicity = 2

                          Input orientation:
 ---------------------------------------------------------------------
 Center     Atomic      Atomic             Coordinates (Angstroms)
 Number     Number       Type             X           Y           Z
 ---------------------------------------------------------------------
      1          6           0       -1.216109    2.851487    0.017994
      2          6           0       -2.501343    2.350295    0.016633
      3          6           0       -2.733728    0.963078    0.015178
      4          6           0       -0.103964    1.982370    0.017953
      5          6           0       -0.327742    0.579611    0.016489
      6          6           0       -1.650481    0.102694    0.015130
      7          6           0        1.242604    2.562097    0.019406
      8          6           0        2.323548    1.592636    0.019686
      9          6           0        2.111204    0.227362    0.018262
     10          6           0        0.801122   -0.365729    0.016377
     11          8           0        1.437373    3.807513    0.021118
     12          8           0        0.627658   -1.612459    0.015476
     13          1           0       -1.018315    3.920182    0.019118
     14          1           0       -1.792247   -0.972358    0.014026
     15          8           0        3.572694    2.162609    0.021465
     16          8           0       -3.614823    3.177192    0.016627
     17          1           0       -3.753962    0.595716    0.014125
     18          1           0        2.936382   -0.473994    0.018502
     19          6           0        4.694205    1.308484    0.021713
     20          1           0       -3.303450    4.088082    0.017678
     21          1           0        5.569105    1.961042    0.023096
     22          1           0        4.722045    0.668423   -0.869760
     23          1           0        4.720433    0.666815    0.912080
 ---------------------------------------------------------------------

 SCF Done:  E(UB3LYP) =  -725.134703090     A.U. after    1 cycles

 Alpha  occ. eigenvalues --  -19.04605 -19.03200 -18.93774 -18.93514 -10.11696
 Alpha  occ. eigenvalues --  -10.11520 -10.09835 -10.08908 -10.08475 -10.05112
 Alpha  occ. eigenvalues --  -10.05002 -10.04822 -10.04528 -10.03923 -10.02779
 Alpha  occ. eigenvalues --   -0.95168  -0.94782  -0.86027  -0.85806  -0.73187
 Alpha  occ. eigenvalues --   -0.67552  -0.62873  -0.62269  -0.59536  -0.53835
 Alpha  occ. eigenvalues --   -0.51317  -0.48087  -0.44277  -0.43061  -0.40290
 Alpha  occ. eigenvalues --   -0.37885  -0.35904  -0.35135  -0.34715  -0.31407
 Alpha  occ. eigenvalues --   -0.30705  -0.30177  -0.30071  -0.27947  -0.27726
 Alpha  occ. eigenvalues --   -0.26871  -0.26395  -0.24249  -0.24134  -0.22473
 Alpha  occ. eigenvalues --   -0.21808  -0.21085  -0.19500  -0.13530  -0.12166
 Alpha  occ. eigenvalues --   -0.10588  -0.10358  -0.10019  -0.01356
 Alpha virt. eigenvalues --    0.07977   0.08154   0.09427   0.10011   0.11081
 Alpha virt. eigenvalues --    0.11892   0.12232   0.12338   0.13583   0.14136
 Alpha virt. eigenvalues --    0.15093   0.16155   0.16188   0.17541   0.17640

  Beta  occ. eigenvalues --  -19.04599 -19.03135 -18.93022 -18.92958 -10.11700
  Beta  occ. eigenvalues --  -10.11508 -10.09688 -10.08813 -10.08290 -10.05075
  Beta  occ. eigenvalues --  -10.05015 -10.04754 -10.04488 -10.03847 -10.02682
  Beta  occ. eigenvalues --   -0.95152  -0.94624  -0.85022  -0.84556  -0.72988
  Beta  occ. eigenvalues --   -0.67075  -0.62715  -0.62080  -0.59371  -0.53032
  Beta  occ. eigenvalues --   -0.51203  -0.47817  -0.44001  -0.43010  -0.40117
  Beta  occ. eigenvalues --   -0.37694  -0.35711  -0.34994  -0.34513  -0.31276
  Beta  occ. eigenvalues --   -0.30631  -0.30050  -0.29777  -0.27629  -0.26505
  Beta  occ. eigenvalues --   -0.26500  -0.25920  -0.23994  -0.22673  -0.22373
  Beta  occ. eigenvalues --   -0.20847  -0.20576  -0.18163  -0.12221  -0.10248
  Beta  occ. eigenvalues --   -0.09950  -0.09721  -0.09427
  Beta virt. eigenvalues --    0.05338   0.07978   0.08145   0.10005   0.10036
  Beta virt. eigenvalues --    0.11084   0.12063   0.12351   0.13155   0.13586
  Beta virt. eigenvalues --    0.14146   0.15102   0.16194   0.16405   0.17547

 Mulliken charges and spin densities:
               1          2
     1  C    0.200684   0.074333
     2  C   -0.519640   0.005198
     3  C   -0.079179   0.044728
     4  C    0.696673   0.038023
     5  C    0.119054   0.031442
     6  C    0.190089  -0.005298
     7  C   -0.849919   0.097126
     8  C   -0.299099   0.123424
     9  C    0.490570   0.063837
    10  C   -0.646550   0.042944
    11  O   -0.397869   0.285492
    12  O   -0.405923   0.200784
    13  H    0.117511  -0.005539
    14  H    0.160213  -0.000554
    15  O   -0.155712   0.012172
    16  O   -0.270603   0.002036
    17  H    0.152998  -0.003650
    18  H    0.158347  -0.007482
    19  C   -0.333494   0.000521
    20  H    0.252777  -0.000145
    21  H    0.155938  -0.000180
    22  H    0.131574   0.000394
    23  H    0.131559   0.000396
 Sum of Mulliken charges =  -1.00000   1.00000

 Dipole moment (field-independent basis, Debye):
    X=             -1.7410    Y=             -5.6928    Z=             -0.0856  Tot=              5.9537
 Quadrupole moment (field-independent basis, Debye-Ang):
   XX=           -103.0215   YY=           -127.1322   ZZ=            -92.3386
   XY=             -9.8403   XZ=             -0.0453   YZ=             -0.1341

  Exact polarizability: 234.271  -6.329 192.779   0.113   0.096  84.805
 Approx polarizability: 330.998   4.963 356.187   0.160   0.213 130.862

                      1                      2                      3
                      A                      A                      A
 Frequencies --     51.5062               104.5628               110.9986
 Red. masses --      4.1512                 5.2266                 5.2755
 Frc consts  --      0.0065                 0.0337                 0.0383
 IR Inten    --      7.5066                 0.0706                 0.0806

                      4                      5                      6
                      A                      A                      A
 Frequencies --    158.7218               185.7763               197.3669
 Red. masses --      6.2712                 4.7365                 2.3494
 Frc consts  --      0.0931                 0.0963                 0.0539
 IR Inten    --      4.9505                 4.8049                 0.6332

                      7                      8                      9
                      A                      A                      A
 Frequencies --    240.1741               262.6121               297.9475
 Red. masses --      5.6684                 1.5712                 1.8613
 Frc consts  --      0.1926                 0.0638                 0.0974
 IR Inten    --      1.2071                 5.3388                32.5498

                     10                     11                     12
                      A                      A                      A
 Frequencies --    322.0424               336.1784               345.3916
 Red. masses --      1.7703                 6.6513                 8.1423
 Frc consts  --      0.1082                 0.4429                 0.5723
 IR Inten    --     66.4027                 0.8584                 7.4885

                     13                     14                     15
                      A                      A                      A
 Frequencies --    394.9855               403.8628               463.1664
 Red. masses --      6.0942                 5.0003                 7.2918
 Frc consts  --      0.5602                 0.4805                 0.9216
 IR Inten    --      8.5057                 0.6548                 3.0468

                     16                     17                     18
                      A                      A                      A
 Frequencies --    470.9465               474.6699               517.4138
 Red. masses --      3.7477                 6.4635                 7.4541
 Frc consts  --      0.4897                 0.8580                 1.1758
 IR Inten    --      7.9617                24.6092                 1.7107

                     19                     20                     21
                      A                      A                      A
 Frequencies --    561.5646               649.0818               664.5458
 Red. masses --      4.8843                 2.9130                 7.2920
 Frc consts  --      0.9075                 0.7231                 1.8973
 IR Inten    --      0.1529                 2.5689                 1.4966

                     22                     23                     24
                      A                      A                      A
 Frequencies --    680.3947               716.2325               724.6424
 Red. masses --      6.0059                 5.8360                 5.1346
 Frc consts  --      1.6381                 1.7639                 1.5886
 IR Inten    --     10.7499                 2.5958                 0.2506

                     25                     26                     27
                      A                      A                      A
 Frequencies --    766.3960               767.0293               806.2030
 Red. masses --      6.0066                 4.1331                 1.4021
 Frc consts  --      2.0787                 1.4327                 0.5369
 IR Inten    --     23.5905                 2.9015                51.1577

                     28                     29                     30
                      A                      A                      A
 Frequencies --    825.6604               877.5872               893.7803
 Red. masses --      1.9878                 1.4704                 4.8865
 Frc consts  --      0.7984                 0.6672                 2.2999
 IR Inten    --     10.5021                19.8850                70.5366

                     31                     32                     33
                      A                      A                      A
 Frequencies --    975.5353               984.0545              1075.4170
 Red. masses --      1.3017                 3.6993                 2.9661
 Frc consts  --      0.7299                 2.1106                 2.0211
 IR Inten    --      1.5551                25.5685                42.9877

                     34                     35                     36
                      A                      A                      A
 Frequencies --   1107.3007              1142.1435              1164.4496
 Red. masses --      2.3668                 2.0173                 1.2827
 Frc consts  --      1.7098                 1.5505                 1.0247
 IR Inten    --     31.4693                17.7031                 0.5737

                     37                     38                     39
                      A                      A                      A
 Frequencies --   1165.5212              1179.8846              1189.9598
 Red. masses --      2.3029                 1.8784                 1.9551
 Frc consts  --      1.8432                 1.5407                 1.6311
 IR Inten    --     19.6339                61.6124               284.6586

                     40                     41                     42
                      A                      A                      A
 Frequencies --   1226.4395              1237.8775              1263.8416
 Red. masses --      2.1512                 1.9979                 2.6978
 Frc consts  --      1.9065                 1.8038                 2.5389
 IR Inten    --    277.0371                78.0191                14.7588

                     43                     44                     45
                      A                      A                      A
 Frequencies --   1303.4977              1366.4634              1394.3876
 Red. masses --      2.1405                 7.3461                 3.3850
 Frc consts  --      2.1428                 8.0817                 3.8777
 IR Inten    --     28.8414                 4.0112               188.4458

                     46                     47                     48
                      A                      A                      A
 Frequencies --   1457.3978              1463.9964              1480.6203
 Red. masses --      2.4321                 2.0532                 2.6638
 Frc consts  --      3.0437                 2.5928                 3.4406
 IR Inten    --     55.1542                52.5041                55.5804

                     49                     50                     51
                      A                      A                      A
 Frequencies --   1482.7963              1505.4599              1518.6404
 Red. masses --      1.0471                 1.0612                 5.0853
 Frc consts  --      1.3564                 1.4170                 6.9099
 IR Inten    --      5.1421                32.7189               115.0726

                     52                     53                     54
                      A                      A                      A
 Frequencies --   1540.7445              1567.0377              1618.4167
 Red. masses --      6.9277                 5.4351                 7.2631
 Frc consts  --      9.6895                 7.8635                11.2086
 IR Inten    --    555.1761                58.3558                74.1529

                     55                     56                     57
                      A                      A                      A
 Frequencies --   1640.7652              2977.4242              3023.6739
 Red. masses --      7.1247                 1.0347                 1.1043
 Frc consts  --     11.3009                 5.4044                 5.9485
 IR Inten    --    169.8127               104.6435                60.6783

                     58                     59                     60
                      A                      A                      A
 Frequencies --   3094.1028              3146.7935              3165.4638
 Red. masses --      1.0973                 1.0892                 1.0867
 Frc consts  --      6.1894                 6.3549                 6.4156
 IR Inten    --     55.2306                19.7498                 6.1755

                     61                     62                     63
                      A                      A                      A
 Frequencies --   3183.0264              3184.4520              3831.9898
 Red. masses --      1.0932                 1.0883                 1.0657
 Frc consts  --      6.5256                 6.5023                 9.2202
 IR Inten    --     28.1759                12.8351                36.3395

 - Thermochemistry -
 -------------------
 Temperature   298.150 Kelvin.  Pressure   1.00000 Atm.
 Atom     1 has atomic number  6 and mass  12.00000

 Molecular mass:   204.04226 amu.
 Principal axes and moments of inertia in atomic units:
                           1         2         3
     Eigenvalues --  1618.909664212.623365820.10626
           X            0.99228   0.12398  -0.00082
           Y           -0.12398   0.99228  -0.00094
           Z            0.00069   0.00104   1.00000
 This molecule is an asymmetric top.
 Rotational symmetry number  1.
 Warning -- assumption of classical behavior for rotation
           may cause significant error
 Rotational temperatures (Kelvin)      0.05350     0.02056     0.01488
 Rotational constants (GHZ):           1.11479     0.42841     0.31009
 Zero-point vibrational energy     436224.4 (Joules/Mol)
                                  104.26012 (Kcal/Mol)
 Warning -- explicit consideration of  19 degrees of freedom as
           vibrations may cause significant error
 Vibrational temperatures:     74.11   150.44   159.70   228.37   267.29
          (Kelvin)            283.97   345.56   377.84   428.68   463.35
                              483.69   496.94   568.30   581.07   666.39
                              677.59   682.94   744.44   807.97   933.88
                              956.13   978.94  1030.50  1042.60  1102.67
                             1103.58  1159.95  1187.94  1262.65  1285.95
                             1403.58  1415.83  1547.29  1593.16  1643.29
                             1675.38  1676.93  1697.59  1712.09  1764.57
                             1781.03  1818.39  1875.44  1966.04  2006.21
                             2096.87  2106.36  2130.28  2133.41  2166.02
                             2184.98  2216.79  2254.62  2328.54  2360.70
                             4283.85  4350.39  4451.72  4527.53  4554.40
                             4579.66  4581.72  5513.38

 Zero-point correction=                           0.166149 (Hartree/Particle)
 Thermal correction to Energy=                    0.178688
 Thermal correction to Enthalpy=                  0.179632
 Thermal correction to Gibbs Free Energy=         0.126826
 Sum of electronic and zero-point Energies=           -724.968554
 Sum of electronic and thermal Energies=              -724.956015
 Sum of electronic and thermal Enthalpies=            -724.955071
 Sum of electronic and thermal Free Energies=         -725.007877

                     E (Thermal)             CV                S
                      KCal/Mol        Cal/Mol-Kelvin    Cal/Mol-Kelvin
 Total                  112.129             48.752            111.140
 Electronic               0.000              0.000              1.377
 Translational            0.889              2.981             41.844
 Rotational               0.889              2.981             32.051
 Vibrational            110.351             42.790             35.868
 Vibration     1          0.596              1.977              4.759
 Vibration     2          0.605              1.946              3.367
 Vibration     3          0.607              1.940              3.251
 Vibration     4          0.621              1.893              2.565
 Vibration     5          0.632              1.859              2.270
 Vibration     6          0.637              1.844              2.158
 Vibration     7          0.657              1.779              1.802
 Vibration     8          0.670              1.741              1.644
 Vibration     9          0.691              1.678              1.428
 Vibration    10          0.707              1.631              1.300
 Vibration    11          0.717              1.603              1.230
 Vibration    12          0.724              1.585              1.187
 Vibration    13          0.762              1.481              0.981
 Vibration    14          0.769              1.462              0.949
 Vibration    15          0.821              1.332              0.757
 Vibration    16          0.828              1.315              0.735
 Vibration    17          0.831              1.306              0.725
 Vibration    18          0.872              1.211              0.616
 Vibration    19          0.917              1.114              0.521

 Optimization completed.
    -- Stationary point found.
 Normal termination of Gaussian 16 at Tue Dec 26 20:51:39 2023.
