 Gaussian 16, Revision A.03,
 Gaussian 16:  ES64L-G16RevA.03 25-Dec-2016

 --------------------------------------
 #P UB3LYP/6-311++G(d,p) nosym opt freq
 --------------------------------------

 -------
 Reduced
 -------
 Symbolic Z-matrix:
 Charge = -2 Multiplicity = 1

 SCF Done:  E(UB3LYP) =  -1454.47323257     A.U. after   31 cycles
 SCF Done:  E(UB3LYP) =  -1454.49873944     A.U. after   18 cycles
 SCF Done:  E(UB3LYP) =  -1454.50189345     A.U. after   15 cycles
 SCF Done:  E(UB3LYP) =  -1454.50210297     A.U. after   15 cycles
 SCF Done:  E(UB3LYP) =  -1454.50213849     A.U. after   14 cycles
 SCF Done:  E(UB3LYP) =  -1454.50214205     A.U. after   12 cycles
 Optimization completed.
    -- Stationary point found.
 Normal termination of Gaussian 16 at Tue Dec 26 20:24:06 2023.

 ----------------------------------------------------------------------
 #P Geom=AllCheck Guess=TCheck SCRF=Check GenChk UB3LYP/6-311++G(d,p) F
 req
 ----------------------------------------------------------------------

 Structure from the checkpoint file:  "231-an.chk"
 -------
 Reduced
 -------
 Charge = -2 Multiplicity = 1

                          Input orientation:
 ---------------------------------------------------------------------
 Center     Atomic      Atomic             Coordinates (Angstroms)
 Number     Number       Type             X           Y           Z
 ---------------------------------------------------------------------
      1          6           0        5.901732   -5.205709    1.074891
      2          6           0        6.779712   -5.079097    0.013896
      3          6           0        6.547731   -4.084949   -0.970259
      4          6           0        4.767611   -4.372200    1.218533
      5          6           0        4.531963   -3.362179    0.218733
      6          6           0        5.446791   -3.255917   -0.855232
      7          6           0        3.891603   -4.575779    2.371934
      8          6           0        2.801300   -3.669647    2.379694
      9          6           0        2.568404   -2.671340    1.391522
     10          6           0        3.394263   -2.444064    0.261830
     11          8           0        4.116900   -5.482181    3.253548
     12          8           0        3.199492   -1.549560   -0.639000
     13          1           0        6.045887   -5.954622    1.847846
     14          1           0        7.643341   -5.738007   -0.065706
     15          1           0        5.235897   -2.483260   -1.588468
     16         17           0        1.666152   -3.837511    3.754734
     17          1           0        7.232063   -3.975446   -1.810528
     18         17           0        1.143311   -1.596333    1.536332
 ---------------------------------------------------------------------

 SCF Done:  E(UB3LYP) =  -1454.50214205     A.U. after    2 cycles

 Alpha  occ. eigenvalues -- -101.28255-101.28255 -18.76596 -18.76595  -9.94285
 Alpha  occ. eigenvalues --   -9.94242  -9.93514  -9.93513  -9.92681  -9.92635
 Alpha  occ. eigenvalues --   -9.91617  -9.91615  -9.90447  -9.90407  -9.19682
 Alpha  occ. eigenvalues --   -9.19681  -6.96085  -6.96085  -6.95231  -6.95231
 Alpha  occ. eigenvalues --   -6.95144  -6.95144  -0.68935  -0.68403  -0.60374
 Alpha  occ. eigenvalues --   -0.59341  -0.56660  -0.51693  -0.49136  -0.45249
 Alpha  occ. eigenvalues --   -0.40285  -0.34778  -0.33964  -0.29273  -0.25068
 Alpha  occ. eigenvalues --   -0.23585  -0.19811  -0.19315  -0.16822  -0.15380
 Alpha  occ. eigenvalues --   -0.14883  -0.14296  -0.11654  -0.10987  -0.10571
 Alpha  occ. eigenvalues --   -0.09460  -0.08661  -0.07278  -0.05800  -0.05430
 Alpha  occ. eigenvalues --   -0.05225  -0.03266   0.00587   0.01929   0.03360
 Alpha  occ. eigenvalues --    0.05144   0.05479   0.13114
 Alpha virt. eigenvalues --    0.16280   0.18097   0.20678   0.21502   0.21887
 Alpha virt. eigenvalues --    0.22643   0.23423   0.23738   0.25832   0.26463
 Alpha virt. eigenvalues --    0.27725   0.27922   0.27997   0.28043   0.28759

  Beta  occ. eigenvalues -- -101.28255-101.28255 -18.76596 -18.76595  -9.94285
  Beta  occ. eigenvalues --   -9.94242  -9.93514  -9.93513  -9.92681  -9.92635
  Beta  occ. eigenvalues --   -9.91617  -9.91615  -9.90447  -9.90407  -9.19682
  Beta  occ. eigenvalues --   -9.19681  -6.96085  -6.96085  -6.95231  -6.95231
  Beta  occ. eigenvalues --   -6.95144  -6.95144  -0.68935  -0.68403  -0.60374
  Beta  occ. eigenvalues --   -0.59341  -0.56660  -0.51693  -0.49136  -0.45249
  Beta  occ. eigenvalues --   -0.40285  -0.34778  -0.33964  -0.29273  -0.25068
  Beta  occ. eigenvalues --   -0.23585  -0.19811  -0.19315  -0.16822  -0.15380
  Beta  occ. eigenvalues --   -0.14883  -0.14296  -0.11654  -0.10987  -0.10571
  Beta  occ. eigenvalues --   -0.09460  -0.08661  -0.07278  -0.05800  -0.05430
  Beta  occ. eigenvalues --   -0.05225  -0.03266   0.00587   0.01929   0.03360
  Beta  occ. eigenvalues --    0.05144   0.05479   0.13114
  Beta virt. eigenvalues --    0.16280   0.18097   0.20678   0.21502   0.21887
  Beta virt. eigenvalues --    0.22643   0.23423   0.23738   0.25832   0.26463
  Beta virt. eigenvalues --    0.27725   0.27922   0.27997   0.28043   0.28759

 Mulliken charges and spin densities:
               1          2
     1  C   -0.193695  -0.000000
     2  C   -0.369188   0.000000
     3  C   -0.369262  -0.000000
     4  C    0.557780   0.000000
     5  C    0.557791   0.000000
     6  C   -0.193717  -0.000000
     7  C   -2.183755  -0.000000
     8  C    1.198063   0.000000
     9  C    1.198320   0.000000
    10  C   -2.183705  -0.000000
    11  O   -0.479542   0.000000
    12  O   -0.479543   0.000000
    13  H    0.128796   0.000000
    14  H    0.076640   0.000000
    15  H    0.128795  -0.000000
    16  Cl   0.264806  -0.000000
    17  H    0.076643  -0.000000
    18  Cl   0.264772  -0.000000
 Sum of Mulliken charges =  -2.00000   0.00000

 Dipole moment (field-independent basis, Debye):
    X=            -34.0225    Y=             33.3779    Z=            -13.2231  Tot=             49.4617
 Quadrupole moment (field-independent basis, Debye-Ang):
   XX=           -251.8189   YY=           -250.8988   ZZ=           -158.2051
   XY=            133.2171   XZ=            -38.2946   YZ=             67.1542

  Exact polarizability: 236.241 -56.885 172.001 -64.223 -22.581 199.930
 Approx polarizability: 373.062 -98.737 281.470-103.314 -53.975 327.755

                      1                      2                      3
                      A                      A                      A
 Frequencies --     65.9926                69.8346               140.3652
 Red. masses --     14.6278                 9.6716                 4.6626
 Frc consts  --      0.0375                 0.0278                 0.0541
 IR Inten    --      0.0000                 7.3412                 0.0000

                      4                      5                      6
                      A                      A                      A
 Frequencies --    171.9906               207.2683               214.6051
 Red. masses --      9.8805                31.1485                 9.3640
 Frc consts  --      0.1722                 0.7884                 0.2541
 IR Inten    --      4.7088                 1.4420                 5.2595

                      7                      8                      9
                      A                      A                      A
 Frequencies --    283.2016               285.1680               312.4265
 Red. masses --      6.9738                 8.8588                11.1707
 Frc consts  --      0.3295                 0.4244                 0.6424
 IR Inten    --      0.0573                 1.2031                 0.0001

                     10                     11                     12
                      A                      A                      A
 Frequencies --    325.3326               332.2419               364.0809
 Red. masses --     19.8722                18.8279                 9.4413
 Frc consts  --      1.2392                 1.2245                 0.7374
 IR Inten    --      5.3805                 0.5131                 0.8223

                     13                     14                     15
                      A                      A                      A
 Frequencies --    459.2114               488.3030               502.4828
 Red. masses --      3.4131                13.8874                 5.6385
 Frc consts  --      0.4241                 1.9510                 0.8388
 IR Inten    --      2.7549                15.2157                 0.0000

                     16                     17                     18
                      A                      A                      A
 Frequencies --    533.2027               631.9295               644.2134
 Red. masses --      7.8878                 7.4961                 7.5304
 Frc consts  --      1.3213                 1.7637                 1.8413
 IR Inten    --      0.5798                13.1584                 0.0001

                     19                     20                     21
                      A                      A                      A
 Frequencies --    684.4252               691.4238               747.1503
 Red. masses --      1.9075                 8.2143                 2.4691
 Frc consts  --      0.5265                 2.3137                 0.8121
 IR Inten    --     61.3690                 0.8096                19.1330

                     22                     23                     24
                      A                      A                      A
 Frequencies --    756.0917               783.2478               809.9293
 Red. masses --      2.3189                 8.0114                 2.1530
 Frc consts  --      0.7810                 2.8957                 0.8321
 IR Inten    --      0.0001                45.7613                 0.0001

                     25                     26                     27
                      A                      A                      A
 Frequencies --    815.0355               872.4313               947.9609
 Red. masses --     11.2487                 7.5239                 1.2016
 Frc consts  --      4.4025                 3.3741                 0.6362
 IR Inten    --    194.2721                 2.0961                 0.0001

                     28                     29                     30
                      A                      A                      A
 Frequencies --    956.5296              1017.8942              1090.1198
 Red. masses --      1.3611                 2.2416                 2.2448
 Frc consts  --      0.7337                 1.3684                 1.5717
 IR Inten    --      4.8966                42.3502                26.1085

                     31                     32                     33
                      A                      A                      A
 Frequencies --   1097.4281              1115.3448              1170.5223
 Red. masses --      3.6246                 1.9680                 2.6310
 Frc consts  --      2.5720                 1.4424                 2.1238
 IR Inten    --      3.4675               223.4342                 0.4679

                     34                     35                     36
                      A                      A                      A
 Frequencies --   1192.0529              1235.4145              1331.0321
 Red. masses --      2.1607                 1.9191                12.1565
 Frc consts  --      1.8090                 1.7258                12.6893
 IR Inten    --    197.3919                50.7406                14.9123

                     37                     38                     39
                      A                      A                      A
 Frequencies --   1350.9335              1362.1930              1418.8677
 Red. masses --      6.5768                 4.2226                 3.5934
 Frc consts  --      7.0718                 4.6164                 4.2623
 IR Inten    --    163.2787                28.6759               646.4598

                     40                     41                     42
                      A                      A                      A
 Frequencies --   1451.3376              1494.8801              1495.3758
 Red. masses --      3.6119                 5.7163                 4.2447
 Frc consts  --      4.4825                 7.5263                 5.5924
 IR Inten    --      6.9160               593.3387                28.1593

                     43                     44                     45
                      A                      A                      A
 Frequencies --   1587.6280              1588.6515              3085.8528
 Red. masses --      8.8239                 5.4042                 1.0824
 Frc consts  --     13.1042                 8.0360                 6.0729
 IR Inten    --      9.2196                 5.1856                39.0592

                     46                     47                     48
                      A                      A                      A
 Frequencies --   3110.5231              3155.5220              3157.9914
 Red. masses --      1.0908                 1.0900                 1.0911
 Frc consts  --      6.2181                 6.3947                 6.4114
 IR Inten    --    126.1173                24.0733                47.6139

 - Thermochemistry -
 -------------------
 Temperature   298.150 Kelvin.  Pressure   1.00000 Atm.
 Atom     1 has atomic number  6 and mass  12.00000

 Molecular mass:   225.95883 amu.
 Principal axes and moments of inertia in atomic units:
                           1         2         3
     Eigenvalues --  2086.671663958.335686045.00719
           X            0.82241  -0.16357   0.54488
           Y           -0.29164   0.70114   0.65066
           Z           -0.48846  -0.69401   0.52891
 This molecule is an asymmetric top.
 Rotational symmetry number  1.
 Warning -- assumption of classical behavior for rotation
           may cause significant error
 Rotational temperatures (Kelvin)      0.04151     0.02188     0.01433
 Rotational constants (GHZ):           0.86489     0.45593     0.29855
 Zero-point vibrational energy     284745.0 (Joules/Mol)
                                   68.05568 (Kcal/Mol)
 Warning -- explicit consideration of  16 degrees of freedom as
           vibrations may cause significant error
 Vibrational temperatures:     94.95   100.48   201.95   247.46   298.21
          (Kelvin)            308.77   407.46   410.29   449.51   468.08
                              478.02   523.83   660.70   702.56   722.96
                              767.16   909.21   926.88   984.74   994.80
                             1074.98  1087.85  1126.92  1165.31  1172.65
                             1255.23  1363.90  1376.23  1464.52  1568.44
                             1578.95  1604.73  1684.12  1715.10  1777.49
                             1915.06  1943.69  1959.89  2041.43  2088.15
                             2150.80  2151.51  2284.24  2285.72  4439.85
                             4475.35  4540.09  4543.65

 Zero-point correction=                           0.108454 (Hartree/Particle)
 Thermal correction to Energy=                    0.119851
 Thermal correction to Enthalpy=                  0.120796
 Thermal correction to Gibbs Free Energy=         0.070296
 Sum of electronic and zero-point Energies=          -1454.393688
 Sum of electronic and thermal Energies=             -1454.382291
 Sum of electronic and thermal Enthalpies=           -1454.381346
 Sum of electronic and thermal Free Energies=        -1454.431846

                     E (Thermal)             CV                S
                      KCal/Mol        Cal/Mol-Kelvin    Cal/Mol-Kelvin
 Total                   75.208             43.278            106.286
 Electronic               0.000              0.000              0.000
 Translational            0.889              2.981             42.148
 Rotational               0.889              2.981             32.279
 Vibrational             73.430             37.316             31.859
 Vibration     1          0.597              1.970              4.269
 Vibration     2          0.598              1.969              4.158
 Vibration     3          0.615              1.913              2.799
 Vibration     4          0.626              1.877              2.414
 Vibration     5          0.641              1.830              2.068
 Vibration     6          0.645              1.819              2.004
 Vibration     7          0.682              1.705              1.514
 Vibration     8          0.683              1.701              1.502
 Vibration     9          0.701              1.650              1.349
 Vibration    10          0.709              1.625              1.283
 Vibration    11          0.714              1.611              1.249
 Vibration    12          0.738              1.546              1.105
 Vibration    13          0.817              1.341              0.768
 Vibration    14          0.844              1.276              0.688
 Vibration    15          0.858              1.245              0.652
 Vibration    16          0.888              1.177              0.580

 Optimization completed.
    -- Stationary point found.
 Normal termination of Gaussian 16 at Tue Dec 26 20:47:38 2023.
