 Gaussian 16, Revision A.03,
 Gaussian 16:  ES64L-G16RevA.03 25-Dec-2016

 ----------------------------------------------------------------
 #P UB3LYP/6-311++G(d,p) SCRF=(PCM,Solvent=n,n-DiMethylFormamide)
 ----------------------------------------------------------------

 -------
 Reduced
 -------
 Symbolic Z-matrix:
 Charge = -2 Multiplicity = 1

                         Standard orientation:
 ---------------------------------------------------------------------
 Center     Atomic      Atomic             Coordinates (Angstroms)
 Number     Number       Type             X           Y           Z
 ---------------------------------------------------------------------
      1          6           0        3.808699   -0.588272   -1.261359
      2          6           0        3.380102    0.202388   -0.000361
      3          6           0        4.151308    1.536956   -0.001168
      4          6           0        3.808835   -0.586771    1.261554
      5          6           0        1.845681    0.382746   -0.000237
      6          6           0        1.272329    1.652844    0.000677
      7          6           0       -0.131221    1.959537    0.001005
      8          8           0       -0.581923    3.164272    0.001347
      9          6           0       -0.923970    0.769411    0.000503
     10          6           0       -0.371524   -0.526835   -0.000318
     11         35           0       -1.518001   -2.109966    0.000400
     12          6           0        1.028266   -0.817058   -0.000265
     13          8           0        1.516542   -2.016086    0.000153
     14         35           0       -2.856755    1.064562   -0.000689
     15          1           0        4.892362   -0.786479   -1.250317
     16          1           0        3.575767   -0.011560   -2.164161
     17          1           0        3.260360   -1.532318   -1.289935
     18          1           0        3.919457    2.138753   -0.885437
     19          1           0        5.230918    1.332794   -0.001726
     20          1           0        3.920512    2.139288    0.883018
     21          1           0        3.575925   -0.008997    2.163656
     22          1           0        4.892528   -0.785050    1.250708
     23          1           0        3.260775   -1.530913    1.291368
     24          1           0        1.899864    2.538461    0.000750
 ---------------------------------------------------------------------

 SCF Done:  E(UB3LYP) =  -5686.21442118     A.U. after   16 cycles

 The electronic state is 1-A.
 Alpha  occ. eigenvalues -- -482.80439-482.80381 -62.45715 -62.45656 -56.27722
 Alpha  occ. eigenvalues --  -56.27665 -56.27389 -56.27359 -56.27331 -56.27297
 Alpha  occ. eigenvalues --  -19.02121 -19.01537 -10.18567 -10.18462 -10.18282
 Alpha  occ. eigenvalues --  -10.18184 -10.16610 -10.14186 -10.14081 -10.13323
 Alpha  occ. eigenvalues --  -10.13321 -10.12739  -8.66671  -8.66612  -6.49713
 Alpha  occ. eigenvalues --   -6.49658  -6.48604  -6.48548  -6.48516  -6.48449
 Alpha  occ. eigenvalues --   -2.60823  -2.60768  -2.60521  -2.60468  -2.60455
 Alpha  occ. eigenvalues --   -2.60393  -2.59572  -2.59571  -2.59510  -2.59509
 Alpha  occ. eigenvalues --   -0.93980  -0.93397  -0.81626  -0.80032  -0.76101
 Alpha  occ. eigenvalues --   -0.74962  -0.67615  -0.66753  -0.66180  -0.64853
 Alpha  occ. eigenvalues --   -0.56836  -0.53648  -0.50046  -0.45439  -0.44271
 Alpha  occ. eigenvalues --   -0.41831  -0.41321  -0.40610  -0.38792  -0.38576
 Alpha  occ. eigenvalues --   -0.36590  -0.36338  -0.36011  -0.34768  -0.34462
 Alpha  occ. eigenvalues --   -0.32963  -0.32078  -0.31247  -0.31101  -0.30258
 Alpha  occ. eigenvalues --   -0.29371  -0.28163  -0.27566  -0.25381  -0.22722
 Alpha  occ. eigenvalues --   -0.20826  -0.20221  -0.19365  -0.12509
 Alpha virt. eigenvalues --   -0.01831   0.00074   0.01496   0.01600   0.01768
 Alpha virt. eigenvalues --    0.02251   0.02353   0.03596   0.04221   0.04448
 Alpha virt. eigenvalues --    0.04679   0.04763   0.05528   0.06251   0.06344

  Beta  occ. eigenvalues -- -482.80439-482.80381 -62.45715 -62.45656 -56.27722
  Beta  occ. eigenvalues --  -56.27665 -56.27389 -56.27359 -56.27331 -56.27297
  Beta  occ. eigenvalues --  -19.02121 -19.01537 -10.18567 -10.18462 -10.18282
  Beta  occ. eigenvalues --  -10.18184 -10.16610 -10.14186 -10.14081 -10.13323
  Beta  occ. eigenvalues --  -10.13321 -10.12739  -8.66671  -8.66612  -6.49713
  Beta  occ. eigenvalues --   -6.49658  -6.48604  -6.48548  -6.48516  -6.48449
  Beta  occ. eigenvalues --   -2.60823  -2.60768  -2.60521  -2.60468  -2.60455
  Beta  occ. eigenvalues --   -2.60393  -2.59572  -2.59571  -2.59510  -2.59509
  Beta  occ. eigenvalues --   -0.93980  -0.93397  -0.81626  -0.80032  -0.76101
  Beta  occ. eigenvalues --   -0.74962  -0.67615  -0.66753  -0.66180  -0.64853
  Beta  occ. eigenvalues --   -0.56836  -0.53648  -0.50046  -0.45439  -0.44271
  Beta  occ. eigenvalues --   -0.41831  -0.41321  -0.40610  -0.38792  -0.38576
  Beta  occ. eigenvalues --   -0.36590  -0.36338  -0.36011  -0.34768  -0.34462
  Beta  occ. eigenvalues --   -0.32963  -0.32078  -0.31247  -0.31101  -0.30258
  Beta  occ. eigenvalues --   -0.29371  -0.28163  -0.27566  -0.25381  -0.22722
  Beta  occ. eigenvalues --   -0.20826  -0.20221  -0.19365  -0.12509
  Beta virt. eigenvalues --   -0.01831   0.00074   0.01496   0.01600   0.01768
  Beta virt. eigenvalues --    0.02251   0.02353   0.03596   0.04221   0.04448
  Beta virt. eigenvalues --    0.04679   0.04763   0.05528   0.06251   0.06344

 Mulliken charges and spin densities:
               1          2
     1  C   -0.683110  -0.000000
     2  C    0.709197  -0.000000
     3  C   -0.506843   0.000000
     4  C   -0.683510   0.000000
     5  C    1.051202   0.000000
     6  C   -0.488644   0.000000
     7  C   -0.753808  -0.000000
     8  O   -0.648965  -0.000000
     9  C    0.602787  -0.000000
    10  C   -0.323784   0.000000
    11  Br  -0.216983  -0.000000
    12  C   -0.714754  -0.000000
    13  O   -0.574570  -0.000000
    14  Br  -0.212120  -0.000000
    15  H    0.132911  -0.000000
    16  H    0.117328   0.000000
    17  H    0.185347   0.000000
    18  H    0.125306   0.000000
    19  H    0.159905   0.000000
    20  H    0.125276   0.000000
    21  H    0.117386  -0.000000
    22  H    0.132909  -0.000000
    23  H    0.185331  -0.000000
    24  H    0.162207  -0.000000
 Sum of Mulliken charges =  -2.00000  -0.00000

 Dipole moment (field-independent basis, Debye):
    X=              1.0616    Y=             -3.8097    Z=             -0.0042  Tot=              3.9548
 Quadrupole moment (field-independent basis, Debye-Ang):
   XX=           -143.3833   YY=           -176.5205   ZZ=           -120.4460
   XY=             16.8353   XZ=              0.0034   YZ=             -0.0144

 Normal termination of Gaussian 16 at Sun Jan 21 07:33:17 2024.
