 Q-Chem 5.4, Q-Chem, Inc., Pleasanton, CA (2021)
 Q-Chem 5.4.0 for Intel X86 EM64T Linux

User input:
--------------------------------------------------------------
$molecule
-1 2
O                  5.0511370000     -0.1786150000     -0.4374710000
C                  3.7184520000      0.1518860000     -0.2502880000
C                  3.4325920000      1.4960340000      0.0665770000
C                  2.1217630000      1.8766300000      0.2629940000
C                  1.0551240000      0.9568730000      0.1555730000
C                 -0.3149000000      1.4156050000      0.3741080000
O                 -0.5877510000      2.6111750000      0.6576600000
C                 -1.3572650000      0.3978230000      0.2431480000
C                 -2.7047680000      0.7730850000      0.4415400000
C                 -3.7184320000     -0.1519400000      0.3282570000
O                 -5.0511760000      0.1785820000      0.5154680000
C                 -3.4326120000     -1.4960450000      0.0113350000
C                 -2.1217520000     -1.8766370000     -0.1850170000
C                 -1.0551420000     -0.9568850000     -0.0775470000
C                  0.3149110000     -1.4156360000     -0.2960660000
O                  0.5877620000     -2.6111600000     -0.5796240000
C                  1.3572730000     -0.3978150000     -0.1651180000
C                  2.7047670000     -0.7731190000     -0.3634740000
H                  5.0960700000     -1.1174060000     -0.6458780000
H                  4.2494320000      2.2044310000      0.1496620000
H                  1.8707500000      2.9023610000      0.5076750000
H                 -2.9030360000      1.8134590000      0.6848630000
H                 -5.0961370000      1.1176130000      0.7227670000
H                 -4.2494240000     -2.2044480000     -0.0719200000
H                 -1.8706680000     -2.9023450000     -0.4297410000
H                  2.9030320000     -1.8135080000     -0.6067330000
$end

$rem
BASIS  =  6-311++G(d,p)
GUI  =  2
JOB_TYPE  =  SP
METHOD  =  B3LYP
SCF_CONVERGENCE  = 8
SOLVENT_METHOD = sm12
$end

$smx
solvent dimethylformamide
charges CM5
$end

--------------------------------------------------------------

             Standard Nuclear Orientation (Angstroms)
    I     Atom           X                Y                Z
 ----------------------------------------------------------------
    1      O       5.0511370000    -0.1786150000    -0.4374710000
    2      C       3.7184520000     0.1518860000    -0.2502880000
    3      C       3.4325920000     1.4960340000     0.0665770000
    4      C       2.1217630000     1.8766300000     0.2629940000
    5      C       1.0551240000     0.9568730000     0.1555730000
    6      C      -0.3149000000     1.4156050000     0.3741080000
    7      O      -0.5877510000     2.6111750000     0.6576600000
    8      C      -1.3572650000     0.3978230000     0.2431480000
    9      C      -2.7047680000     0.7730850000     0.4415400000
   10      C      -3.7184320000    -0.1519400000     0.3282570000
   11      O      -5.0511760000     0.1785820000     0.5154680000
   12      C      -3.4326120000    -1.4960450000     0.0113350000
   13      C      -2.1217520000    -1.8766370000    -0.1850170000
   14      C      -1.0551420000    -0.9568850000    -0.0775470000
   15      C       0.3149110000    -1.4156360000    -0.2960660000
   16      O       0.5877620000    -2.6111600000    -0.5796240000
   17      C       1.3572730000    -0.3978150000    -0.1651180000
   18      C       2.7047670000    -0.7731190000    -0.3634740000
   19      H       5.0960700000    -1.1174060000    -0.6458780000
   20      H       4.2494320000     2.2044310000     0.1496620000
   21      H       1.8707500000     2.9023610000     0.5076750000
   22      H      -2.9030360000     1.8134590000     0.6848630000
   23      H      -5.0961370000     1.1176130000     0.7227670000
   24      H      -4.2494240000    -2.2044480000    -0.0719200000
   25      H      -1.8706680000    -2.9023450000    -0.4297410000
   26      H       2.9030320000    -1.8135080000    -0.6067330000
 ----------------------------------------------------------------

   16    -839.5144588598      4.71e-09  Convergence criterion met
 Total energy in the final basis set =     -839.6084447115

                    Orbital Energies (a.u.)
 --------------------------------------------------------------

 Alpha MOs
 -- Occupied --
-19.1610 -19.1610 -19.0753 -19.0753 -10.2418 -10.2418 -10.2246 -10.2246
-10.1820 -10.1820 -10.1810 -10.1810 -10.1805 -10.1805 -10.1753 -10.1753
-10.1750 -10.1749  -1.0670  -1.0670  -1.0014  -0.9992  -0.8660  -0.8569
 -0.7891  -0.7606  -0.7570  -0.7423  -0.6710  -0.6609  -0.6222  -0.6204
 -0.5663  -0.5628  -0.5439  -0.5420  -0.4836  -0.4755  -0.4719  -0.4701
 -0.4373  -0.4348  -0.4329  -0.4175  -0.4168  -0.4152  -0.4035  -0.4023
 -0.4005  -0.3836  -0.3797  -0.3614  -0.3607  -0.3430  -0.3430  -0.3209
 -0.2698  -0.2623  -0.2487  -0.2460  -0.2377  -0.2333  -0.1421

 Beta MOs
 -- Occupied --
-19.1608 -19.1608 -19.0695 -19.0695 -10.2413 -10.2413 -10.2230 -10.2230
-10.1820 -10.1820 -10.1803 -10.1803 -10.1798 -10.1798 -10.1751 -10.1751
-10.1745 -10.1745  -1.0665  -1.0664  -0.9914  -0.9889  -0.8634  -0.8558
 -0.7854  -0.7579  -0.7556  -0.7408  -0.6635  -0.6596  -0.6200  -0.6195
 -0.5637  -0.5620  -0.5432  -0.5402  -0.4813  -0.4736  -0.4710  -0.4688
 -0.4370  -0.4344  -0.4252  -0.4150  -0.4141  -0.4121  -0.4024  -0.3979
 -0.3916  -0.3830  -0.3602  -0.3597  -0.3570  -0.3411  -0.3397  -0.3089
 -0.2597  -0.2533  -0.2406  -0.2355  -0.2323  -0.2276

          Ground-State Mulliken Net Atomic Charges

     Atom                 Charge (a.u.)    Spin (a.u.)
  --------------------------------------------------------
      1 O                    -0.142029       0.005574
      2 C                     1.272920       0.033906
      3 C                     0.923125       0.018437
      4 C                     0.103180       0.026157
      5 C                    -0.894337       0.012798
      6 C                    -2.203040       0.085016
      7 O                    -0.309835       0.217435
      8 C                    -0.755028       0.065327
      9 C                     0.504592       0.042498
     10 C                     1.272507       0.033880
     11 O                    -0.142081       0.005570
     12 C                     0.923124       0.018470
     13 C                     0.103417       0.026131
     14 C                    -0.894165       0.012824
     15 C                    -2.203216       0.084977
     16 O                    -0.309758       0.217392
     17 C                    -0.754795       0.065356
     18 C                     0.504843       0.042468
     19 H                     0.355149      -0.000172
     20 H                     0.327312      -0.001985
     21 H                     0.160003      -0.001699
     22 H                     0.157825      -0.003252
     23 H                     0.355129      -0.000172
     24 H                     0.327316      -0.001987
     25 H                     0.160003      -0.001697
     26 H                     0.157839      -0.003250
  --------------------------------------------------------
  Sum of atomic charges =    -1.000000

                    Cartesian Multipole Moments
 -----------------------------------------------------------------
    Charge (ESU x 10^10)
                -4.8032
    Dipole Moment (Debye)
         X       0.0009      Y      -0.0003      Z      -0.1895
       Tot       0.1895
    Quadrupole Moments (Debye-Ang)
        XX    -121.9505     XY      -7.3202     YY    -129.6420
        XZ      -0.6178     YZ      -3.4890     ZZ    -111.4081

 Total job time:  577.18s(wall), 4418.95s(cpu)
        *  Thank you very much for using Q-Chem.  Have a nice day.  *
