 Q-Chem 5.4, Q-Chem, Inc., Pleasanton, CA (2021)
 Q-Chem 5.4.0 for Intel X86 EM64T Linux

User input:
--------------------------------------------------------------
$molecule
-1 2
C                 -0.0683730000      0.7498270000     -1.0212190000
C                 -0.9674230000     -0.1236090000     -0.4379900000
C                 -0.5207020000     -1.3583850000      0.0743780000
C                  1.3017960000      0.4226550000     -1.1134160000
C                  1.7551370000     -0.8246530000     -0.5959330000
C                  0.8208170000     -1.6947290000     -0.0074950000
C                  2.2424510000      1.3383310000     -1.7240760000
C                  3.6231010000      0.9155940000     -1.7722090000
C                  4.0930380000     -0.2875080000     -1.2895280000
C                  3.1785000000     -1.2177100000     -0.6640170000
O                  1.9460300000      2.4763210000     -2.2159090000
O                  3.5705910000     -2.3189560000     -0.1961460000
O                  4.4514920000      1.8293810000     -2.3566000000
H                 -0.3880040000      1.7050490000     -1.4222730000
H                 -2.0189080000      0.1411570000     -0.3739300000
H                 -1.2276830000     -2.0437840000      0.5322250000
H                  1.1921510000     -2.6371320000      0.3790000000
H                  3.8240570000      2.5481230000     -2.5935080000
C                  5.5507370000     -0.6587930000     -1.3744780000
C                  6.3251150000     -0.3543080000     -0.0778010000
H                  6.0183030000     -0.1253980000     -2.2080730000
H                  5.6196030000     -1.7337560000     -1.5711910000
H                  5.8304880000     -0.8747600000      0.7489250000
H                  6.2615630000      0.7198740000      0.1341620000
C                  7.7955040000     -0.7775330000     -0.1456610000
C                  8.5664100000     -0.4865370000      1.1580380000
C                 10.0172950000     -0.9048030000      1.1035410000
C                 11.0117650000     -0.0164570000      0.6759560000
C                 10.4076370000     -2.2055320000      1.4455840000
C                 11.7380820000     -2.6115680000      1.3611490000
C                 12.7004920000     -1.7075820000      0.9258280000
C                 12.3467600000     -0.4064440000      0.5867630000
O                 14.0434740000     -2.0863560000      0.9105870000
C                 14.5962460000     -2.5885500000     -0.2430100000
C                 13.8846460000     -2.7877710000     -1.4273000000
C                 15.9559480000     -2.9090250000     -0.1765210000
C                 16.5988510000     -3.4269550000     -1.2945770000
C                 14.5451710000     -3.3084490000     -2.5408880000
C                 15.8986370000     -3.6305460000     -2.4856630000
H                  8.2932430000     -0.2635630000     -0.9779190000
H                  7.8579490000     -1.8503870000     -0.3657060000
H                  8.0679340000     -1.0029530000      1.9854340000
H                  8.5039060000      0.5850560000      1.3767820000
H                 10.7378380000      1.0005350000      0.4138680000
H                  9.6580670000     -2.9116850000      1.7881420000
H                 12.0359370000     -3.6170500000      1.6353610000
H                 13.1131850000      0.2889430000      0.2641960000
H                 12.8324500000     -2.5410620000     -1.4796000000
H                 16.4844720000     -2.7449760000      0.7550050000
H                 17.6536400000     -3.6728700000     -1.2351200000
H                 13.9872060000     -3.4614230000     -3.4582140000
H                 16.4022670000     -4.0343620000     -3.3561760000
$end
$rem
MAX_SCF_CYCLES=200
BASIS  =  6-311++G(d,p)
GUI  =  2
JOB_TYPE  =  SP
METHOD  =  B3LYP
SCF_ALGORITHM = DIIS_GDM
THRESH = 14
SOLVENT_METHOD = PCM
$end
$pcm
theory = CPCM
$end
$solvent
dielectric 37.219
opticaldielectric 1.43
$end

--------------------------------------------------------------

             Standard Nuclear Orientation (Angstroms)
    I     Atom           X                Y                Z
 ----------------------------------------------------------------
    1      C      -0.0683730000     0.7498270000    -1.0212190000
    2      C      -0.9674230000    -0.1236090000    -0.4379900000
    3      C      -0.5207020000    -1.3583850000     0.0743780000
    4      C       1.3017960000     0.4226550000    -1.1134160000
    5      C       1.7551370000    -0.8246530000    -0.5959330000
    6      C       0.8208170000    -1.6947290000    -0.0074950000
    7      C       2.2424510000     1.3383310000    -1.7240760000
    8      C       3.6231010000     0.9155940000    -1.7722090000
    9      C       4.0930380000    -0.2875080000    -1.2895280000
   10      C       3.1785000000    -1.2177100000    -0.6640170000
   11      O       1.9460300000     2.4763210000    -2.2159090000
   12      O       3.5705910000    -2.3189560000    -0.1961460000
   13      O       4.4514920000     1.8293810000    -2.3566000000
   14      H      -0.3880040000     1.7050490000    -1.4222730000
   15      H      -2.0189080000     0.1411570000    -0.3739300000
   16      H      -1.2276830000    -2.0437840000     0.5322250000
   17      H       1.1921510000    -2.6371320000     0.3790000000
   18      H       3.8240570000     2.5481230000    -2.5935080000
   19      C       5.5507370000    -0.6587930000    -1.3744780000
   20      C       6.3251150000    -0.3543080000    -0.0778010000
   21      H       6.0183030000    -0.1253980000    -2.2080730000
   22      H       5.6196030000    -1.7337560000    -1.5711910000
   23      H       5.8304880000    -0.8747600000     0.7489250000
   24      H       6.2615630000     0.7198740000     0.1341620000
   25      C       7.7955040000    -0.7775330000    -0.1456610000
   26      C       8.5664100000    -0.4865370000     1.1580380000
   27      C      10.0172950000    -0.9048030000     1.1035410000
   28      C      11.0117650000    -0.0164570000     0.6759560000
   29      C      10.4076370000    -2.2055320000     1.4455840000
   30      C      11.7380820000    -2.6115680000     1.3611490000
   31      C      12.7004920000    -1.7075820000     0.9258280000
   32      C      12.3467600000    -0.4064440000     0.5867630000
   33      O      14.0434740000    -2.0863560000     0.9105870000
   34      C      14.5962460000    -2.5885500000    -0.2430100000
   35      C      13.8846460000    -2.7877710000    -1.4273000000
   36      C      15.9559480000    -2.9090250000    -0.1765210000
   37      C      16.5988510000    -3.4269550000    -1.2945770000
   38      C      14.5451710000    -3.3084490000    -2.5408880000
   39      C      15.8986370000    -3.6305460000    -2.4856630000
   40      H       8.2932430000    -0.2635630000    -0.9779190000
   41      H       7.8579490000    -1.8503870000    -0.3657060000
   42      H       8.0679340000    -1.0029530000     1.9854340000
   43      H       8.5039060000     0.5850560000     1.3767820000
   44      H      10.7378380000     1.0005350000     0.4138680000
   45      H       9.6580670000    -2.9116850000     1.7881420000
   46      H      12.0359370000    -3.6170500000     1.6353610000
   47      H      13.1131850000     0.2889430000     0.2641960000
   48      H      12.8324500000    -2.5410620000    -1.4796000000
   49      H      16.4844720000    -2.7449760000     0.7550050000
   50      H      17.6536400000    -3.6728700000    -1.2351200000
   51      H      13.9872060000    -3.4614230000    -3.4582140000
   52      H      16.4022670000    -4.0343620000    -3.3561760000
 ----------------------------------------------------------------

   17   -1305.4302797264      5.48e-06  Convergence criterion met
 Total energy in the final basis set =    -1305.4302797264

                    Orbital Energies (a.u.)
 --------------------------------------------------------------

 Alpha MOs
 -- Occupied --
-19.1679 -19.1438 -19.0873 -19.0758 -10.2441 -10.2364 -10.2243 -10.2221
-10.2217 -10.1840 -10.1802 -10.1800 -10.1798 -10.1797 -10.1777 -10.1777
-10.1769 -10.1758 -10.1749 -10.1727 -10.1721 -10.1719 -10.1709 -10.1706
-10.1692 -10.1663 -10.1628 -10.1603 -10.1579 -10.1565  -1.0860  -1.0638
 -1.0014  -0.9974  -0.8713  -0.8586  -0.8574  -0.8141  -0.7980  -0.7741
 -0.7558  -0.7557  -0.7526  -0.7506  -0.7340  -0.7033  -0.6734  -0.6494
 -0.6259  -0.6221  -0.6167  -0.6133  -0.5939  -0.5778  -0.5736  -0.5683
 -0.5524  -0.5370  -0.5072  -0.5046  -0.4922  -0.4843  -0.4807  -0.4765
 -0.4654  -0.4535  -0.4505  -0.4485  -0.4450  -0.4366  -0.4286  -0.4281
 -0.4270  -0.4213  -0.4168  -0.4120  -0.4097  -0.4044  -0.3932  -0.3898
 -0.3870  -0.3841  -0.3756  -0.3692  -0.3673  -0.3615  -0.3594  -0.3494
 -0.3443  -0.3410  -0.3394  -0.3372  -0.3328  -0.3317  -0.3239  -0.3192
 -0.2679  -0.2668  -0.2617  -0.2615  -0.2580  -0.2466  -0.2410  -0.2354
 -0.2278  -0.1521

 Beta MOs
 -- Occupied --
-19.1679 -19.1433 -19.0811 -19.0706 -10.2441 -10.2364 -10.2228 -10.2209
-10.2190 -10.1840 -10.1802 -10.1800 -10.1798 -10.1797 -10.1777 -10.1777
-10.1769 -10.1758 -10.1747 -10.1721 -10.1718 -10.1716 -10.1701 -10.1700
-10.1694 -10.1663 -10.1620 -10.1603 -10.1580 -10.1564  -1.0860  -1.0616
 -0.9922  -0.9869  -0.8713  -0.8574  -0.8562  -0.8120  -0.7966  -0.7728
 -0.7558  -0.7555  -0.7517  -0.7487  -0.7333  -0.7018  -0.6668  -0.6472
 -0.6252  -0.6221  -0.6160  -0.6121  -0.5923  -0.5772  -0.5732  -0.5659
 -0.5524  -0.5352  -0.5071  -0.5024  -0.4922  -0.4818  -0.4807  -0.4763
 -0.4640  -0.4527  -0.4498  -0.4485  -0.4449  -0.4291  -0.4283  -0.4266
 -0.4248  -0.4191  -0.4133  -0.4099  -0.4086  -0.4026  -0.3890  -0.3880
 -0.3836  -0.3781  -0.3740  -0.3689  -0.3613  -0.3608  -0.3541  -0.3468
 -0.3405  -0.3389  -0.3363  -0.3330  -0.3304  -0.3283  -0.3228  -0.3183
 -0.2668  -0.2617  -0.2561  -0.2510  -0.2484  -0.2462  -0.2363  -0.2353
 -0.2192

          Ground-State Mulliken Net Atomic Charges

     Atom                 Charge (a.u.)    Spin (a.u.)
  --------------------------------------------------------
      1 C                     0.072286       0.075887
      2 C                    -0.393860      -0.000873
      3 C                    -0.457613       0.071629
      4 C                     0.358971      -0.005399
      5 C                     0.040461       0.059374
      6 C                     0.099146       0.004891
      7 C                    -0.848366       0.171549
      8 C                    -0.575155       0.061833
      9 C                     2.011970       0.047802
     10 C                    -0.724919       0.082096
     11 O                    -0.538950       0.226351
     12 O                    -0.476118       0.193472
     13 O                    -0.296249       0.016439
     14 H                     0.174326      -0.004096
     15 H                     0.199352      -0.000661
     16 H                     0.194890      -0.005031
     17 H                     0.171916      -0.000380
     18 H                     0.302882      -0.003483
     19 C                    -0.410944       0.009329
     20 C                    -0.849472      -0.004071
     21 H                     0.225976      -0.001116
     22 H                     0.203357       0.003094
     23 H                     0.169857      -0.001926
     24 H                     0.164256       0.002293
     25 C                    -0.203452       0.002372
     26 C                    -1.006524      -0.000932
     27 C                     1.371949      -0.001120
     28 C                    -0.408972      -0.000250
     29 C                    -0.340942       0.000442
     30 C                    -0.008982      -0.000352
     31 C                    -0.524576       0.000135
     32 C                     0.006771       0.000161
     33 O                    -0.061857      -0.000003
     34 C                    -0.165213       0.000021
     35 C                    -0.028379       0.000038
     36 C                    -0.218773      -0.000028
     37 C                    -0.208910       0.000000
     38 C                    -0.187032       0.000004
     39 C                    -0.348381       0.000001
     40 H                     0.132099       0.000243
     41 H                     0.133632       0.000422
     42 H                     0.177279       0.000078
     43 H                     0.180418      -0.000261
     44 H                     0.212176      -0.000008
     45 H                     0.216013       0.000026
     46 H                     0.225273      -0.000000
     47 H                     0.224707       0.000011
     48 H                     0.187474      -0.000001
     49 H                     0.199634       0.000001
     50 H                     0.212637      -0.000000
     51 H                     0.230435      -0.000001
     52 H                     0.183497       0.000000
  --------------------------------------------------------
  Sum of atomic charges =    -1.000000

                    Cartesian Multipole Moments
 -----------------------------------------------------------------
    Charge (ESU x 10^10)
                -4.8032
    Dipole Moment (Debye)
         X     -16.8014      Y       0.3623      Z       4.9617
       Tot      17.5224
    Quadrupole Moments (Debye-Ang)
        XX    -273.5398     XY      13.4870     YY    -202.8084
        XZ      -0.8348     YZ      11.3527     ZZ    -192.8003

 Total job time:  712.27s(wall), 5162.38s(cpu)
        *  Thank you very much for using Q-Chem.  Have a nice day.  *
