 Q-Chem 5.4, Q-Chem, Inc., Pleasanton, CA (2021)
 Q-Chem 5.4.0 for Intel X86 EM64T Linux

User input:
--------------------------------------------------------------
$molecule
0 1
C                  4.6310200000      1.2097340000     -0.6776150000
C                  3.3275150000      0.5748090000     -0.2628860000
C                  3.3055960000     -0.6891400000      0.3246680000
C                  2.1127790000     -1.3138970000      0.7037810000
O                  2.1397790000     -2.5492910000      1.2609650000
C                  0.8759510000     -0.6660520000      0.4874880000
C                 -0.4212380000     -1.2706720000      0.9299540000
O                 -0.4516690000     -2.2057750000      1.7075650000
C                 -1.6720400000     -0.6523980000      0.3983330000
C                 -2.9343920000     -1.2836840000      0.5267040000
O                 -3.0115940000     -2.5187500000      1.0749320000
C                 -4.0904690000     -0.6512690000      0.0684840000
C                 -4.0274660000      0.6132050000     -0.5099900000
O                 -5.2023390000      1.1657780000     -0.9210250000
C                 -2.8010490000      1.2538870000     -0.6532410000
C                 -1.6447630000      0.6166740000     -0.2112470000
C                 -0.3528270000      1.3372330000     -0.4196660000
O                 -0.3367640000      2.4781440000     -0.8543360000
C                  0.9101180000      0.6038180000     -0.1227990000
C                  2.1096150000      1.2173160000     -0.4801620000
H                  5.4441870000      0.9331750000     -0.0025060000
H                  4.5522490000      2.2982900000     -0.6919810000
H                  4.9153460000      0.8868420000     -1.6849320000
H                  4.2424480000     -1.2127560000      0.5016450000
H                  3.0524120000     -2.8567590000      1.3010750000
H                 -3.9271170000     -2.8193160000      1.0526260000
H                 -5.0559210000     -1.1380360000      0.1607020000
H                 -5.0376870000      2.0348340000     -1.3033140000
H                 -2.7160500000      2.2366080000     -1.1027570000
H                  2.0685700000      2.2004450000     -0.9320700000
$end
$rem
MAX_SCF_CYCLES=200
BASIS  =  6-311++G(d,p)
GUI  =  2
JOB_TYPE  =  SP
METHOD  =  B3LYP
SOLVENT_METHOD = PCM
$end
$pcm
theory = CPCM
$end
$solvent
dielectric 37.219
opticaldielectric 1.43
$end

--------------------------------------------------------------

             Standard Nuclear Orientation (Angstroms)
    I     Atom           X                Y                Z
 ----------------------------------------------------------------
    1      C       4.6310200000     1.2097340000    -0.6776150000
    2      C       3.3275150000     0.5748090000    -0.2628860000
    3      C       3.3055960000    -0.6891400000     0.3246680000
    4      C       2.1127790000    -1.3138970000     0.7037810000
    5      O       2.1397790000    -2.5492910000     1.2609650000
    6      C       0.8759510000    -0.6660520000     0.4874880000
    7      C      -0.4212380000    -1.2706720000     0.9299540000
    8      O      -0.4516690000    -2.2057750000     1.7075650000
    9      C      -1.6720400000    -0.6523980000     0.3983330000
   10      C      -2.9343920000    -1.2836840000     0.5267040000
   11      O      -3.0115940000    -2.5187500000     1.0749320000
   12      C      -4.0904690000    -0.6512690000     0.0684840000
   13      C      -4.0274660000     0.6132050000    -0.5099900000
   14      O      -5.2023390000     1.1657780000    -0.9210250000
   15      C      -2.8010490000     1.2538870000    -0.6532410000
   16      C      -1.6447630000     0.6166740000    -0.2112470000
   17      C      -0.3528270000     1.3372330000    -0.4196660000
   18      O      -0.3367640000     2.4781440000    -0.8543360000
   19      C       0.9101180000     0.6038180000    -0.1227990000
   20      C       2.1096150000     1.2173160000    -0.4801620000
   21      H       5.4441870000     0.9331750000    -0.0025060000
   22      H       4.5522490000     2.2982900000    -0.6919810000
   23      H       4.9153460000     0.8868420000    -1.6849320000
   24      H       4.2424480000    -1.2127560000     0.5016450000
   25      H       3.0524120000    -2.8567590000     1.3010750000
   26      H      -3.9271170000    -2.8193160000     1.0526260000
   27      H      -5.0559210000    -1.1380360000     0.1607020000
   28      H      -5.0376870000     2.0348340000    -1.3033140000
   29      H      -2.7160500000     2.2366080000    -1.1027570000
   30      H       2.0685700000     2.2004450000    -0.9320700000
 ----------------------------------------------------------------

    8    -954.0442131030      9.75e-06  Convergence criterion met
 Total energy in the final basis set =     -954.0442131030

                    Orbital Energies (a.u.)
 --------------------------------------------------------------

 Alpha MOs
 -- Occupied --
-19.1720 -19.1694 -19.1673 -19.1293 -19.1161 -10.2819 -10.2773 -10.2674
-10.2629 -10.2624 -10.2104 -10.2056 -10.2053 -10.2025 -10.2014 -10.1910
-10.1897 -10.1893 -10.1848 -10.1702  -1.0879  -1.0845  -1.0838  -1.0652
 -1.0537  -0.8889  -0.8768  -0.8156  -0.7816  -0.7700  -0.7670  -0.7156
 -0.6886  -0.6675  -0.6442  -0.6285  -0.6044  -0.5907  -0.5665  -0.5308
 -0.5266  -0.5231  -0.5101  -0.4926  -0.4753  -0.4675  -0.4622  -0.4531
 -0.4445  -0.4409  -0.4360  -0.4241  -0.4232  -0.4155  -0.4145  -0.4065
 -0.3975  -0.3920  -0.3902  -0.3826  -0.3713  -0.3688  -0.3470  -0.3351
 -0.2841  -0.2753  -0.2626  -0.2603  -0.2493  -0.2438

          Ground-State Mulliken Net Atomic Charges

     Atom                 Charge (a.u.)
  ----------------------------------------
      1 C                    -0.385312
      2 C                     0.497537
      3 C                    -0.376120
      4 C                    -0.155709
      5 O                    -0.240351
      6 C                    -0.111697
      7 C                    -0.310690
      8 O                    -0.326338
      9 C                    -0.173412
     10 C                    -0.016435
     11 O                    -0.236891
     12 C                     0.040800
     13 C                    -0.621209
     14 O                    -0.274494
     15 C                     0.394350
     16 C                     0.523837
     17 C                    -0.636707
     18 O                    -0.278677
     19 C                     0.448391
     20 C                    -0.080960
     21 H                     0.170038
     22 H                     0.172504
     23 H                     0.198832
     24 H                     0.189903
     25 H                     0.327750
     26 H                     0.331672
     27 H                     0.231203
     28 H                     0.330561
     29 H                     0.194473
     30 H                     0.173150
  ----------------------------------------
  Sum of atomic charges =     0.000000

                    Cartesian Multipole Moments
 -----------------------------------------------------------------
    Charge (ESU x 10^10)
                 0.0000
    Dipole Moment (Debye)
         X       1.6714      Y       0.9410      Z      -2.7008
       Tot       3.3126
    Quadrupole Moments (Debye-Ang)
        XX     -64.4895     XY      -5.1992     YY    -118.9543
        XZ       3.7785     YZ       3.7599     ZZ    -120.9955

 Total job time:  63.40s(wall), 375.39s(cpu)
        *  Thank you very much for using Q-Chem.  Have a nice day.  *
