 Gaussian 16, Revision A.03,
 Gaussian 16:  ES64L-G16RevA.03 25-Dec-2016

 ----------------------------------------------------------------------
 #P UB3LYP/6-311++G(d,p) nosym opt freq SCRF=(PCM,Solvent=n,n-DiMethylF
 ormamide)
 ----------------------------------------------------------------------

 -------
 Radical
 -------
 Symbolic Z-matrix:
 Charge = -1 Multiplicity = 2

 SCF Done:  E(UB3LYP) =  -767.732071149     A.U. after   17 cycles
 SCF Done:  E(UB3LYP) =  -767.732261330     A.U. after   13 cycles
 SCF Done:  E(UB3LYP) =  -767.732323021     A.U. after   12 cycles
 SCF Done:  E(UB3LYP) =  -767.732327051     A.U. after   10 cycles
 SCF Done:  E(UB3LYP) =  -767.732326464     A.U. after   10 cycles
 SCF Done:  E(UB3LYP) =  -767.732327204     A.U. after   10 cycles
 SCF Done:  E(UB3LYP) =  -767.732327871     A.U. after   10 cycles
 SCF Done:  E(UB3LYP) =  -767.732327969     A.U. after    9 cycles
 SCF Done:  E(UB3LYP) =  -767.732328066     A.U. after    9 cycles
 SCF Done:  E(UB3LYP) =  -767.732328099     A.U. after    9 cycles
 Optimization completed.
    -- Stationary point found.
 Normal termination of Gaussian 16 at Sat Feb 10 17:16:44 2024.

 ----------------------------------------------------------------------
 #P Geom=AllCheck Guess=TCheck SCRF=Check GenChk UB3LYP/6-311++G(d,p) F
 req
 ----------------------------------------------------------------------

 Structure from the checkpoint file:  "127-rad.chk"
 -------
 Radical
 -------
 Charge = -1 Multiplicity = 2

                          Input orientation:
 ---------------------------------------------------------------------
 Center     Atomic      Atomic             Coordinates (Angstroms)
 Number     Number       Type             X           Y           Z
 ---------------------------------------------------------------------
      1          6           0       -2.971079   -2.051645   -0.030193
      2          6           0       -2.329727   -0.680606   -0.048736
      3          6           0       -3.185439    0.406455   -0.093222
      4          6           0       -2.709450    1.723019   -0.111296
      5          6           0       -1.356112    2.012849   -0.084230
      6          6           0       -0.973596    3.477346   -0.107025
      7          6           0       -0.423289    0.923922   -0.036644
      8          6           0        1.018897    1.197133   -0.003448
      9          8           0        1.492114    2.369186   -0.019065
     10          6           0        1.929680    0.055897    0.050998
     11          6           0        3.326256    0.278634    0.091922
     12          6           0        4.217735   -0.773978    0.141939
     13          6           0        3.737338   -2.101680    0.152070
     14          6           0        2.378408   -2.340376    0.112833
     15          6           0        1.447915   -1.275845    0.062313
     16          6           0        0.017592   -1.570622    0.022990
     17          8           0       -0.369061   -2.774105    0.027760
     18          6           0       -0.916046   -0.438684   -0.020859
     19          1           0       -2.696465   -2.619457    0.860322
     20          1           0       -2.660691   -2.660874   -0.880436
     21          1           0       -4.058603   -1.940107   -0.054722
     22          1           0       -4.256818    0.233727   -0.114200
     23          1           0       -3.423144    2.540036   -0.146887
     24          1           0       -0.351885    3.724679   -0.968917
     25          1           0       -0.394790    3.763560    0.772545
     26          1           0       -1.881789    4.085326   -0.142945
     27          1           0        3.678183    1.302702    0.082876
     28          1           0        5.285252   -0.583519    0.173210
     29          1           0        4.435959   -2.930696    0.190940
     30          1           0        1.992655   -3.352279    0.120109
 ---------------------------------------------------------------------

 SCF Done:  E(UB3LYP) =  -767.732328099     A.U. after    1 cycles

 Alpha  occ. eigenvalues --  -19.06733 -19.06729 -10.21992 -10.21986 -10.17836
 Alpha  occ. eigenvalues --  -10.17831 -10.17450 -10.17412 -10.17050 -10.17003
 Alpha  occ. eigenvalues --  -10.16822 -10.16779 -10.16714 -10.16710 -10.16193
 Alpha  occ. eigenvalues --  -10.16141 -10.15151 -10.15148  -0.99526  -0.99258
 Alpha  occ. eigenvalues --   -0.85749  -0.84940  -0.78181  -0.78017  -0.74659
 Alpha  occ. eigenvalues --   -0.73415  -0.70653  -0.67364  -0.63760  -0.62786
 Alpha  occ. eigenvalues --   -0.61400  -0.57208  -0.53801  -0.52951  -0.50501
 Alpha  occ. eigenvalues --   -0.47002  -0.46070  -0.45623  -0.45110  -0.42747
 Alpha  occ. eigenvalues --   -0.42158  -0.41157  -0.40841  -0.40593  -0.40029
 Alpha  occ. eigenvalues --   -0.39596  -0.38747  -0.38393  -0.36743  -0.36521
 Alpha  occ. eigenvalues --   -0.35802  -0.34960  -0.33986  -0.33941  -0.33119
 Alpha  occ. eigenvalues --   -0.32916  -0.26241  -0.25337  -0.24521  -0.23892
 Alpha  occ. eigenvalues --   -0.23491  -0.22798  -0.13610
 Alpha virt. eigenvalues --   -0.04786  -0.01972  -0.00370  -0.00090   0.00453
 Alpha virt. eigenvalues --    0.00796   0.01844   0.02188   0.03496   0.03637
 Alpha virt. eigenvalues --    0.04086   0.04264   0.04344   0.05347   0.05536

  Beta  occ. eigenvalues --  -19.06163 -19.06159 -10.21826 -10.21819 -10.17824
  Beta  occ. eigenvalues --  -10.17820 -10.17381 -10.17343 -10.17007 -10.16960
  Beta  occ. eigenvalues --  -10.16755 -10.16735 -10.16705 -10.16678 -10.16131
  Beta  occ. eigenvalues --  -10.16078 -10.15151 -10.15148  -0.98539  -0.98243
  Beta  occ. eigenvalues --   -0.85488  -0.84821  -0.77890  -0.77772  -0.74467
  Beta  occ. eigenvalues --   -0.73229  -0.70624  -0.66754  -0.63499  -0.62617
  Beta  occ. eigenvalues --   -0.61144  -0.57094  -0.53609  -0.52697  -0.50326
  Beta  occ. eigenvalues --   -0.46879  -0.45874  -0.45446  -0.45039  -0.42117
  Beta  occ. eigenvalues --   -0.42048  -0.40749  -0.40660  -0.40340  -0.39816
  Beta  occ. eigenvalues --   -0.38917  -0.38690  -0.38169  -0.36429  -0.35732
  Beta  occ. eigenvalues --   -0.34546  -0.34479  -0.33886  -0.33843  -0.32769
  Beta  occ. eigenvalues --   -0.32076  -0.24730  -0.24167  -0.23920  -0.23111
  Beta  occ. eigenvalues --   -0.22980  -0.22284
  Beta virt. eigenvalues --   -0.07749  -0.03820  -0.00937  -0.00356   0.00141
  Beta virt. eigenvalues --    0.00454   0.00804   0.01854   0.02186   0.03511
  Beta virt. eigenvalues --    0.03712   0.04092   0.04269   0.04399   0.05817

 Mulliken charges and spin densities:
               1          2
     1  C   -0.336838   0.003107
     2  C    0.928248   0.013616
     3  C   -0.473159   0.047557
     4  C   -0.474015   0.047397
     5  C    0.927872   0.013796
     6  C   -0.337771   0.003055
     7  C    0.238887   0.045320
     8  C   -1.017758   0.088613
     9  O   -0.422235   0.209639
    10  C    0.122446   0.043096
    11  C    0.041882   0.023944
    12  C   -0.519197   0.033199
    13  C   -0.519536   0.033197
    14  C    0.041869   0.023938
    15  C    0.122302   0.042928
    16  C   -1.019783   0.088565
    17  O   -0.422106   0.209535
    18  C    0.237653   0.045110
    19  H    0.160815   0.000354
    20  H    0.161479   0.000317
    21  H    0.139922  -0.000361
    22  H    0.130232  -0.004093
    23  H    0.130080  -0.004078
    24  H    0.161517   0.000355
    25  H    0.161136   0.000339
    26  H    0.139985  -0.000359
    27  H    0.169779  -0.001228
    28  H    0.178071  -0.002819
    29  H    0.178031  -0.002820
    30  H    0.170192  -0.001222
 Sum of Mulliken charges =  -1.00000   1.00000

 Dipole moment (field-independent basis, Debye):
    X=             -2.7454    Y=              0.9904    Z=             -0.0182  Tot=              2.9187
 Quadrupole moment (field-independent basis, Debye-Ang):
   XX=           -111.7286   YY=           -136.4281   ZZ=           -112.8020
   XY=            -10.2969   XZ=              0.2716   YZ=              0.1234

  Exact polarizability: 473.057 -30.799 398.556   9.737  -5.979 151.920
 Approx polarizability: 491.459 -13.237 459.342   9.286  -6.163 175.239

                      1                      2                      3
                      A                      A                      A
 Frequencies --     24.2276                39.2984               103.7170
 Red. masses --      5.2990                 4.8892                 3.1614
 Frc consts  --      0.0018                 0.0044                 0.0200
 IR Inten    --     10.2226                 6.6478                 2.6710

                      4                      5                      6
                      A                      A                      A
 Frequencies --    121.9782               163.7157               211.7772
 Red. masses --      4.2810                 5.7955                 4.3092
 Frc consts  --      0.0375                 0.0915                 0.1139
 IR Inten    --      0.0063                 0.4034                12.0093

                      7                      8                      9
                      A                      A                      A
 Frequencies --    226.9661               247.2328               258.4268
 Red. masses --      1.0888                 2.5099                 1.3404
 Frc consts  --      0.0330                 0.0904                 0.0527
 IR Inten    --      0.2767                 0.0017                 1.1347

                     10                     11                     12
                      A                      A                      A
 Frequencies --    315.6251               323.8989               328.4602
 Red. masses --      3.5394                 3.1028                 5.3322
 Frc consts  --      0.2077                 0.1918                 0.3389
 IR Inten    --      0.7408                 0.0157                 0.3842

                     13                     14                     15
                      A                      A                      A
 Frequencies --    358.0811               392.7731               403.1109
 Red. masses --      7.1169                 8.1212                 5.5762
 Frc consts  --      0.5377                 0.7382                 0.5339
 IR Inten    --      1.7593                 8.8187                20.6292

                     16                     17                     18
                      A                      A                      A
 Frequencies --    417.9051               436.1013               465.0242
 Red. masses --      5.9919                 3.2612                 5.7662
 Frc consts  --      0.6166                 0.3654                 0.7347
 IR Inten    --      0.0667                 0.5126                 0.4267

                     19                     20                     21
                      A                      A                      A
 Frequencies --    477.2136               505.7333               508.6741
 Red. masses --      4.0249                 3.9096                 7.8088
 Frc consts  --      0.5401                 0.5892                 1.1905
 IR Inten    --      0.0252                 0.0009                 0.2026

                     22                     23                     24
                      A                      A                      A
 Frequencies --    563.9340               596.3470               643.4638
 Red. masses --      3.5581                 5.0896                 4.2877
 Frc consts  --      0.6667                 1.0664                 1.0460
 IR Inten    --     37.4984                37.4281                 0.0013

                     25                     26                     27
                      A                      A                      A
 Frequencies --    658.0363               703.8526               723.3236
 Red. masses --      6.5332                 6.3904                 2.2599
 Frc consts  --      1.6668                 1.8653                 0.6966
 IR Inten    --      9.8701                 0.2572                77.9586

                     28                     29                     30
                      A                      A                      A
 Frequencies --    738.8437               753.7908               793.5298
 Red. masses --      4.8989                 5.5842                 2.0024
 Frc consts  --      1.5756                 1.8695                 0.7429
 IR Inten    --      0.0384                 9.1888                30.7562

                     31                     32                     33
                      A                      A                      A
 Frequencies --    806.8855               821.0962               850.3768
 Red. masses --      5.4512                 1.2410                 6.4467
 Frc consts  --      2.0910                 0.4929                 2.7467
 IR Inten    --      0.0183                48.5790                48.2104

                     34                     35                     36
                      A                      A                      A
 Frequencies --    876.6572               884.8307               942.2185
 Red. masses --      6.2096                 1.4766                 1.3263
 Frc consts  --      2.8117                 0.6811                 0.6937
 IR Inten    --     21.4631                 0.0669                 0.0018

                     37                     38                     39
                      A                      A                      A
 Frequencies --    943.3983               982.0640               990.7476
 Red. masses --      6.2426                 1.7923                 1.3620
 Frc consts  --      3.2735                 1.0185                 0.7877
 IR Inten    --      9.1158                11.3511                 3.0956

                     40                     41                     42
                      A                      A                      A
 Frequencies --   1001.3579              1035.2412              1041.3964
 Red. masses --      1.2833                 2.1237                 1.4150
 Frc consts  --      0.7581                 1.3410                 0.9041
 IR Inten    --      0.0520                34.7670                 1.0835

                     43                     44                     45
                      A                      A                      A
 Frequencies --   1049.9300              1053.9897              1081.0478
 Red. masses --      1.5407                 1.5462                 2.5615
 Frc consts  --      1.0007                 1.0120                 1.7638
 IR Inten    --      0.8360                 7.8498                 4.3503

                     46                     47                     48
                      A                      A                      A
 Frequencies --   1113.2197              1145.0324              1181.8067
 Red. masses --      2.1185                 1.4721                 1.7413
 Frc consts  --      1.5468                 1.1372                 1.4329
 IR Inten    --     30.9024                52.6374                51.4106

                     49                     50                     51
                      A                      A                      A
 Frequencies --   1196.7981              1217.6332              1226.7655
 Red. masses --      2.2873                 3.1206                 2.7065
 Frc consts  --      1.9302                 2.7259                 2.3998
 IR Inten    --      0.0758                 4.6370                15.8406

                     52                     53                     54
                      A                      A                      A
 Frequencies --   1238.5740              1264.1265              1306.8865
 Red. masses --      2.3825                 2.1409                 9.2819
 Frc consts  --      2.1534                 2.0157                 9.3403
 IR Inten    --    225.0506                62.1205                 2.0165

                     55                     56                     57
                      A                      A                      A
 Frequencies --   1351.5193              1366.9362              1371.5151
 Red. masses --      2.6432                 3.3398                 6.7399
 Frc consts  --      2.8446                 3.6768                 7.4698
 IR Inten    --     20.1624                13.7681                24.8435

                     58                     59                     60
                      A                      A                      A
 Frequencies --   1400.3446              1408.5261              1411.0012
 Red. masses --      3.2624                 1.2447                 1.2396
 Frc consts  --      3.7693                 1.4550                 1.4541
 IR Inten    --   1336.6403                 3.0511                 2.1917

                     61                     62                     63
                      A                      A                      A
 Frequencies --   1459.8873              1461.5636              1463.5270
 Red. masses --      1.0492                 1.0473                 1.3888
 Frc consts  --      1.3174                 1.3181                 1.7526
 IR Inten    --      7.4275                 8.9970               139.6171

                     64                     65                     66
                      A                      A                      A
 Frequencies --   1473.6259              1481.2286              1485.0249
 Red. masses --      1.9192                 2.4192                 1.3751
 Frc consts  --      2.4555                 3.1273                 1.7867
 IR Inten    --     92.0975                 0.0190                 3.8960

                     67                     68                     69
                      A                      A                      A
 Frequencies --   1509.4706              1520.6713              1573.8651
 Red. masses --      3.6728                 6.3559                 6.1014
 Frc consts  --      4.9305                 8.6596                 8.9046
 IR Inten    --    997.0594                13.7034               187.9657

                     70                     71                     72
                      A                      A                      A
 Frequencies --   1599.5249              1615.3549              1625.4427
 Red. masses --      4.4915                 7.8422                 5.8274
 Frc consts  --      6.7705                12.0566                 9.0712
 IR Inten    --     18.7123                 0.3498                 2.4008

                     73                     74                     75
                      A                      A                      A
 Frequencies --   3029.3121              3029.9067              3094.0907
 Red. masses --      1.0385                 1.0386                 1.0991
 Frc consts  --      5.6150                 5.6175                 6.1993
 IR Inten    --     94.9457                78.2707                20.0674

                     76                     77                     78
                      A                      A                      A
 Frequencies --   3094.2286              3097.0280              3098.2853
 Red. masses --      1.0992                 1.0996                 1.0990
 Frc consts  --      6.2004                 6.2139                 6.2157
 IR Inten    --     61.4247                25.5266                29.8673

                     79                     80                     81
                      A                      A                      A
 Frequencies --   3146.4520              3156.8886              3163.8272
 Red. masses --      1.0864                 1.0861                 1.0937
 Frc consts  --      6.3369                 6.3772                 6.4503
 IR Inten    --     37.9651                15.5499                76.2613

                     82                     83                     84
                      A                      A                      A
 Frequencies --   3171.6453              3191.8543              3194.8218
 Red. masses --      1.0910                 1.0915                 1.0934
 Frc consts  --      6.4664                 6.5518                 6.5757
 IR Inten    --     28.8050                15.3106                43.2417

 - Thermochemistry -
 -------------------
 Temperature   298.150 Kelvin.  Pressure   1.00000 Atm.
 Atom     1 has atomic number  6 and mass  12.00000

 Molecular mass:   236.08373 amu.
 Principal axes and moments of inertia in atomic units:
                           1         2         3
     Eigenvalues --  2612.248954712.998297303.30475
           X            0.93987   0.34040  -0.02792
           Y           -0.33990   0.94022   0.02131
           Z            0.03351  -0.01054   0.99938
 This molecule is an asymmetric top.
 Rotational symmetry number  1.
 Warning -- assumption of classical behavior for rotation
           may cause significant error
 Rotational temperatures (Kelvin)      0.03316     0.01838     0.01186
 Rotational constants (GHZ):           0.69088     0.38293     0.24711
 Zero-point vibrational energy     608926.2 (Joules/Mol)
                                  145.53686 (Kcal/Mol)
 Warning -- explicit consideration of  23 degrees of freedom as
           vibrations may cause significant error
 Vibrational temperatures:     34.86    56.54   149.23   175.50   235.55
          (Kelvin)            304.70   326.55   355.71   371.82   454.11
                              466.02   472.58   515.20   565.11   579.99
                              601.27   627.45   669.07   686.60   727.64
                              731.87   811.38   858.01   925.80   946.77
                             1012.69  1040.70  1063.03  1084.54  1141.71
                             1160.93  1181.37  1223.50  1261.31  1273.07
                             1355.64  1357.34  1412.97  1425.46  1440.73
                             1489.48  1498.34  1510.62  1516.46  1555.39
                             1601.67  1647.45  1700.36  1721.93  1751.90
                             1765.04  1782.03  1818.80  1880.32  1944.53
                             1966.72  1973.30  2014.78  2026.55  2030.12
                             2100.45  2102.86  2105.69  2120.22  2131.16
                             2136.62  2171.79  2187.91  2264.44  2301.36
                             2324.14  2338.65  4358.50  4359.36  4451.71
                             4451.90  4455.93  4457.74  4527.04  4542.06
                             4552.04  4563.29  4592.37  4596.64

 Zero-point correction=                           0.231928 (Hartree/Particle)
 Thermal correction to Energy=                    0.246263
 Thermal correction to Enthalpy=                  0.247207
 Thermal correction to Gibbs Free Energy=         0.189606
 Sum of electronic and zero-point Energies=           -767.500400
 Sum of electronic and thermal Energies=              -767.486065
 Sum of electronic and thermal Enthalpies=            -767.485121
 Sum of electronic and thermal Free Energies=         -767.542722

                     E (Thermal)             CV                S
                      KCal/Mol        Cal/Mol-Kelvin    Cal/Mol-Kelvin
 Total                  154.532             57.783            121.231
 Electronic               0.000              0.000              1.377
 Translational            0.889              2.981             42.279
 Rotational               0.889              2.981             32.864
 Vibrational            152.755             51.821             44.711
 Vibration     1          0.593              1.985              6.253
 Vibration     2          0.594              1.981              5.294
 Vibration     3          0.605              1.946              3.383
 Vibration     4          0.609              1.931              3.069
 Vibration     5          0.623              1.887              2.506
 Vibration     6          0.643              1.823              2.028
 Vibration     7          0.651              1.800              1.903
 Vibration     8          0.661              1.767              1.750
 Vibration     9          0.667              1.749              1.672
 Vibration    10          0.703              1.644              1.333
 Vibration    11          0.708              1.628              1.290
 Vibration    12          0.712              1.619              1.268
 Vibration    13          0.733              1.559              1.130
 Vibration    14          0.760              1.486              0.990
 Vibration    15          0.769              1.463              0.951
 Vibration    16          0.781              1.431              0.899
 Vibration    17          0.797              1.392              0.839
 Vibration    18          0.822              1.328              0.752
 Vibration    19          0.834              1.301              0.718
 Vibration    20          0.861              1.237              0.644
 Vibration    21          0.864              1.231              0.637
 Vibration    22          0.920              1.109              0.516
 Vibration    23          0.954              1.040              0.456

                           ! Non-Optimized Parameters !
 Normal termination of Gaussian 16 at Sat Feb 10 18:57:04 2024.
