 Gaussian 16, Revision A.03,
 Gaussian 16:  ES64L-G16RevA.03 25-Dec-2016

 ----------------------------------------------------------------
 #P UB3LYP/6-311++G(d,p) SCRF=(PCM,Solvent=n,n-DiMethylFormamide)
 ----------------------------------------------------------------

 ------------------
 Radical PCM in DMF
 ------------------
 Symbolic Z-matrix:
 Charge = -1 Multiplicity = 2

                         Standard orientation:
 ---------------------------------------------------------------------
 Center     Atomic      Atomic             Coordinates (Angstroms)
 Number     Number       Type             X           Y           Z
 ---------------------------------------------------------------------
      1          6           0        1.325858    2.393952   -0.028554
      2          6           0        2.696579    2.311718   -0.023121
      3          6           0        3.332084    1.053515   -0.004006
      4          6           0        2.577289   -0.112490    0.007609
      5          6           0        1.143872   -0.068277   -0.001352
      6          6           0        0.530638    1.224464   -0.014846
      7          6           0       -0.920130    1.411798   -0.014009
      8          6           0        0.312543   -1.276689   -0.008023
      9          6           0       -1.752076    0.220423    0.022130
     10          6           0       -1.152424   -1.072765   -0.001686
     11          6           0       -3.187092    0.311186    0.041777
     12          6           0       -3.951431   -0.855834   -0.003321
     13          6           0       -3.338398   -2.115339   -0.042482
     14          6           0       -1.961349   -2.226044   -0.031770
     15          8           0       -1.402976    2.588903   -0.053895
     16          8           0        0.773829   -2.438932   -0.022852
     17          7           0       -3.809472    1.545310    0.148833
     18          8           0        3.167456   -1.344443    0.029867
     19          6           0        4.573388   -1.427708    0.039987
     20          1           0        0.808967    3.344682   -0.040779
     21          1           0        3.303351    3.212461   -0.031436
     22          1           0        4.412546    1.009220    0.002909
     23          1           0       -5.035365   -0.773396    0.012302
     24          1           0       -3.956978   -3.008080   -0.074037
     25          1           0       -1.463280   -3.186583   -0.051955
     26          1           0       -3.173816    2.327794   -0.020864
     27          1           0       -4.745237    1.602731   -0.221728
     28          1           0        4.804061   -2.493645    0.056904
     29          1           0        5.009193   -0.950930    0.928499
     30          1           0        5.020300   -0.977105   -0.856582
 ---------------------------------------------------------------------

 SCF Done:  E(UB3LYP) =  -859.022752637     A.U. after   19 cycles

 The electronic state is 2-A.
 Alpha  occ. eigenvalues --  -19.15000 -19.07444 -19.06753 -14.30237 -10.23710
 Alpha  occ. eigenvalues --  -10.22345 -10.22334 -10.21678 -10.21367 -10.17487
 Alpha  occ. eigenvalues --  -10.17213 -10.17166 -10.16977 -10.16866 -10.16843
 Alpha  occ. eigenvalues --  -10.16664 -10.16010 -10.15984 -10.15402  -1.06913
 Alpha  occ. eigenvalues --   -1.00105  -0.99771  -0.91009  -0.85443  -0.83385
 Alpha  occ. eigenvalues --   -0.78103  -0.75780  -0.73823  -0.72597  -0.69603
 Alpha  occ. eigenvalues --   -0.66291  -0.62916  -0.62248  -0.57820  -0.55682
 Alpha  occ. eigenvalues --   -0.54624  -0.52786  -0.50523  -0.48501  -0.48131
 Alpha  occ. eigenvalues --   -0.46834  -0.46499  -0.46208  -0.44518  -0.43866
 Alpha  occ. eigenvalues --   -0.42399  -0.42049  -0.41065  -0.40287  -0.39327
 Alpha  occ. eigenvalues --   -0.38358  -0.37631  -0.37361  -0.35993  -0.35322
 Alpha  occ. eigenvalues --   -0.34932  -0.34199  -0.33221  -0.31849  -0.30590
 Alpha  occ. eigenvalues --   -0.26578  -0.24725  -0.24328  -0.22975  -0.22721
 Alpha  occ. eigenvalues --   -0.20925  -0.13538
 Alpha virt. eigenvalues --   -0.04036  -0.02027  -0.00345   0.00243   0.00934
 Alpha virt. eigenvalues --    0.01076   0.01747   0.01935   0.03491   0.03512
 Alpha virt. eigenvalues --    0.03890   0.03985   0.04862   0.05222   0.05715

  Beta  occ. eigenvalues --  -19.15000 -19.06936 -19.06226 -14.30213 -10.23716
  Beta  occ. eigenvalues --  -10.22191 -10.22133 -10.21677 -10.21357 -10.17422
  Beta  occ. eigenvalues --  -10.17114 -10.17110 -10.16983 -10.16813 -10.16746
  Beta  occ. eigenvalues --  -10.16588 -10.15974 -10.15933 -10.15383  -1.06904
  Beta  occ. eigenvalues --   -0.99218  -0.98849  -0.90918  -0.85203  -0.83232
  Beta  occ. eigenvalues --   -0.77721  -0.75633  -0.73628  -0.72376  -0.69500
  Beta  occ. eigenvalues --   -0.65605  -0.62731  -0.62011  -0.57747  -0.55519
  Beta  occ. eigenvalues --   -0.54412  -0.52651  -0.50437  -0.48332  -0.47996
  Beta  occ. eigenvalues --   -0.46785  -0.46321  -0.46095  -0.44412  -0.43746
  Beta  occ. eigenvalues --   -0.42285  -0.40994  -0.40727  -0.40035  -0.39120
  Beta  occ. eigenvalues --   -0.37790  -0.37486  -0.35933  -0.35583  -0.34921
  Beta  occ. eigenvalues --   -0.34411  -0.33937  -0.33154  -0.31282  -0.29973
  Beta  occ. eigenvalues --   -0.24621  -0.24193  -0.23873  -0.22304  -0.22243
  Beta  occ. eigenvalues --   -0.20243
  Beta virt. eigenvalues --   -0.07948  -0.02962  -0.00965  -0.00333   0.00248
  Beta virt. eigenvalues --    0.00940   0.01322   0.01755   0.01951   0.03517
  Beta virt. eigenvalues --    0.03528   0.03895   0.03998   0.04965   0.05278

 Mulliken charges and spin densities:
               1          2
     1  C   -0.225218   0.029406
     2  C   -0.463539   0.046554
     3  C   -0.198112   0.062554
     4  C   -0.000410   0.011683
     5  C    0.167938   0.035796
     6  C    0.281261   0.029003
     7  C   -0.496465   0.112966
     8  C   -0.534954   0.063311
     9  C    0.169492  -0.017408
    10  C    0.599163   0.067033
    11  C    0.174609   0.026925
    12  C   -0.189618   0.068897
    13  C   -0.466144   0.044715
    14  C   -0.136753   0.045045
    15  O   -0.468275   0.186246
    16  O   -0.460588   0.199792
    17  N   -0.428794   0.010465
    18  O   -0.146039  -0.000416
    19  C   -0.279777  -0.000297
    20  H    0.156347  -0.001480
    21  H    0.191473  -0.003497
    22  H    0.180739  -0.004167
    23  H    0.158998  -0.004848
    24  H    0.181369  -0.003262
    25  H    0.155708  -0.002560
    26  H    0.311352  -0.002332
    27  H    0.262934  -0.000651
    28  H    0.193032  -0.000169
    29  H    0.154679   0.000321
    30  H    0.155592   0.000377
 Sum of Mulliken charges =  -1.00000   1.00000

 Dipole moment (field-independent basis, Debye):
    X=              2.6747    Y=              1.1621    Z=             -0.7842  Tot=              3.0199
 Quadrupole moment (field-independent basis, Debye-Ang):
   XX=            -97.8385   YY=           -140.7859   ZZ=           -119.0660
   XY=              7.6280   XZ=              4.2765   YZ=             -1.5216

 Normal termination of Gaussian 16 at Sun Jan 14 01:18:11 2024.
