 Gaussian 16, Revision A.03,
 Gaussian 16:  ES64L-G16RevA.03 25-Dec-2016

 ----------------------------------------------------------------
 #P UB3LYP/6-311++G(d,p) SCRF=(PCM,Solvent=n,n-DiMethylFormamide)
 ----------------------------------------------------------------

 -------
 Reduced
 -------
 Symbolic Z-matrix:
 Charge = -3 Multiplicity = 1

                         Standard orientation:
 ---------------------------------------------------------------------
 Center     Atomic      Atomic             Coordinates (Angstroms)
 Number     Number       Type             X           Y           Z
 ---------------------------------------------------------------------
      1          6           0        3.435865   -2.055963   -0.046295
      2          6           0        4.783211   -1.736539   -0.029869
      3          6           0        5.175159   -0.393362    0.008976
      4          6           0        2.434147   -1.052579    0.002413
      5          6           0        2.828895    0.307935   -0.010032
      6          6           0        4.196078    0.604179   -0.004678
      7          6           0        1.027553   -1.469589    0.027812
      8          6           0        0.004729   -0.408068    0.005323
      9          6           0        0.350213    0.964640   -0.016871
     10          6           0        1.807654    1.456774    0.005380
     11          6           0       -1.360468   -0.784813   -0.008390
     12          6           0       -2.369596    0.165975   -0.018654
     13          6           0       -2.034086    1.522160   -0.023332
     14          6           0       -0.690188    1.900081   -0.029569
     15          8           0        0.708372   -2.682077    0.032886
     16         16           0       -4.138605   -0.321795   -0.001160
     17          8           0       -4.305137   -1.287008   -1.124574
     18          8           0       -4.376813   -0.932166    1.339091
     19          8           0       -4.888926    0.955241   -0.203204
     20          6           0        2.025955    2.288820    1.299546
     21          6           0        2.055018    2.375801   -1.228856
     22          1           0        3.101016   -3.086269   -0.080873
     23          1           0        5.536651   -2.523575   -0.049721
     24          1           0        6.228480   -0.121778    0.026886
     25          1           0        4.520824    1.639622    0.000452
     26          1           0       -1.589709   -1.842627   -0.011504
     27          1           0       -2.826132    2.260601   -0.034242
     28          1           0       -0.458728    2.960827   -0.039597
     29          1           0        1.882254    1.659643    2.183207
     30          1           0        1.319945    3.121533    1.355819
     31          1           0        3.033624    2.709945    1.338832
     32          1           0        1.353969    3.216401   -1.245395
     33          1           0        1.930753    1.811166   -2.157088
     34          1           0        3.063920    2.798589   -1.219224
 ---------------------------------------------------------------------

 SCF Done:  E(UB3LYP) =  -1317.17827602     A.U. after   23 cycles

 The electronic state is 1-A.
 Alpha  occ. eigenvalues --  -89.02387 -19.07303 -19.07268 -19.07173 -18.99705
 Alpha  occ. eigenvalues --  -10.16896 -10.15863 -10.14132 -10.14070 -10.14027
 Alpha  occ. eigenvalues --  -10.13591 -10.13558 -10.13487 -10.13229 -10.12944
 Alpha  occ. eigenvalues --  -10.12256 -10.12180 -10.12010 -10.11839 -10.11795
 Alpha  occ. eigenvalues --  -10.11433  -8.08301  -6.04590  -6.04584  -6.04423
 Alpha  occ. eigenvalues --   -1.08792  -0.95318  -0.95192  -0.92871  -0.83159
 Alpha  occ. eigenvalues --   -0.81009  -0.77824  -0.71936  -0.71196  -0.69690
 Alpha  occ. eigenvalues --   -0.69121  -0.66802  -0.61454  -0.59685  -0.58408
 Alpha  occ. eigenvalues --   -0.55532  -0.54572  -0.52067  -0.49218  -0.48835
 Alpha  occ. eigenvalues --   -0.45227  -0.44145  -0.43548  -0.43477  -0.42258
 Alpha  occ. eigenvalues --   -0.41024  -0.40665  -0.40379  -0.39772  -0.38314
 Alpha  occ. eigenvalues --   -0.37889  -0.37607  -0.36522  -0.35126  -0.34919
 Alpha  occ. eigenvalues --   -0.34235  -0.32902  -0.32393  -0.32263  -0.31857
 Alpha  occ. eigenvalues --   -0.31752  -0.31077  -0.29885  -0.29203  -0.27831
 Alpha  occ. eigenvalues --   -0.27782  -0.27538  -0.26232  -0.23925  -0.21620
 Alpha  occ. eigenvalues --   -0.21242  -0.20950  -0.20516  -0.17726  -0.05878
 Alpha virt. eigenvalues --   -0.00032   0.00947   0.01040   0.01405   0.01925
 Alpha virt. eigenvalues --    0.02396   0.02478   0.02519   0.02808   0.03665
 Alpha virt. eigenvalues --    0.04637   0.04715   0.04999   0.05443   0.05840

  Beta  occ. eigenvalues --  -89.02387 -19.07303 -19.07268 -19.07173 -18.99705
  Beta  occ. eigenvalues --  -10.16896 -10.15863 -10.14132 -10.14070 -10.14027
  Beta  occ. eigenvalues --  -10.13591 -10.13558 -10.13487 -10.13229 -10.12944
  Beta  occ. eigenvalues --  -10.12256 -10.12180 -10.12010 -10.11839 -10.11795
  Beta  occ. eigenvalues --  -10.11433  -8.08301  -6.04590  -6.04584  -6.04423
  Beta  occ. eigenvalues --   -1.08792  -0.95318  -0.95192  -0.92871  -0.83159
  Beta  occ. eigenvalues --   -0.81009  -0.77824  -0.71936  -0.71196  -0.69690
  Beta  occ. eigenvalues --   -0.69121  -0.66802  -0.61454  -0.59685  -0.58408
  Beta  occ. eigenvalues --   -0.55532  -0.54572  -0.52067  -0.49218  -0.48835
  Beta  occ. eigenvalues --   -0.45227  -0.44145  -0.43548  -0.43477  -0.42258
  Beta  occ. eigenvalues --   -0.41024  -0.40665  -0.40379  -0.39772  -0.38314
  Beta  occ. eigenvalues --   -0.37889  -0.37607  -0.36522  -0.35126  -0.34919
  Beta  occ. eigenvalues --   -0.34235  -0.32902  -0.32393  -0.32263  -0.31857
  Beta  occ. eigenvalues --   -0.31752  -0.31077  -0.29885  -0.29203  -0.27831
  Beta  occ. eigenvalues --   -0.27782  -0.27538  -0.26232  -0.23925  -0.21620
  Beta  occ. eigenvalues --   -0.21242  -0.20950  -0.20516  -0.17726  -0.05878
  Beta virt. eigenvalues --   -0.00032   0.00947   0.01040   0.01405   0.01925
  Beta virt. eigenvalues --    0.02396   0.02478   0.02519   0.02808   0.03665
  Beta virt. eigenvalues --    0.04637   0.04715   0.04999   0.05443   0.05840

 Mulliken charges and spin densities:
               1          2
     1  C   -0.383576  -0.000000
     2  C   -0.398682   0.000000
     3  C   -0.614153   0.000000
     4  C    0.669316   0.000000
     5  C    0.314521   0.000000
     6  C   -0.328572   0.000000
     7  C   -0.566828  -0.000000
     8  C    0.484111   0.000000
     9  C    0.291300  -0.000000
    10  C    0.491807  -0.000000
    11  C   -0.494748   0.000000
    12  C   -1.008009  -0.000000
    13  C   -0.377010   0.000000
    14  C   -0.177109   0.000000
    15  O   -0.692939   0.000000
    16  S    0.828538  -0.000000
    17  O   -0.410349   0.000000
    18  O   -0.387165   0.000000
    19  O   -0.450567  -0.000000
    20  C   -0.797347  -0.000000
    21  C   -0.779583   0.000000
    22  H    0.143212  -0.000000
    23  H    0.136690   0.000000
    24  H    0.134915  -0.000000
    25  H    0.089252  -0.000000
    26  H    0.172549  -0.000000
    27  H    0.181009   0.000000
    28  H    0.103568   0.000000
    29  H    0.151479   0.000000
    30  H    0.132818  -0.000000
    31  H    0.131509   0.000000
    32  H    0.127051  -0.000000
    33  H    0.152454  -0.000000
    34  H    0.130540   0.000000
 Sum of Mulliken charges =  -3.00000   0.00000

 Dipole moment (field-independent basis, Debye):
    X=             14.6676    Y=             14.2661    Z=             -0.0774  Tot=             20.4613
 Quadrupole moment (field-independent basis, Debye-Ang):
   XX=           -321.6267   YY=           -185.7691   ZZ=           -159.1309
   XY=              7.5267   XZ=              0.2422   YZ=              0.3155

 Normal termination of Gaussian 16 at Sat Jan 13 19:28:27 2024.
