 Q-Chem 5.4, Q-Chem, Inc., Pleasanton, CA (2021)
 Q-Chem 5.4.0 for Intel X86 EM64T Linux

User input:
--------------------------------------------------------------
$molecule
-1 2
C                 -0.3395910000     -2.0609520000      0.9148760000
C                 -0.2320890000     -0.9529620000     -0.1694210000
C                 -0.5450530000     -1.5703230000     -1.5606760000
C                 -1.2775810000      0.1348230000      0.1328000000
C                 -2.6297520000     -0.2092510000      0.1773290000
C                 -3.6339190000      0.7303620000      0.4464830000
C                 -3.2671150000      2.0618070000      0.6787330000
C                 -1.9337970000      2.4302420000      0.6405500000
C                 -0.9076910000      1.4858520000      0.3689240000
C                  0.4738150000      1.9455390000      0.3453440000
O                  0.7701640000      3.1623490000      0.5613310000
C                  1.5017370000      0.9531700000      0.0641530000
C                  2.8594910000      1.3705400000      0.0345500000
C                  3.8864410000      0.4805060000     -0.2265730000
C                  3.6004720000     -0.8686200000     -0.4700520000
C                  2.2645890000     -1.2909400000     -0.4431240000
C                  1.2094790000     -0.4149230000     -0.1823790000
H                  0.3710500000     -2.8701990000      0.7240240000
H                 -1.3455070000     -2.4895170000      0.9427420000
H                 -0.1214460000     -1.6437900000      1.9010240000
H                 -1.5552040000     -1.9888460000     -1.5885830000
H                 -0.4742730000     -0.8038330000     -2.3363230000
H                  0.1617200000     -2.3680100000     -1.8066360000
H                 -2.9261380000     -1.2385330000     -0.0015870000
H                 -4.6751240000      0.4251030000      0.4728560000
H                 -4.0297530000      2.8074180000      0.8893260000
H                 -1.6203260000      3.4522930000      0.8162640000
H                  3.0503710000      2.4195770000      0.2263920000
H                  4.9157770000      0.8299410000     -0.2425290000
H                  4.3942390000     -1.5794730000     -0.6764990000
H                  2.0550140000     -2.3393490000     -0.6333200000
$end
$rem
MAX_SCF_CYCLES=200
BASIS  =  6-311++G(d,p)
GUI  =  2
JOB_TYPE  =  SP
METHOD  =  B3LYP
SOLVENT_METHOD = COSMO
$end
$solvent
dielectric 37.219
opticaldielectric 1.43
$end

--------------------------------------------------------------

             Standard Nuclear Orientation (Angstroms)
    I     Atom           X                Y                Z
 ----------------------------------------------------------------
    1      C       0.0000602296     2.2798141122    -1.2655190178
    2      C      -0.0000470765     1.3782614915     0.0002224111
    3      C      -0.0004152362     2.2788882604     1.2665331282
    4      C      -1.2832505902     0.5291114278    -0.0001932057
    5      C      -2.5253530779     1.1662278518    -0.0006779830
    6      C      -3.7327178730     0.4549346116    -0.0007639958
    7      C      -3.6909261727    -0.9448811083    -0.0001091349
    8      C      -2.4730895597    -1.6020058262     0.0004095567
    9      C      -1.2431381642    -0.8908334107     0.0002107517
   10      C       0.0000595027    -1.6490461402     0.0001915613
   11      O       0.0001239516    -2.9199118594     0.0002903597
   12      C       1.2432203514    -0.8907326963    -0.0000800806
   13      C       2.4732033340    -1.6018667841    -0.0004682443
   14      C       3.6910420661    -0.9447207830    -0.0004937836
   15      C       3.7327487950     0.4550869466    -0.0001398444
   16      C       2.5253484749     1.1663162214     0.0001340460
   17      C       1.2832695854     0.5292205594     0.0001009215
   18      H       0.8854527289     2.9214066731    -1.2929950411
   19      H      -0.8863601458     2.9199334564    -1.2941129957
   20      H       0.0011223445     1.6618589227    -2.1667567827
   21      H      -0.8862478801     2.9198634986     1.2947575148
   22      H      -0.0008323525     1.6603889028     2.1674234478
   23      H       0.8855139280     2.9196846521     1.2954890533
   24      H      -2.5701662551     2.2512480380    -0.0007571344
   25      H      -4.6795619322     0.9854745133    -0.0011935208
   26      H      -4.6154991626    -1.5167785411    -0.0000267943
   27      H      -2.4097784355    -2.6835414213     0.0008365219
   28      H       2.4099580231    -2.6834014113    -0.0006565780
   29      H       4.6156447235    -1.5165615622    -0.0007451228
   30      H       4.6795344859     0.9857424406    -0.0000775612
   31      H       2.5701407848     2.2513283102     0.0003495965
 ----------------------------------------------------------------

   11    -693.5843564702      4.04e-06  Convergence criterion met
 Total energy in the final basis set =     -693.5843564702
    4    -693.6677371376      8.61e-06  Convergence criterion met
 Total energy in the final basis set =     -693.6677371376

                    Orbital Energies (a.u.)
 --------------------------------------------------------------

 Alpha MOs
 -- Occupied --
-19.0538 -10.1939 -10.1884 -10.1697 -10.1697 -10.1605 -10.1605 -10.1593
-10.1593 -10.1582 -10.1582 -10.1579 -10.1579 -10.1526 -10.1526 -10.1523
-10.1523  -0.9767  -0.8604  -0.8387  -0.8002  -0.7551  -0.7362  -0.7271
 -0.7144  -0.6802  -0.6367  -0.6194  -0.6000  -0.5771  -0.5477  -0.5243
 -0.5137  -0.4708  -0.4499  -0.4460  -0.4433  -0.4283  -0.4231  -0.4224
 -0.4068  -0.3946  -0.3911  -0.3907  -0.3842  -0.3715  -0.3610  -0.3529
 -0.3518  -0.3442  -0.3366  -0.3286  -0.3101  -0.3010  -0.2483  -0.2461
 -0.2414  -0.2404  -0.2262  -0.1092

 Beta MOs
 -- Occupied --
-19.0483 -10.1896 -10.1885 -10.1682 -10.1682 -10.1613 -10.1612 -10.1598
-10.1598 -10.1587 -10.1587 -10.1557 -10.1557 -10.1521 -10.1521 -10.1508
-10.1508  -0.9661  -0.8581  -0.8367  -0.7986  -0.7505  -0.7341  -0.7247
 -0.7129  -0.6797  -0.6287  -0.6189  -0.5976  -0.5757  -0.5458  -0.5214
 -0.5124  -0.4685  -0.4488  -0.4450  -0.4415  -0.4269  -0.4224  -0.4190
 -0.4061  -0.3932  -0.3896  -0.3867  -0.3710  -0.3708  -0.3603  -0.3507
 -0.3471  -0.3380  -0.3357  -0.3168  -0.3089  -0.3002  -0.2403  -0.2352
 -0.2338  -0.2301  -0.2213

          Ground-State Mulliken Net Atomic Charges

     Atom                 Charge (a.u.)    Spin (a.u.)
  --------------------------------------------------------
      1 C                    -0.805892       0.017998
      2 C                     0.386721      -0.094867
      3 C                    -0.806189       0.017982
      4 C                     0.220200       0.130853
      5 C                    -0.143290      -0.059521
      6 C                    -0.525419       0.181166
      7 C                    -0.437770      -0.065245
      8 C                     0.046749       0.173399
      9 C                     0.290603      -0.065990
     10 C                    -0.432864       0.281143
     11 O                    -0.607594       0.205687
     12 C                     0.290316      -0.066030
     13 C                     0.047259       0.173403
     14 C                    -0.438744      -0.065249
     15 C                    -0.524692       0.181164
     16 C                    -0.143363      -0.059548
     17 C                     0.220029       0.130854
     18 H                     0.150249       0.004107
     19 H                     0.150192       0.004107
     20 H                     0.171489       0.000975
     21 H                     0.150269       0.004111
     22 H                     0.171453       0.000979
     23 H                     0.150261       0.004109
     24 H                     0.147362       0.002512
     25 H                     0.190172      -0.013010
     26 H                     0.184998       0.003711
     27 H                     0.187513      -0.011007
     28 H                     0.187564      -0.011006
     29 H                     0.184925       0.003711
     30 H                     0.190189      -0.013010
     31 H                     0.147305       0.002513
  --------------------------------------------------------
  Sum of atomic charges =    -1.000000

                    Cartesian Multipole Moments
 -----------------------------------------------------------------
    Charge (ESU x 10^10)
                -4.8032
    Dipole Moment (Debye)
         X       0.0009      Y      10.2548      Z       0.0011
       Tot      10.2548
    Quadrupole Moments (Debye-Ang)
        XX    -113.6312     XY      -0.0017     YY    -127.5603
        XZ      -0.0024     YZ       0.0019     ZZ    -111.4920

 Total job time:  109.99s(wall), 794.94s(cpu)
        *  Thank you very much for using Q-Chem.  Have a nice day.  *
