 Q-Chem 5.4, Q-Chem, Inc., Pleasanton, CA (2021)
 Q-Chem 5.4.0 for Intel X86 EM64T Linux

User input:
--------------------------------------------------------------
$molecule
-2 1
C                 -3.7585500000      1.7610710000     -0.3767200000
C                 -2.5203320000      0.9268520000     -0.1346320000
C                 -1.2641710000      1.4296220000     -0.4123190000
C                 -0.0692820000      0.6874560000     -0.2404370000
C                  1.2063870000      1.3055670000     -0.5527730000
O                  1.3069720000      2.5091240000     -0.9787850000
C                  2.3605320000      0.4539970000     -0.3372400000
C                  3.6563790000      0.9609380000     -0.6083740000
C                  4.7967570000      0.2054550000     -0.4253690000
C                  4.6850960000     -1.1309850000      0.0520180000
C                  3.4380640000     -1.6534450000      0.3288630000
C                  2.2473870000     -0.9038300000      0.1554580000
C                  0.9708910000     -1.5182070000      0.4665580000
O                  0.8700770000     -2.7217860000      0.8925170000
C                 -0.1818080000     -0.6630700000      0.2499080000
C                 -1.4804030000     -1.1618050000      0.5200230000
C                 -2.6335650000     -0.4237800000      0.3373990000
C                 -3.9867820000     -1.0049240000      0.6822750000
H                 -3.4882040000      2.7757290000     -0.6831470000
H                 -4.4038950000      1.3388760000     -1.1681500000
H                 -4.3914180000      1.8405780000      0.5132710000
H                 -1.1489870000      2.4417350000     -0.7898170000
H                  3.7078200000      1.9828170000     -0.9717280000
H                  5.7761480000      0.6269010000     -0.6451430000
H                  5.5787870000     -1.7352110000      0.1981470000
H                  3.3193650000     -2.6687580000      0.6948470000
H                 -1.5337760000     -2.1799940000      0.8949940000
H                 -4.4739900000     -0.4724670000      1.5190700000
H                 -4.6910650000     -0.9532910000     -0.1545100000
H                 -3.8944330000     -2.0551640000      0.9737970000
$end
$rem
MAX_SCF_CYCLES=200
BASIS  =  6-311++G(d,p)
GUI  =  2
JOB_TYPE  =  SP
METHOD  =  B3LYP
SOLVENT_METHOD = PCM
$end
$pcm
theory = CPCM
$end
$solvent
dielectric 37.219
opticaldielectric 1.43
$end

--------------------------------------------------------------

             Standard Nuclear Orientation (Angstroms)
    I     Atom           X                Y                Z
 ----------------------------------------------------------------
    1      C      -3.7585500000     1.7610710000    -0.3767200000
    2      C      -2.5203320000     0.9268520000    -0.1346320000
    3      C      -1.2641710000     1.4296220000    -0.4123190000
    4      C      -0.0692820000     0.6874560000    -0.2404370000
    5      C       1.2063870000     1.3055670000    -0.5527730000
    6      O       1.3069720000     2.5091240000    -0.9787850000
    7      C       2.3605320000     0.4539970000    -0.3372400000
    8      C       3.6563790000     0.9609380000    -0.6083740000
    9      C       4.7967570000     0.2054550000    -0.4253690000
   10      C       4.6850960000    -1.1309850000     0.0520180000
   11      C       3.4380640000    -1.6534450000     0.3288630000
   12      C       2.2473870000    -0.9038300000     0.1554580000
   13      C       0.9708910000    -1.5182070000     0.4665580000
   14      O       0.8700770000    -2.7217860000     0.8925170000
   15      C      -0.1818080000    -0.6630700000     0.2499080000
   16      C      -1.4804030000    -1.1618050000     0.5200230000
   17      C      -2.6335650000    -0.4237800000     0.3373990000
   18      C      -3.9867820000    -1.0049240000     0.6822750000
   19      H      -3.4882040000     2.7757290000    -0.6831470000
   20      H      -4.4038950000     1.3388760000    -1.1681500000
   21      H      -4.3914180000     1.8405780000     0.5132710000
   22      H      -1.1489870000     2.4417350000    -0.7898170000
   23      H       3.7078200000     1.9828170000    -0.9717280000
   24      H       5.7761480000     0.6269010000    -0.6451430000
   25      H       5.5787870000    -1.7352110000     0.1981470000
   26      H       3.3193650000    -2.6687580000     0.6948470000
   27      H      -1.5337760000    -2.1799940000     0.8949940000
   28      H      -4.4739900000    -0.4724670000     1.5190700000
   29      H      -4.6910650000    -0.9532910000    -0.1545100000
   30      H      -3.8944330000    -2.0551640000     0.9737970000
 ----------------------------------------------------------------

    8    -767.8477101357      7.41e-06  Convergence criterion met
 Total energy in the final basis set =     -767.8477101357

                    Orbital Energies (a.u.)
 --------------------------------------------------------------

 Alpha MOs
 -- Occupied --
-19.0219 -19.0218 -10.1729 -10.1729 -10.1547 -10.1543 -10.1508 -10.1508
-10.1471 -10.1467 -10.1448 -10.1448 -10.1402 -10.1402 -10.1341 -10.1337
-10.1331 -10.1327  -0.9434  -0.9404  -0.8319  -0.8218  -0.7644  -0.7407
 -0.7219  -0.7216  -0.6812  -0.6600  -0.6238  -0.5938  -0.5705  -0.5583
 -0.5236  -0.4931  -0.4846  -0.4495  -0.4328  -0.4230  -0.4154  -0.4135
 -0.3981  -0.3965  -0.3877  -0.3827  -0.3776  -0.3699  -0.3680  -0.3648
 -0.3504  -0.3438  -0.3311  -0.3277  -0.3135  -0.3111  -0.2971  -0.2935
 -0.2324  -0.2240  -0.2222  -0.2081  -0.2053  -0.1969  -0.1036

          Ground-State Mulliken Net Atomic Charges

     Atom                 Charge (a.u.)
  ----------------------------------------
      1 C                    -0.532339
      2 C                     0.232608
      3 C                    -0.242104
      4 C                     0.184941
      5 C                    -0.488285
      6 O                    -0.680917
      7 C                     0.215949
      8 C                    -0.007856
      9 C                    -0.586910
     10 C                    -0.589727
     11 C                    -0.007936
     12 C                     0.217002
     13 C                    -0.483166
     14 O                    -0.680978
     15 C                     0.182022
     16 C                    -0.245414
     17 C                     0.242100
     18 C                    -0.532114
     19 H                     0.167941
     20 H                     0.161982
     21 H                     0.151201
     22 H                     0.109249
     23 H                     0.140701
     24 H                     0.170722
     25 H                     0.170717
     26 H                     0.139677
     27 H                     0.110061
     28 H                     0.162162
     29 H                     0.150885
     30 H                     0.167828
  ----------------------------------------
  Sum of atomic charges =    -2.000000

                    Cartesian Multipole Moments
 -----------------------------------------------------------------
    Charge (ESU x 10^10)
                -9.6064
    Dipole Moment (Debye)
         X     -11.9743      Y       1.1694      Z       0.4765
       Tot      12.0407
    Quadrupole Moments (Debye-Ang)
        XX    -140.1348     XY      -1.6909     YY    -163.8431
        XZ       2.1707     YZ      15.9495     ZZ    -124.2189

 Total job time:  88.35s(wall), 387.33s(cpu)
        *  Thank you very much for using Q-Chem.  Have a nice day.  *
