 Q-Chem 5.4, Q-Chem, Inc., Pleasanton, CA (2021)
 Q-Chem 5.4.0 for Intel X86 EM64T Linux

User input:
--------------------------------------------------------------
$molecule
-4 1
O                 -6.0500460000      0.3344170000     -1.2397150000
S                 -5.4038040000      0.5893170000      0.0940100000
O                 -5.3015790000      2.0472590000      0.4115250000
O                 -6.0850520000     -0.1893260000      1.1848940000
C                 -3.7049180000     -0.0628450000     -0.0255820000
C                 -3.5378930000     -1.4407570000     -0.3480980000
C                 -2.2700360000     -1.9588390000     -0.4883900000
C                 -1.0951750000     -1.1731180000     -0.3155480000
C                  0.2045830000     -1.7801520000     -0.5135880000
O                  0.3463020000     -3.0092400000     -0.8827180000
C                  1.3337060000     -0.9169530000     -0.2359670000
C                  2.6551630000     -1.4395170000     -0.3266920000
C                  3.7754460000     -0.6695070000     -0.1084980000
C                  3.6303930000      0.7108710000      0.2140470000
C                  2.3642660000      1.2496920000      0.3385820000
C                  1.1865080000      0.4730510000      0.1386370000
C                 -0.1254930000      1.0970190000      0.2985640000
O                 -0.2654090000      2.3265400000      0.6106320000
C                 -1.2654870000      0.2144040000      0.0585530000
C                 -2.5896290000      0.7270620000      0.1770930000
S                  5.1446670000      1.7025600000      0.4365800000
O                  5.9107500000      1.6012920000     -0.8534700000
O                  4.7204590000      3.1038320000      0.7420660000
O                  5.9052750000      1.0730230000      1.5703980000
H                 -4.4122660000     -2.0723680000     -0.4781790000
H                 -2.1239100000     -3.0082840000     -0.7326080000
H                  2.7470640000     -2.4948250000     -0.5721010000
H                  4.7687450000     -1.1043860000     -0.1768320000
H                  2.2383600000      2.2954890000      0.5914960000
H                 -2.7009900000      1.7742870000      0.4309100000
$end
$rem
MAX_SCF_CYCLES=200
BASIS  =  6-311++G(d,p)
GUI  =  2
JOB_TYPE  =  SP
METHOD  =  B3LYP
SOLVENT_METHOD = COSMO
$end
$solvent
dielectric 37.219
opticaldielectric 1.43
$end

--------------------------------------------------------------

             Standard Nuclear Orientation (Angstroms)
    I     Atom           X                Y                Z
 ----------------------------------------------------------------
    1      O      -6.0184786756    -0.3441087724     1.2396904611
    2      S      -5.3063038725    -0.8482481076     0.0149146903
    3      O      -5.0415136331    -2.3191584885     0.0712119507
    4      O      -6.0298542440    -0.4428539672    -1.2390957209
    5      C      -3.6899505926    -0.0045654248    -0.0229372182
    6      C      -3.6788847918     1.4200489151    -0.0530525190
    7      C      -2.4775619901     2.0925049406    -0.0396885199
    8      C      -1.2217996203     1.4221304954    -0.0052038862
    9      C       0.0000351918     2.1979939614     0.0420883058
   10      O       0.0000514821     3.4880702611     0.0940660356
   11      C       1.2218485047     1.4221199690    -0.0058330740
   12      C       2.4775791927     2.0925187709    -0.0413105076
   13      C       3.6789109698     1.4200798630    -0.0549449562
   14      C       3.6899440237    -0.0045070011    -0.0241291964
   15      C       2.4920068582    -0.6928464145    -0.0170570136
   16      C       1.2334415194    -0.0248340141    -0.0230464595
   17      C      -0.0000178022    -0.8089249993    -0.0292724747
   18      O      -0.0000405867    -2.0851198297    -0.0258713736
   19      C      -1.2334575574    -0.0248436275    -0.0226686041
   20      C      -2.4919971833    -0.6928730463    -0.0166106907
   21      S       5.3062784928    -0.8482491700     0.0153143406
   22      O       6.0154221727    -0.3479788190     1.2434072485
   23      O       5.0414832632    -2.3193407251     0.0664070449
   24      O       6.0329005265    -0.4389459041    -1.2356356495
   25      H      -4.6184281868     1.9644277955    -0.0889900827
   26      H      -2.4502860988     3.1792431555    -0.0638985470
   27      H       2.4503042189     3.1792512258    -0.0661095651
   28      H       4.6183869187     1.9645491046    -0.0919634659
   29      H       2.4847271983    -1.7760045975    -0.0020725391
   30      H      -2.4846407505    -1.7760346112    -0.0020693827
 ----------------------------------------------------------------

   51   -1935.3250458227      7.45e-06  Convergence criterion met
 Total energy in the final basis set =    -1935.3250458227
    5   -1936.1513525081      8.05e-06  Convergence criterion met
 Total energy in the final basis set =    -1936.1513525081

                    Orbital Energies (a.u.)
 --------------------------------------------------------------

 Alpha MOs
 -- Occupied --
-89.0389 -89.0388 -19.0856 -19.0856 -19.0834 -19.0834 -19.0833 -19.0832
-19.0323 -19.0256 -10.1892 -10.1800 -10.1784 -10.1783 -10.1613 -10.1613
-10.1582 -10.1582 -10.1527 -10.1527 -10.1475 -10.1475 -10.1440 -10.1440
 -8.0976  -8.0975  -6.0605  -6.0605  -6.0603  -6.0603  -6.0589  -6.0589
 -1.0962  -1.0962  -0.9628  -0.9628  -0.9579  -0.9578  -0.9541  -0.9415
 -0.8379  -0.8326  -0.7657  -0.7348  -0.7331  -0.7222  -0.6558  -0.6324
 -0.6255  -0.5795  -0.5788  -0.5565  -0.5326  -0.5070  -0.5058  -0.4744
 -0.4639  -0.4541  -0.4467  -0.4466  -0.4450  -0.4351  -0.4325  -0.4096
 -0.4080  -0.4006  -0.3901  -0.3878  -0.3794  -0.3663  -0.3543  -0.3500
 -0.3342  -0.3301  -0.3298  -0.3279  -0.3278  -0.3233  -0.3220  -0.3121
 -0.2912  -0.2878  -0.2877  -0.2846  -0.2823  -0.2819  -0.2501  -0.2500
 -0.2420  -0.2345  -0.2308  -0.2215  -0.2120  -0.2039  -0.1140

          Ground-State Mulliken Net Atomic Charges

     Atom                 Charge (a.u.)
  ----------------------------------------
      1 O                    -0.423365
      2 S                     0.874907
      3 O                    -0.460422
      4 O                    -0.422235
      5 C                    -0.981522
      6 C                    -0.600715
      7 C                    -0.258715
      8 C                     0.500884
      9 C                    -0.396005
     10 O                    -0.691646
     11 C                     0.504564
     12 C                    -0.258917
     13 C                    -0.605470
     14 C                    -0.984400
     15 C                     0.088318
     16 C                     0.408074
     17 C                    -0.887898
     18 O                    -0.641268
     19 C                     0.407416
     20 C                     0.089146
     21 S                     0.874137
     22 O                    -0.423154
     23 O                    -0.460713
     24 O                    -0.422654
     25 H                     0.221649
     26 H                     0.161578
     27 H                     0.161943
     28 H                     0.221714
     29 H                     0.202324
     30 H                     0.202419
  ----------------------------------------
  Sum of atomic charges =    -4.000026

                    Cartesian Multipole Moments
 -----------------------------------------------------------------
    Charge (ESU x 10^10)
               -19.2129
    Dipole Moment (Debye)
         X       0.0026      Y       6.2464      Z      -0.5641
       Tot       6.2718
    Quadrupole Moments (Debye-Ang)
        XX    -565.5421     XY       0.0094     YY    -246.7819
        XZ      -0.0377     YZ      -1.6165     ZZ    -184.9302

 Total job time:  318.63s(wall), 2453.29s(cpu)
        *  Thank you very much for using Q-Chem.  Have a nice day.  *
