 Q-Chem 5.4, Q-Chem, Inc., Pleasanton, CA (2021)
 Q-Chem 5.4.0 for Intel X86 EM64T Linux

User input:
--------------------------------------------------------------
$molecule
-1 2
O                  3.8859540000     -2.4581060000     -0.0750130000
C                  3.0215220000     -1.5497150000     -0.0033630000
C                  3.3894900000     -0.1581880000      0.2297870000
C                  4.7497580000      0.1880290000      0.3874970000
C                  5.1307510000      1.4963710000      0.6046700000
C                  4.1493980000      2.5104570000      0.6696810000
C                  2.8152930000      2.1913450000      0.5162980000
C                  2.4006630000      0.8578610000      0.2956540000
C                  0.9670200000      0.5823320000      0.1407140000
O                  0.1471840000      1.5376110000      0.1810320000
C                  0.5725030000     -0.8176280000     -0.0656400000
C                 -0.7988210000     -1.2417980000     -0.1993340000
C                 -1.0865270000     -2.5792540000     -0.4269380000
C                 -0.0795850000     -3.5561600000     -0.5228450000
C                  1.2356160000     -3.1793940000     -0.3787130000
C                  1.5877730000     -1.8334330000     -0.1488280000
N                 -1.9548490000     -0.3910920000     -0.1118200000
C                 -2.2686630000      0.1834010000      1.1978160000
C                 -3.7819260000      0.4676030000      1.2894950000
C                 -4.3459690000      0.9792430000     -0.0597810000
C                 -3.2257980000      1.5665670000     -0.9252770000
C                 -2.1794060000      0.4953610000     -1.2648570000
H                  5.4770330000     -0.6136230000      0.3302410000
H                  6.1804740000      1.7476980000      0.7247380000
H                  4.4459690000      3.5413340000      0.8401900000
H                  2.0434680000      2.9504340000      0.5603210000
H                 -2.1326040000     -2.8498070000     -0.5215500000
H                 -0.3435140000     -4.5944140000     -0.7008820000
H                  2.0467110000     -3.8954680000     -0.4344800000
H                 -1.6886530000      1.0937620000      1.3927020000
H                 -1.9820290000     -0.5487140000      1.9569900000
H                 -3.9494680000      1.2120500000      2.0776810000
H                 -4.3174130000     -0.4398250000      1.5886630000
H                 -5.1348790000      1.7207540000      0.1102720000
H                 -4.8097510000      0.1485180000     -0.6037930000
H                 -3.6267980000      1.9845620000     -1.8552780000
H                 -2.7385400000      2.3892800000     -0.3921100000
H                 -1.2547230000      0.9866950000     -1.5863190000
H                 -2.5466630000     -0.1246470000     -2.0964190000
$end

$rem
BASIS  =  6-311++G(d,p)
GUI  =  2
JOB_TYPE  =  SP
METHOD  =  B3LYP
SCF_CONVERGENCE  = 8
SOLVENT_METHOD = sm12
$end

$smx
solvent dimethylformamide
charges CM5
$end

--------------------------------------------------------------

             Standard Nuclear Orientation (Angstroms)
    I     Atom           X                Y                Z
 ----------------------------------------------------------------
    1      O       3.8859540000    -2.4581060000    -0.0750130000
    2      C       3.0215220000    -1.5497150000    -0.0033630000
    3      C       3.3894900000    -0.1581880000     0.2297870000
    4      C       4.7497580000     0.1880290000     0.3874970000
    5      C       5.1307510000     1.4963710000     0.6046700000
    6      C       4.1493980000     2.5104570000     0.6696810000
    7      C       2.8152930000     2.1913450000     0.5162980000
    8      C       2.4006630000     0.8578610000     0.2956540000
    9      C       0.9670200000     0.5823320000     0.1407140000
   10      O       0.1471840000     1.5376110000     0.1810320000
   11      C       0.5725030000    -0.8176280000    -0.0656400000
   12      C      -0.7988210000    -1.2417980000    -0.1993340000
   13      C      -1.0865270000    -2.5792540000    -0.4269380000
   14      C      -0.0795850000    -3.5561600000    -0.5228450000
   15      C       1.2356160000    -3.1793940000    -0.3787130000
   16      C       1.5877730000    -1.8334330000    -0.1488280000
   17      N      -1.9548490000    -0.3910920000    -0.1118200000
   18      C      -2.2686630000     0.1834010000     1.1978160000
   19      C      -3.7819260000     0.4676030000     1.2894950000
   20      C      -4.3459690000     0.9792430000    -0.0597810000
   21      C      -3.2257980000     1.5665670000    -0.9252770000
   22      C      -2.1794060000     0.4953610000    -1.2648570000
   23      H       5.4770330000    -0.6136230000     0.3302410000
   24      H       6.1804740000     1.7476980000     0.7247380000
   25      H       4.4459690000     3.5413340000     0.8401900000
   26      H       2.0434680000     2.9504340000     0.5603210000
   27      H      -2.1326040000    -2.8498070000    -0.5215500000
   28      H      -0.3435140000    -4.5944140000    -0.7008820000
   29      H       2.0467110000    -3.8954680000    -0.4344800000
   30      H      -1.6886530000     1.0937620000     1.3927020000
   31      H      -1.9820290000    -0.5487140000     1.9569900000
   32      H      -3.9494680000     1.2120500000     2.0776810000
   33      H      -4.3174130000    -0.4398250000     1.5886630000
   34      H      -5.1348790000     1.7207540000     0.1102720000
   35      H      -4.8097510000     0.1485180000    -0.6037930000
   36      H      -3.6267980000     1.9845620000    -1.8552780000
   37      H      -2.7385400000     2.3892800000    -0.3921100000
   38      H      -1.2547230000     0.9866950000    -1.5863190000
   39      H      -2.5466630000    -0.1246470000    -2.0964190000
 ----------------------------------------------------------------

   18    -939.7628465437      5.91e-09  Convergence criterion met
 Total energy in the final basis set =     -939.8505857401

                    Orbital Energies (a.u.)
 --------------------------------------------------------------

 Alpha MOs
 -- Occupied --
-19.0773 -19.0747 -14.2998 -10.2289 -10.2266 -10.2121 -10.1880 -10.1857
-10.1856 -10.1820 -10.1815 -10.1805 -10.1795 -10.1792 -10.1784 -10.1779
-10.1772 -10.1753 -10.1749 -10.1667 -10.1658 -10.1652  -1.0048  -1.0025
 -0.9266  -0.8651  -0.8536  -0.7975  -0.7893  -0.7571  -0.7500  -0.7456
 -0.7403  -0.6731  -0.6516  -0.6359  -0.6270  -0.6231  -0.5884  -0.5631
 -0.5420  -0.5348  -0.5246  -0.4942  -0.4868  -0.4769  -0.4702  -0.4625
 -0.4609  -0.4459  -0.4314  -0.4288  -0.4184  -0.4157  -0.4120  -0.4091
 -0.4055  -0.3964  -0.3856  -0.3824  -0.3788  -0.3665  -0.3622  -0.3590
 -0.3525  -0.3421  -0.3409  -0.3308  -0.3209  -0.3122  -0.2720  -0.2635
 -0.2577  -0.2565  -0.2458  -0.2375  -0.2074  -0.1456

 Beta MOs
 -- Occupied --
-19.0715 -19.0687 -14.2998 -10.2275 -10.2252 -10.2120 -10.1880 -10.1856
-10.1849 -10.1816 -10.1810 -10.1795 -10.1789 -10.1784 -10.1783 -10.1773
-10.1772 -10.1750 -10.1749 -10.1667 -10.1658 -10.1652  -0.9948  -0.9921
 -0.9262  -0.8627  -0.8523  -0.7964  -0.7860  -0.7552  -0.7499  -0.7437
 -0.7387  -0.6662  -0.6505  -0.6346  -0.6268  -0.6207  -0.5878  -0.5614
 -0.5397  -0.5337  -0.5242  -0.4934  -0.4860  -0.4742  -0.4695  -0.4618
 -0.4597  -0.4454  -0.4311  -0.4188  -0.4173  -0.4126  -0.4115  -0.4048
 -0.4028  -0.3942  -0.3813  -0.3810  -0.3678  -0.3636  -0.3616  -0.3512
 -0.3504  -0.3404  -0.3309  -0.3301  -0.3206  -0.3120  -0.2595  -0.2513
 -0.2496  -0.2480  -0.2405  -0.2323  -0.2070

          Ground-State Mulliken Net Atomic Charges

     Atom                 Charge (a.u.)    Spin (a.u.)
  --------------------------------------------------------
      1 O                    -0.304841       0.217562
      2 C                    -1.585569       0.071517
      3 C                    -0.881093       0.015373
      4 C                     0.074925       0.023753
      5 C                     0.856740       0.031223
      6 C                     0.969825       0.040200
      7 C                     0.133504       0.030192
      8 C                    -1.127014       0.020695
      9 C                    -1.086913       0.069419
     10 O                    -0.137403       0.235519
     11 C                    -0.557436       0.084466
     12 C                    -1.810111       0.029310
     13 C                     0.308877       0.023772
     14 C                     1.053562       0.051481
     15 C                    -0.069551       0.023640
     16 C                    -1.050977       0.044235
     17 N                     0.838454      -0.005601
     18 C                    -0.354820       0.001536
     19 C                     0.258951      -0.000864
     20 C                     0.243026      -0.000366
     21 C                     0.199291       0.001035
     22 C                    -0.167371       0.004716
     23 H                     0.159725      -0.001524
     24 H                     0.355434      -0.002619
     25 H                     0.357033      -0.003026
     26 H                     0.153737      -0.001592
     27 H                     0.180041      -0.002810
     28 H                     0.392783      -0.003692
     29 H                     0.158206      -0.001210
     30 H                     0.069364       0.001868
     31 H                     0.081827       0.000903
     32 H                     0.202684      -0.000032
     33 H                     0.178096      -0.000016
     34 H                     0.290766      -0.000007
     35 H                     0.093963      -0.000014
     36 H                     0.293552       0.000077
     37 H                     0.086489      -0.000254
     38 H                     0.004358      -0.000171
     39 H                     0.137885       0.001306
  --------------------------------------------------------
  Sum of atomic charges =    -1.000000

                    Cartesian Multipole Moments
 -----------------------------------------------------------------
    Charge (ESU x 10^10)
                -4.8032
    Dipole Moment (Debye)
         X      -8.5958      Y       3.2525      Z      -0.0927
       Tot       9.1910
    Quadrupole Moments (Debye-Ang)
        XX    -172.8030     XY      17.0719     YY    -151.3786
        XZ       0.4034     YZ      -0.6109     ZZ    -138.1706

 Total job time:  1926.68s(wall), 14902.01s(cpu)
        *  Thank you very much for using Q-Chem.  Have a nice day.  *
