 Gaussian 16, Revision A.03,
 Gaussian 16:  ES64L-G16RevA.03 25-Dec-2016

 --------------------------------------
 #P UB3LYP/6-311++G(d,p) nosym opt freq
 --------------------------------------

 -------
 Radical
 -------
 Symbolic Z-matrix:
 Charge = -1 Multiplicity = 2

 SCF Done:  E(UB3LYP) =  -939.767120193     A.U. after   21 cycles
 Optimization completed.
    -- Stationary point found.
 Normal termination of Gaussian 16 at Sun Jan  7 07:00:47 2024.

 ----------------------------------------------------------------------
 #P Geom=AllCheck Guess=TCheck SCRF=Check GenChk UB3LYP/6-311++G(d,p) F
 req
 ----------------------------------------------------------------------

 Structure from the checkpoint file:  "212-rad.chk"
 -------
 Radical
 -------
 Charge = -1 Multiplicity = 2

                          Input orientation:
 ---------------------------------------------------------------------
 Center     Atomic      Atomic             Coordinates (Angstroms)
 Number     Number       Type             X           Y           Z
 ---------------------------------------------------------------------
      1          8           0        3.885954   -2.458106   -0.075013
      2          6           0        3.021522   -1.549715   -0.003363
      3          6           0        3.389490   -0.158188    0.229787
      4          6           0        4.749758    0.188029    0.387497
      5          6           0        5.130751    1.496371    0.604670
      6          6           0        4.149398    2.510457    0.669681
      7          6           0        2.815293    2.191345    0.516298
      8          6           0        2.400663    0.857861    0.295654
      9          6           0        0.967020    0.582332    0.140714
     10          8           0        0.147184    1.537611    0.181032
     11          6           0        0.572503   -0.817628   -0.065640
     12          6           0       -0.798821   -1.241798   -0.199334
     13          6           0       -1.086527   -2.579254   -0.426938
     14          6           0       -0.079585   -3.556160   -0.522845
     15          6           0        1.235616   -3.179394   -0.378713
     16          6           0        1.587773   -1.833433   -0.148828
     17          7           0       -1.954849   -0.391092   -0.111820
     18          6           0       -2.268663    0.183401    1.197816
     19          6           0       -3.781926    0.467603    1.289495
     20          6           0       -4.345969    0.979243   -0.059781
     21          6           0       -3.225798    1.566567   -0.925277
     22          6           0       -2.179406    0.495361   -1.264857
     23          1           0        5.477033   -0.613623    0.330241
     24          1           0        6.180474    1.747698    0.724738
     25          1           0        4.445969    3.541334    0.840190
     26          1           0        2.043468    2.950434    0.560321
     27          1           0       -2.132604   -2.849807   -0.521550
     28          1           0       -0.343514   -4.594414   -0.700882
     29          1           0        2.046711   -3.895468   -0.434480
     30          1           0       -1.688653    1.093762    1.392702
     31          1           0       -1.982029   -0.548714    1.956990
     32          1           0       -3.949468    1.212050    2.077681
     33          1           0       -4.317413   -0.439825    1.588663
     34          1           0       -5.134879    1.720754    0.110272
     35          1           0       -4.809751    0.148518   -0.603793
     36          1           0       -3.626798    1.984562   -1.855278
     37          1           0       -2.738540    2.389280   -0.392110
     38          1           0       -1.254723    0.986695   -1.586319
     39          1           0       -2.546663   -0.124647   -2.096419
 ---------------------------------------------------------------------

 SCF Done:  E(UB3LYP) =  -939.767120193     A.U. after    2 cycles

 Alpha  occ. eigenvalues --  -18.94866 -18.94728 -14.18378 -10.10143 -10.09870
 Alpha  occ. eigenvalues --  -10.08872 -10.07617 -10.07407 -10.07086 -10.06581
 Alpha  occ. eigenvalues --  -10.06459 -10.06095 -10.06047 -10.05953 -10.05744
 Alpha  occ. eigenvalues --  -10.05404 -10.05349 -10.05316 -10.05308 -10.05227
 Alpha  occ. eigenvalues --  -10.05100 -10.05041  -0.87708  -0.87420  -0.81098
 Alpha  occ. eigenvalues --   -0.74105  -0.73106  -0.69006  -0.66563  -0.64315
 Alpha  occ. eigenvalues --   -0.63269  -0.62243  -0.62053  -0.55003  -0.53605
 Alpha  occ. eigenvalues --   -0.52220  -0.51548  -0.50030  -0.46841  -0.44402
 Alpha  occ. eigenvalues --   -0.42151  -0.41658  -0.40955  -0.38308  -0.37503
 Alpha  occ. eigenvalues --   -0.35326  -0.35107  -0.34386  -0.34009  -0.33231
 Alpha  occ. eigenvalues --   -0.30854  -0.30674  -0.30413  -0.30232  -0.29276
 Alpha  occ. eigenvalues --   -0.29126  -0.28317  -0.27909  -0.27384  -0.26268
 Alpha  occ. eigenvalues --   -0.26101  -0.24720  -0.24337  -0.24111  -0.23021
 Alpha  occ. eigenvalues --   -0.22832  -0.22000  -0.21911  -0.21607  -0.20696
 Alpha  occ. eigenvalues --   -0.14591  -0.13861  -0.13308  -0.13111  -0.11784
 Alpha  occ. eigenvalues --   -0.11150  -0.08971  -0.01843
 Alpha virt. eigenvalues --    0.06461   0.06951   0.08127   0.08409   0.08792
 Alpha virt. eigenvalues --    0.09394   0.09494   0.09959   0.10294   0.11183
 Alpha virt. eigenvalues --    0.11549   0.11670   0.11903   0.12440   0.12936

  Beta  occ. eigenvalues --  -18.94285 -18.94125 -14.18379 -10.09988 -10.09745
  Beta  occ. eigenvalues --  -10.08861 -10.07613 -10.07404 -10.07086 -10.06581
  Beta  occ. eigenvalues --  -10.06459 -10.06048 -10.05999 -10.05870 -10.05673
  Beta  occ. eigenvalues --  -10.05416 -10.05312 -10.05278 -10.05242 -10.05147
  Beta  occ. eigenvalues --  -10.05063 -10.05012  -0.86702  -0.86392  -0.81054
  Beta  occ. eigenvalues --   -0.73865  -0.72994  -0.68960  -0.66167  -0.64312
  Beta  occ. eigenvalues --   -0.63086  -0.62073  -0.61874  -0.54490  -0.53350
  Beta  occ. eigenvalues --   -0.52200  -0.51409  -0.49777  -0.46789  -0.44256
  Beta  occ. eigenvalues --   -0.41970  -0.41527  -0.40871  -0.38285  -0.37398
  Beta  occ. eigenvalues --   -0.35063  -0.35029  -0.34290  -0.33888  -0.33181
  Beta  occ. eigenvalues --   -0.30765  -0.30592  -0.30355  -0.29934  -0.28971
  Beta  occ. eigenvalues --   -0.28513  -0.27853  -0.27641  -0.27202  -0.26029
  Beta  occ. eigenvalues --   -0.25671  -0.24242  -0.24091  -0.22977  -0.22750
  Beta  occ. eigenvalues --   -0.22637  -0.21837  -0.21718  -0.20776  -0.20498
  Beta  occ. eigenvalues --   -0.13502  -0.12554  -0.12473  -0.12166  -0.11249
  Beta  occ. eigenvalues --   -0.10654  -0.08896
  Beta virt. eigenvalues --    0.04094   0.06950   0.07298   0.08119   0.08405
  Beta virt. eigenvalues --    0.08813   0.09490   0.09953   0.10288   0.10440
  Beta virt. eigenvalues --    0.11359   0.11557   0.11694   0.11901   0.12451

 Mulliken charges and spin densities:
               1          2
     1  O   -0.361846   0.217431
     2  C   -0.483620   0.063512
     3  C    0.509054   0.026896
     4  C   -0.112831   0.011592
     5  C   -0.350467   0.038331
     6  C   -0.373408   0.038267
     7  C    0.048417   0.026919
     8  C    0.077084   0.021636
     9  C   -0.245360   0.078689
    10  O   -0.298566   0.233788
    11  C   -0.030812   0.084491
    12  C   -0.962012   0.028996
    13  C    0.049924   0.020461
    14  C   -0.243303   0.058367
    15  C   -0.225864   0.010051
    16  C    0.415119   0.054581
    17  N    0.572472  -0.005291
    18  C   -0.144013  -0.000423
    19  C   -0.389129  -0.000337
    20  C   -0.334732  -0.000494
    21  C   -0.358678   0.001532
    22  C   -0.127920   0.003121
    23  H    0.152972  -0.000987
    24  H    0.125740  -0.003292
    25  H    0.127667  -0.003135
    26  H    0.139191  -0.001464
    27  H    0.105178  -0.002657
    28  H    0.142393  -0.004415
    29  H    0.160804  -0.000587
    30  H    0.184645   0.002460
    31  H    0.142950   0.000929
    32  H    0.118907  -0.000089
    33  H    0.123824   0.000011
    34  H    0.134211  -0.000019
    35  H    0.125409  -0.000001
    36  H    0.141663   0.000040
    37  H    0.153694  -0.000323
    38  H    0.159360  -0.000038
    39  H    0.131882   0.001454
 Sum of Mulliken charges =  -1.00000   1.00000

 Dipole moment (field-independent basis, Debye):
    X=             -7.7408    Y=              2.6316    Z=             -0.1782  Tot=              8.1778
 Quadrupole moment (field-independent basis, Debye-Ang):
   XX=           -180.3761   YY=           -154.7958   ZZ=           -138.2945
   XY=             13.9126   XZ=             -0.3300   YZ=             -1.3245

  Exact polarizability: 366.808  27.662 308.066  16.922  24.590 158.368
 Approx polarizability: 537.048  21.713 531.253  24.670  44.791 248.509

                      1                      2                      3
                      A                      A                      A
 Frequencies --     22.0405                34.0407                47.5909
 Red. masses --      4.3729                 3.2973                 5.9069
 Frc consts  --      0.0013                 0.0023                 0.0079
 IR Inten    --      0.4563                 0.6250                 3.0029

                      4                      5                      6
                      A                      A                      A
 Frequencies --     88.2023               122.2479               134.6982
 Red. masses --      3.7087                 4.1522                 2.3361
 Frc consts  --      0.0170                 0.0366                 0.0250
 IR Inten    --      1.9083                 0.0084                 1.2917

                      7                      8                      9
                      A                      A                      A
 Frequencies --    160.5983               180.6444               185.7137
 Red. masses --      5.7849                 5.0051                 3.1147
 Frc consts  --      0.0879                 0.0962                 0.0633
 IR Inten    --      0.9097                 1.7992                 0.6257

                     10                     11                     12
                      A                      A                      A
 Frequencies --    222.8186               225.4568               284.1138
 Red. masses --      5.0099                 4.9984                 1.8936
 Frc consts  --      0.1465                 0.1497                 0.0901
 IR Inten    --      2.0952                 2.6363                 3.6853

                     13                     14                     15
                      A                      A                      A
 Frequencies --    298.7665               313.6203               333.1681
 Red. masses --      3.2058                 5.3591                 4.0996
 Frc consts  --      0.1686                 0.3106                 0.2681
 IR Inten    --      5.1206                 2.3116                 1.2052

                     16                     17                     18
                      A                      A                      A
 Frequencies --    361.6762               393.5022               419.5372
 Red. masses --      5.9701                11.6170                 6.1429
 Frc consts  --      0.4601                 1.0598                 0.6370
 IR Inten    --      1.0462                 7.3564                 0.1518

                     19                     20                     21
                      A                      A                      A
 Frequencies --    428.6461               443.6888               460.9284
 Red. masses --      7.3172                 3.4071                 3.3809
 Frc consts  --      0.7921                 0.3952                 0.4232
 IR Inten    --      1.1021                 0.4502                 3.1998

                     22                     23                     24
                      A                      A                      A
 Frequencies --    491.0419               500.0758               505.2372
 Red. masses --      4.9879                 7.0107                 4.0465
 Frc consts  --      0.7086                 1.0330                 0.6086
 IR Inten    --      2.4523                 0.9675                 0.5023

                     25                     26                     27
                      A                      A                      A
 Frequencies --    519.8892               584.8583               612.8546
 Red. masses --      3.6135                 4.5395                 5.4907
 Frc consts  --      0.5754                 0.9149                 1.2151
 IR Inten    --      2.9630                 7.5720                17.0987

                     28                     29                     30
                      A                      A                      A
 Frequencies --    634.7058               660.6024               668.7402
 Red. masses --      3.4379                 4.3198                 3.9872
 Frc consts  --      0.8160                 1.1107                 1.0506
 IR Inten    --      0.8754                14.2527                 2.9997

                     31                     32                     33
                      A                      A                      A
 Frequencies --    694.9951               706.8012               747.2402
 Red. masses --      6.6464                 2.4514                 2.1811
 Frc consts  --      1.8915                 0.7215                 0.7175
 IR Inten    --      0.3971                58.6521                 0.4852

                     34                     35                     36
                      A                      A                      A
 Frequencies --    760.5600               778.5352               789.0658
 Red. masses --      2.5965                 2.0825                 1.8822
 Frc consts  --      0.8849                 0.7437                 0.6905
 IR Inten    --      6.8905                 0.1916                19.5751

                     37                     38                     39
                      A                      A                      A
 Frequencies --    789.7639               817.4917               826.4143
 Red. masses --      1.8312                 4.5792                 3.1123
 Frc consts  --      0.6729                 1.8030                 1.2524
 IR Inten    --     20.6172                 1.1975                 6.4991

                     40                     41                     42
                      A                      A                      A
 Frequencies --    847.0594               871.2858               879.0329
 Red. masses --      3.2762                 1.5179                 1.5483
 Frc consts  --      1.3850                 0.6789                 0.7049
 IR Inten    --      1.7185                 0.0258                 1.8459

                     43                     44                     45
                      A                      A                      A
 Frequencies --    911.5719               914.0091               932.0672
 Red. masses --      1.9210                 3.6954                 1.7867
 Frc consts  --      0.9405                 1.8189                 0.9145
 IR Inten    --      1.6915                22.8357                 0.8878

                     46                     47                     48
                      A                      A                      A
 Frequencies --    936.4282               968.8365               982.1997
 Red. masses --      5.8777                 1.9216                 1.3272
 Frc consts  --      3.0367                 1.0627                 0.7544
 IR Inten    --      1.2786                 2.4397                 1.1498

                     49                     50                     51
                      A                      A                      A
 Frequencies --    986.8879               990.5463              1003.6953
 Red. masses --      1.2884                 1.3147                 2.1214
 Frc consts  --      0.7393                 0.7600                 1.2592
 IR Inten    --      0.3924                 1.9175                15.8024

                     52                     53                     54
                      A                      A                      A
 Frequencies --   1036.6270              1041.6776              1074.2681
 Red. masses --      2.0751                 2.1396                 2.2346
 Frc consts  --      1.3138                 1.3679                 1.5194
 IR Inten    --     23.2983                 4.4699                18.0703

                     55                     56                     57
                      A                      A                      A
 Frequencies --   1083.9872              1088.4602              1110.9441
 Red. masses --      2.0778                 1.8961                 2.1003
 Frc consts  --      1.4385                 1.3236                 1.5273
 IR Inten    --     27.1720                 6.9297                14.7320

                     58                     59                     60
                      A                      A                      A
 Frequencies --   1128.0950              1141.5612              1156.0798
 Red. masses --      2.5105                 1.4659                 2.1099
 Frc consts  --      1.8823                 1.1255                 1.6615
 IR Inten    --     16.7264                17.5926                11.3516

                     61                     62                     63
                      A                      A                      A
 Frequencies --   1170.9053              1180.1386              1189.8362
 Red. masses --      1.4024                 2.2180                 1.2097
 Frc consts  --      1.1328                 1.8201                 1.0090
 IR Inten    --      3.1349                 1.0149                 2.0701

                     64                     65                     66
                      A                      A                      A
 Frequencies --   1201.4423              1223.6380              1234.7602
 Red. masses --      2.2146                 2.5736                 1.8818
 Frc consts  --      1.8835                 2.2703                 1.6904
 IR Inten    --     11.0981                19.0328                11.4907

                     67                     68                     69
                      A                      A                      A
 Frequencies --   1245.7683              1247.5299              1282.8864
 Red. masses --      1.9346                 1.6368                 1.3895
 Frc consts  --      1.7689                 1.5009                 1.3474
 IR Inten    --     78.7144                10.7987                 5.5154

                     70                     71                     72
                      A                      A                      A
 Frequencies --   1294.1212              1308.6253              1323.0332
 Red. masses --      1.1746                 3.1690                 2.0872
 Frc consts  --      1.1590                 3.1975                 2.1526
 IR Inten    --      2.0337                23.8815                24.6767

                     73                     74                     75
                      A                      A                      A
 Frequencies --   1347.3113              1349.7878              1351.4127
 Red. masses --      1.3374                 1.7963                 2.1085
 Frc consts  --      1.4304                 1.9283                 2.2688
 IR Inten    --      0.5450                 6.0875                 6.2527

                     76                     77                     78
                      A                      A                      A
 Frequencies --   1367.6203              1373.3608              1380.3150
 Red. masses --     10.7955                 1.4557                 1.3559
 Frc consts  --     11.8967                 1.6177                 1.5221
 IR Inten    --      9.6305                11.6604                12.2758

                     79                     80                     81
                      A                      A                      A
 Frequencies --   1394.9158              1410.1994              1433.9251
 Red. masses --      3.3129                 1.4873                 2.3716
 Frc consts  --      3.7980                 1.7426                 2.8731
 IR Inten    --    208.2243                 2.3055               161.8445

                     82                     83                     84
                      A                      A                      A
 Frequencies --   1479.7176              1480.8734              1482.4654
 Red. masses --      2.7205                 1.0939                 2.8363
 Frc consts  --      3.5096                 1.4134                 3.6726
 IR Inten    --     39.3154                 1.0636                 2.6455

                     85                     86                     87
                      A                      A                      A
 Frequencies --   1492.4230              1497.0481              1505.2398
 Red. masses --      1.0955                 1.1305                 1.1462
 Frc consts  --      1.4376                 1.4927                 1.5301
 IR Inten    --      2.4522                 5.9210                37.3039

                     88                     89                     90
                      A                      A                      A
 Frequencies --   1527.2837              1530.4581              1537.6481
 Red. masses --      1.8815                 1.8685                 4.1498
 Frc consts  --      2.5858                 2.5787                 5.7808
 IR Inten    --    257.2487               349.5021                46.2209

                     91                     92                     93
                      A                      A                      A
 Frequencies --   1560.4503              1605.5524              1618.9674
 Red. masses --      5.6615                 6.2445                 7.2234
 Frc consts  --      8.1223                 9.4842                11.1550
 IR Inten    --     90.5646                 2.1291                 3.7561

                     94                     95                     96
                      A                      A                      A
 Frequencies --   1627.9579              2954.0407              2993.8027
 Red. masses --      6.3513                 1.0720                 1.0651
 Frc consts  --      9.9174                 5.5118                 5.6246
 IR Inten    --     10.5629                92.0692                 4.4237

                     97                     98                     99
                      A                      A                      A
 Frequencies --   2998.7558              3009.2717              3015.9252
 Red. masses --      1.0662                 1.0625                 1.0745
 Frc consts  --      5.6491                 5.6692                 5.7584
 IR Inten    --     45.6973               113.6851                16.1548

                    100                    101                    102
                      A                      A                      A
 Frequencies --   3025.3483              3028.0294              3043.6078
 Red. masses --      1.0920                 1.0807                 1.1019
 Frc consts  --      5.8886                 5.8379                 6.0141
 IR Inten    --     54.3325                75.3361                61.1922

                    103                    104                    105
                      A                      A                      A
 Frequencies --   3057.2842              3066.3237              3134.0319
 Red. masses --      1.0984                 1.0999                 1.0848
 Frc consts  --      6.0491                 6.0929                 6.2776
 IR Inten    --     65.5557                47.5166                18.8954

                    106                    107                    108
                      A                      A                      A
 Frequencies --   3141.1909              3153.2540              3169.6430
 Red. masses --      1.0863                 1.0914                 1.0919
 Frc consts  --      6.3151                 6.3935                 6.4635
 IR Inten    --     30.5477                54.7010                29.9774

                    109                    110                    111
                      A                      A                      A
 Frequencies --   3183.8462              3188.3557              3188.7692
 Red. masses --      1.0918                 1.0921                 1.0922
 Frc consts  --      6.5208                 6.5410                 6.5436
 IR Inten    --     17.1150                39.1148                 1.5858

 - Thermochemistry -
 -------------------
 Temperature   298.150 Kelvin.  Pressure   1.00000 Atm.
 Atom     1 has atomic number  8 and mass  15.99491

 Molecular mass:   291.12593 amu.
 Principal axes and moments of inertia in atomic units:
                           1         2         3
     Eigenvalues --  3548.510628758.72205**********
           X            0.99883   0.00578  -0.04792
           Y           -0.01247   0.99002  -0.14037
           Z            0.04663   0.14080   0.98894
 This molecule is an asymmetric top.
 Rotational symmetry number  1.
 Warning -- assumption of classical behavior for rotation
           may cause significant error
 Rotational temperatures (Kelvin)      0.02441     0.00989     0.00746
 Rotational constants (GHZ):           0.50859     0.20605     0.15535
 Zero-point vibrational energy     825094.3 (Joules/Mol)
                                  197.20227 (Kcal/Mol)
 Warning -- explicit consideration of  27 degrees of freedom as
           vibrations may cause significant error
 Vibrational temperatures:     31.71    48.98    68.47   126.90   175.89
          (Kelvin)            193.80   231.07   259.91   267.20   320.59
                              324.38   408.78   429.86   451.23   479.35
                              520.37   566.16   603.62   616.73   638.37
                              663.17   706.50   719.50   726.92   748.00
                              841.48   881.76   913.20   950.46   962.17
                              999.94  1016.93  1075.11  1094.28  1120.14
                             1135.29  1136.29  1176.19  1189.03  1218.73
                             1253.59  1264.73  1311.55  1315.06  1341.04
                             1347.31  1393.94  1413.17  1419.91  1425.18
                             1444.09  1491.48  1498.74  1545.63  1559.62
                             1566.05  1598.40  1623.08  1642.45  1663.34
                             1684.67  1697.96  1711.91  1728.61  1760.54
                             1776.54  1792.38  1794.92  1845.79  1861.95
                             1882.82  1903.55  1938.48  1942.04  1944.38
                             1967.70  1975.96  1985.97  2006.97  2028.96
                             2063.10  2128.98  2130.65  2132.94  2147.26
                             2153.92  2165.70  2197.42  2201.99  2212.33
                             2245.14  2310.03  2329.33  2342.27  4250.21
                             4307.41  4314.54  4329.67  4339.24  4352.80
                             4356.66  4379.07  4398.75  4411.76  4509.17
                             4519.47  4536.83  4560.41  4580.84  4587.33
                             4587.93

 Zero-point correction=                           0.314262 (Hartree/Particle)
 Thermal correction to Energy=                    0.331591
 Thermal correction to Enthalpy=                  0.332535
 Thermal correction to Gibbs Free Energy=         0.267639
 Sum of electronic and zero-point Energies=           -939.452858
 Sum of electronic and thermal Energies=              -939.435529
 Sum of electronic and thermal Enthalpies=            -939.434585
 Sum of electronic and thermal Free Energies=         -939.499481

                     E (Thermal)             CV                S
                      KCal/Mol        Cal/Mol-Kelvin    Cal/Mol-Kelvin
 Total                  208.076             70.447            136.586
 Electronic               0.000              0.000              1.377
 Translational            0.889              2.981             42.903
 Rotational               0.889              2.981             34.245
 Vibrational            206.299             64.485             58.060
 Vibration     1          0.593              1.985              6.441
 Vibration     2          0.594              1.983              5.579
 Vibration     3          0.595              1.978              4.915
 Vibration     4          0.601              1.957              3.700
 Vibration     5          0.610              1.931              3.065
 Vibration     6          0.613              1.919              2.878
 Vibration     7          0.622              1.891              2.543
 Vibration     8          0.630              1.866              2.322
 Vibration     9          0.632              1.859              2.270
 Vibration    10          0.648              1.806              1.936
 Vibration    11          0.650              1.802              1.915
 Vibration    12          0.683              1.703              1.509
 Vibration    13          0.692              1.676              1.424
 Vibration    14          0.701              1.648              1.343
 Vibration    15          0.715              1.609              1.245
 Vibration    16          0.736              1.551              1.115
 Vibration    17          0.761              1.484              0.987
 Vibration    18          0.782              1.428              0.894
 Vibration    19          0.790              1.408              0.863
 Vibration    20          0.803              1.375              0.815
 Vibration    21          0.819              1.337              0.763
 Vibration    22          0.847              1.270              0.681
 Vibration    23          0.855              1.250              0.658
 Vibration    24          0.860              1.238              0.645
 Vibration    25          0.875              1.206              0.610
 Vibration    26          0.942              1.064              0.476
 Vibration    27          0.972              1.005              0.428

 Optimization completed.
    -- Stationary point found.
 Normal termination of Gaussian 16 at Sun Jan  7 11:28:08 2024.
