 Q-Chem 5.4, Q-Chem, Inc., Pleasanton, CA (2021)
 Q-Chem 5.4.0 for Intel X86 EM64T Linux

User input:
--------------------------------------------------------------
$molecule
0 1
C                 -1.2221700000      2.8827750000     -0.1184570000
C                 -2.5313270000      2.4155920000     -0.1621690000
C                 -2.7879330000      1.0437260000     -0.1038100000
C                 -0.1610300000      1.9785600000     -0.0168520000
C                 -0.4195520000      0.5993970000      0.0416420000
C                 -1.7357580000      0.1383870000     -0.0021470000
C                  1.2329100000      2.5004800000      0.0300600000
C                  2.3392720000      1.4765420000      0.1326850000
C                  2.0723390000      0.1500430000      0.1901430000
C                  0.7066980000     -0.3797270000      0.1502480000
O                  1.4898670000      3.6858750000     -0.0086130000
O                  0.4988730000     -1.5844110000      0.2031560000
H                 -1.0008380000      3.9420900000     -0.1618360000
H                 -1.9114140000     -0.9293300000      0.0446780000
O                  3.5457010000      2.0456320000      0.1590830000
C                  4.7073140000      1.2012140000      0.2875180000
C                  5.9141750000      2.0825360000      0.3310430000
C                  6.9688480000      1.9264090000     -0.4627000000
H                 -3.3530300000      3.1181370000     -0.2414440000
H                 -3.8094760000      0.6823090000     -0.1378610000
H                  2.8506440000     -0.5978360000      0.2655290000
H                  4.7527960000      0.5055610000     -0.5567230000
H                  4.6110500000      0.6218610000      1.2145960000
H                  5.8959930000      2.8680260000      1.0813350000
H                  7.0010640000      1.1543620000     -1.2254050000
H                  7.8410920000      2.5634990000     -0.3757900000
$end
$rem
MAX_SCF_CYCLES=200
BASIS  =  6-311++G(d,p)
GUI  =  2
JOB_TYPE  =  SP
METHOD  =  B3LYP
SOLVENT_METHOD = PCM
$end
$pcm
theory = CPCM
$end
$solvent
dielectric 37.219
opticaldielectric 1.43
$end

--------------------------------------------------------------

             Standard Nuclear Orientation (Angstroms)
    I     Atom           X                Y                Z
 ----------------------------------------------------------------
    1      C      -1.2221700000     2.8827750000    -0.1184570000
    2      C      -2.5313270000     2.4155920000    -0.1621690000
    3      C      -2.7879330000     1.0437260000    -0.1038100000
    4      C      -0.1610300000     1.9785600000    -0.0168520000
    5      C      -0.4195520000     0.5993970000     0.0416420000
    6      C      -1.7357580000     0.1383870000    -0.0021470000
    7      C       1.2329100000     2.5004800000     0.0300600000
    8      C       2.3392720000     1.4765420000     0.1326850000
    9      C       2.0723390000     0.1500430000     0.1901430000
   10      C       0.7066980000    -0.3797270000     0.1502480000
   11      O       1.4898670000     3.6858750000    -0.0086130000
   12      O       0.4988730000    -1.5844110000     0.2031560000
   13      H      -1.0008380000     3.9420900000    -0.1618360000
   14      H      -1.9114140000    -0.9293300000     0.0446780000
   15      O       3.5457010000     2.0456320000     0.1590830000
   16      C       4.7073140000     1.2012140000     0.2875180000
   17      C       5.9141750000     2.0825360000     0.3310430000
   18      C       6.9688480000     1.9264090000    -0.4627000000
   19      H      -3.3530300000     3.1181370000    -0.2414440000
   20      H      -3.8094760000     0.6823090000    -0.1378610000
   21      H       2.8506440000    -0.5978360000     0.2655290000
   22      H       4.7527960000     0.5055610000    -0.5567230000
   23      H       4.6110500000     0.6218610000     1.2145960000
   24      H       5.8959930000     2.8680260000     1.0813350000
   25      H       7.0010640000     1.1543620000    -1.2254050000
   26      H       7.8410920000     2.5634990000    -0.3757900000
 ----------------------------------------------------------------

    9    -727.2527200723      4.12e-06  Convergence criterion met
 Total energy in the final basis set =     -727.2527200723

                    Orbital Energies (a.u.)
 --------------------------------------------------------------

 Alpha MOs
 -- Occupied --
-19.1884 -19.1436 -19.1289 -10.2930 -10.2815 -10.2759 -10.2415 -10.2094
-10.2078 -10.1984 -10.1974 -10.1963 -10.1961 -10.1961 -10.1864 -10.1763
 -1.1107  -1.0737  -1.0622  -0.8908  -0.8393  -0.8071  -0.7788  -0.7710
 -0.7288  -0.6849  -0.6517  -0.6300  -0.5952  -0.5786  -0.5552  -0.5482
 -0.5243  -0.5058  -0.4974  -0.4740  -0.4701  -0.4632  -0.4530  -0.4509
 -0.4456  -0.4356  -0.4274  -0.4206  -0.3907  -0.3843  -0.3809  -0.3691
 -0.3641  -0.3547  -0.2938  -0.2894  -0.2843  -0.2790  -0.2789  -0.2665

          Ground-State Mulliken Net Atomic Charges

     Atom                 Charge (a.u.)
  ----------------------------------------
      1 C                     0.283617
      2 C                    -0.422105
      3 C                    -0.344148
      4 C                     0.017793
      5 C                     0.488455
      6 C                     0.281379
      7 C                    -0.428476
      8 C                    -0.645611
      9 C                     0.380040
     10 C                    -0.155666
     11 O                    -0.291277
     12 O                    -0.318853
     13 H                     0.196047
     14 H                     0.190784
     15 O                    -0.073986
     16 C                    -0.361539
     17 C                    -0.000043
     18 C                    -0.469626
     19 H                     0.223906
     20 H                     0.225668
     21 H                     0.274091
     22 H                     0.187944
     23 H                     0.203803
     24 H                     0.218935
     25 H                     0.162829
     26 H                     0.176040
  ----------------------------------------
  Sum of atomic charges =     0.000000

                    Cartesian Multipole Moments
 -----------------------------------------------------------------
    Charge (ESU x 10^10)
                 0.0000
    Dipole Moment (Debye)
         X       0.2089      Y      -0.0640      Z       0.0174
       Tot       0.2192
    Quadrupole Moments (Debye-Ang)
        XX     -58.6084     XY      -9.4424     YY    -111.6556
        XZ       1.2060     YZ       1.8438     ZZ     -93.0983

 Total job time:  50.98s(wall), 282.21s(cpu)
        *  Thank you very much for using Q-Chem.  Have a nice day.  *
