 Gaussian 16, Revision A.03,
 Gaussian 16:  ES64L-G16RevA.03 25-Dec-2016

 ----------------------------------------------
 #P UB3LYP/6-311++G(d,p) nosym opt freq SCF=YQC
 ----------------------------------------------

 -------
 Reduced
 -------
 Symbolic Z-matrix:
 Charge = -3 Multiplicity = 1

 SCF Done:  E(UB3LYP) =  -1312.00850208     a.u. after    9 cycles
 SCF Done:  E(UB3LYP) =  -1312.03642091     A.U. after   33 cycles
 SCF Done:  E(UB3LYP) =  -1312.03642091     a.u. after    1 cycles
 SCF Done:  E(UB3LYP) =  -1312.08122337     a.u. after  158 cycles
 SCF Done:  E(UB3LYP) =  -1312.08142279     A.U. after   31 cycles
 SCF Done:  E(UB3LYP) =  -1312.10423605     a.u. after  228 cycles
 SCF Done:  E(UB3LYP) =  -1312.10451144     A.U. after   33 cycles
 SCF Done:  E(UB3LYP) =  -1312.10451144     a.u. after    1 cycles
 SCF Done:  E(UB3LYP) =  -1312.10964179     a.u. after  103 cycles
 SCF Done:  E(UB3LYP) =  -1312.10974657     A.U. after   31 cycles
 SCF Done:  E(UB3LYP) =  -1312.11033392     a.u. after    1 cycles
 SCF Done:  E(UB3LYP) =  -1312.11037689     A.U. after   23 cycles
 SCF Done:  E(UB3LYP) =  -1312.11033238     a.u. after    3 cycles
 SCF Done:  E(UB3LYP) =  -1312.11037726     A.U. after   25 cycles
 SCF Done:  E(UB3LYP) =  -1312.11035661     a.u. after    3 cycles
 SCF Done:  E(UB3LYP) =  -1312.11037750     A.U. after   25 cycles
 SCF Done:  E(UB3LYP) =  -1312.11035319     a.u. after    1 cycles
 SCF Done:  E(UB3LYP) =  -1312.11037765     A.U. after   26 cycles
 Optimization completed.
    -- Stationary point found.
 Normal termination of Gaussian 16 at Fri Dec 22 18:32:48 2023.

 ----------------------------------------------------------------------
 #P Geom=AllCheck Guess=TCheck SCRF=Check GenChk UB3LYP/6-311++G(d,p) F
 req
 ----------------------------------------------------------------------

 Structure from the checkpoint file:  "222-an.chk"
 -------
 Reduced
 -------
 Charge = -3 Multiplicity = 1

                          Input orientation:
 ---------------------------------------------------------------------
 Center     Atomic      Atomic             Coordinates (Angstroms)
 Number     Number       Type             X           Y           Z
 ---------------------------------------------------------------------
      1          8           0       -2.507209   -2.796155   -1.691378
      2         16           0       -3.020948   -2.343948   -0.372697
      3          8           0       -2.653665   -3.181910    0.798296
      4          8           0       -4.509826   -2.115834   -0.424263
      5          6           0       -2.331660   -0.614779   -0.066231
      6          6           0       -3.345524    0.324294    0.057433
      7          6           0       -3.070074    1.687030    0.283807
      8          6           0       -1.764529    2.109208    0.372255
      9          6           0       -0.689244    1.202351    0.237463
     10          6           0        0.653556    1.784891    0.326444
     11          8           0        0.830460    3.036749    0.497426
     12          6           0        1.760670    0.862489    0.201090
     13          6           0        3.096716    1.340483    0.241678
     14          6           0        4.178008    0.486767    0.149632
     15          6           0        3.955410   -0.904991    0.003635
     16          6           0        2.658942   -1.388953   -0.059892
     17          6           0        1.535876   -0.538546    0.020928
     18          6           0        0.187422   -1.138638   -0.068673
     19          8           0        0.058401   -2.370357   -0.209341
     20          6           0       -0.954359   -0.208840    0.029585
     21          1           0       -4.364845   -0.026701   -0.026887
     22          1           0       -3.893037    2.395536    0.394514
     23          1           0       -1.503563    3.148363    0.538031
     24          1           0        3.232854    2.410486    0.356898
     25          1           0        5.197190    0.873039    0.190403
     26          1           0        4.804238   -1.583259   -0.064754
     27          1           0        2.458741   -2.448776   -0.177543
 ---------------------------------------------------------------------

 SCF Done:  E(UB3LYP) =  -1312.11037765     a.u. after    1 cycles
 SCF Done:  E(UB3LYP) =  -1312.11037765     A.U. after    3 cycles

 Alpha  occ. eigenvalues --  -88.70517 -18.74842 -18.74635 -18.74584 -18.74582
 Alpha  occ. eigenvalues --  -18.74156  -9.90428  -9.90176  -9.88378  -9.87189
 Alpha  occ. eigenvalues --   -9.87151  -9.86997  -9.86893  -9.86682  -9.86551
 Alpha  occ. eigenvalues --   -9.86423  -9.86176  -9.85897  -9.85778  -9.85734
 Alpha  occ. eigenvalues --   -7.76315  -5.72583  -5.72558  -5.72532  -0.76075
 Alpha  occ. eigenvalues --   -0.67218  -0.66574  -0.62780  -0.62068  -0.54717
 Alpha  occ. eigenvalues --   -0.54047  -0.47057  -0.44320  -0.44091  -0.42724
 Alpha  occ. eigenvalues --   -0.35087  -0.33162  -0.30602  -0.29374  -0.25885
 Alpha  occ. eigenvalues --   -0.22909  -0.22186  -0.20542  -0.16257  -0.15449
 Alpha  occ. eigenvalues --   -0.15024  -0.14552  -0.13602  -0.11754  -0.10779
 Alpha  occ. eigenvalues --   -0.10635  -0.09642  -0.09545  -0.08690  -0.08325
 Alpha  occ. eigenvalues --   -0.06739  -0.05680  -0.05283  -0.04436  -0.03563
 Alpha  occ. eigenvalues --   -0.02439  -0.02153   0.00953   0.01664   0.03248
 Alpha  occ. eigenvalues --    0.04400   0.05440   0.05493   0.06020   0.06408
 Alpha  occ. eigenvalues --    0.07027   0.08055   0.09273   0.09671   0.19405
 Alpha virt. eigenvalues --    0.20761   0.20998   0.22698   0.25050   0.25663
 Alpha virt. eigenvalues --    0.26146   0.27353   0.27964   0.28662   0.29787
 Alpha virt. eigenvalues --    0.31347   0.32097   0.32317   0.32800   0.33521

  Beta  occ. eigenvalues --  -88.70517 -18.74842 -18.74635 -18.74584 -18.74582
  Beta  occ. eigenvalues --  -18.74156  -9.90428  -9.90176  -9.88378  -9.87189
  Beta  occ. eigenvalues --   -9.87151  -9.86997  -9.86893  -9.86682  -9.86551
  Beta  occ. eigenvalues --   -9.86423  -9.86176  -9.85897  -9.85778  -9.85734
  Beta  occ. eigenvalues --   -7.76315  -5.72583  -5.72558  -5.72532  -0.76075
  Beta  occ. eigenvalues --   -0.67218  -0.66574  -0.62780  -0.62068  -0.54717
  Beta  occ. eigenvalues --   -0.54047  -0.47057  -0.44320  -0.44091  -0.42724
  Beta  occ. eigenvalues --   -0.35087  -0.33162  -0.30602  -0.29374  -0.25885
  Beta  occ. eigenvalues --   -0.22909  -0.22186  -0.20542  -0.16257  -0.15449
  Beta  occ. eigenvalues --   -0.15024  -0.14552  -0.13602  -0.11754  -0.10779
  Beta  occ. eigenvalues --   -0.10635  -0.09642  -0.09545  -0.08690  -0.08325
  Beta  occ. eigenvalues --   -0.06739  -0.05680  -0.05283  -0.04436  -0.03563
  Beta  occ. eigenvalues --   -0.02439  -0.02153   0.00953   0.01664   0.03248
  Beta  occ. eigenvalues --    0.04400   0.05440   0.05493   0.06020   0.06408
  Beta  occ. eigenvalues --    0.07027   0.08055   0.09273   0.09671   0.19405
  Beta virt. eigenvalues --    0.20761   0.20998   0.22698   0.25050   0.25663
  Beta virt. eigenvalues --    0.26146   0.27353   0.27964   0.28662   0.29787
  Beta virt. eigenvalues --    0.31347   0.32097   0.32317   0.32800   0.33521

 Mulliken charges and spin densities:
               1          2
     1  O   -0.348405   0.000000
     2  S    0.513046   0.000000
     3  O   -0.341573   0.000000
     4  O   -0.401117   0.000000
     5  C   -0.926811   0.000000
     6  C    1.117094  -0.000000
     7  C    0.326819   0.000000
     8  C   -0.878777  -0.000000
     9  C    1.220937  -0.000000
    10  C   -1.168413  -0.000000
    11  O   -0.441591   0.000000
    12  C    0.894304   0.000000
    13  C   -1.721272   0.000000
    14  C    2.082720   0.000000
    15  C    1.565297   0.000000
    16  C   -0.591478  -0.000000
    17  C    0.685523  -0.000000
    18  C   -0.827838  -0.000000
    19  O   -0.266639   0.000000
    20  C    0.235960   0.000000
    21  H    0.289040  -0.000000
    22  H   -0.992887   0.000000
    23  H    0.176223   0.000000
    24  H    0.245958  -0.000000
    25  H   -2.517332  -0.000000
    26  H   -1.182167  -0.000000
    27  H    0.253378   0.000000
 Sum of Mulliken charges =  -3.00000   0.00000

 Dipole moment (field-independent basis, Debye):
    X=             -3.1357    Y=              7.1182    Z=              0.1989  Tot=              7.7808
 Quadrupole moment (field-independent basis, Debye-Ang):
   XX=           -383.8248   YY=           -238.2214   ZZ=           -159.5124
   XY=            -35.9885   XZ=             -6.9730   YZ=            -11.3295

  Exact polarizability:6097.432********2138.585-373.816 221.321 240.065
 Approx polarizability:****************2161.497-512.160 244.212 327.797

                      1                      2                      3
                      A                      A                      A
 Frequencies --     18.5688                52.0572                87.5497
 Red. masses --     11.1033                 7.5998                 9.2442
 Frc consts  --      0.0023                 0.0121                 0.0417
 IR Inten    --      4.2645                 1.5182                 7.2062

                      4                      5                      6
                      A                      A                      A
 Frequencies --    119.6127               126.0209               167.5373
 Red. masses --     10.2142                 4.5085                 6.8318
 Frc consts  --      0.0861                 0.0422                 0.1130
 IR Inten    --     38.8604                 4.7399                26.4421

                      7                      8                      9
                      A                      A                      A
 Frequencies --    177.5557               203.8418               250.9911
 Red. masses --      8.4415                10.5521                 5.2565
 Frc consts  --      0.1568                 0.2583                 0.1951
 IR Inten    --     31.0243                11.2475                19.0904

                     10                     11                     12
                      A                      A                      A
 Frequencies --    276.4524               289.1776               311.6242
 Red. masses --      9.6375                 8.6652                 6.6501
 Frc consts  --      0.4340                 0.4269                 0.3805
 IR Inten    --      0.2439                30.3071                13.2860

                     13                     14                     15
                      A                      A                      A
 Frequencies --    343.6596               375.4745               386.4932
 Red. masses --      6.2831                 9.9871                10.1124
 Frc consts  --      0.4372                 0.8296                 0.8900
 IR Inten    --      5.8245                14.0721               319.7540

                     16                     17                     18
                      A                      A                      A
 Frequencies --    405.1681               442.2521               445.0474
 Red. masses --      6.5988                 3.8677                 6.8490
 Frc consts  --      0.6382                 0.4457                 0.7993
 IR Inten    --     52.6715                43.4985                46.6723

                     19                     20                     21
                      A                      A                      A
 Frequencies --    480.0054               494.3075               502.6882
 Red. masses --     12.0448                 9.5021                 4.0841
 Frc consts  --      1.6351                 1.3679                 0.6081
 IR Inten    --    195.1644                20.9084                 1.0641

                     22                     23                     24
                      A                      A                      A
 Frequencies --    511.2311               568.5508               597.1558
 Red. masses --     13.5835                 6.6227                15.3746
 Frc consts  --      2.0917                 1.2613                 3.2302
 IR Inten    --      2.1054                55.9030               236.5561

                     25                     26                     27
                      A                      A                      A
 Frequencies --    613.3669               645.5673               652.2195
 Red. masses --      6.5337                 4.9437                 7.3752
 Frc consts  --      1.4483                 1.2139                 1.8485
 IR Inten    --    112.2452                50.6380                87.5346

                     28                     29                     30
                      A                      A                      A
 Frequencies --    688.9029               719.7783               732.6776
 Red. masses --      7.0964                 4.6839                 7.4648
 Frc consts  --      1.9843                 1.4297                 2.3610
 IR Inten    --    190.2054                 0.4600               101.5697

                     31                     32                     33
                      A                      A                      A
 Frequencies --    738.8898               800.9046               811.7014
 Red. masses --      6.4392                 4.0679                 6.8839
 Frc consts  --      2.0713                 1.5374                 2.6722
 IR Inten    --     23.4249                41.4578               399.0455

                     34                     35                     36
                      A                      A                      A
 Frequencies --    845.8165               856.8657               895.7786
 Red. masses --      1.4106                 1.4989                 1.4013
 Frc consts  --      0.5946                 0.6484                 0.6625
 IR Inten    --      3.8070                49.1728                70.4960

                     37                     38                     39
                      A                      A                      A
 Frequencies --    923.3669               928.4130               934.4457
 Red. masses --      6.8214                 1.3705                 8.9565
 Frc consts  --      3.4267                 0.6960                 4.6078
 IR Inten    --    221.8835                28.7226               104.8561

                     40                     41                     42
                      A                      A                      A
 Frequencies --    960.7927               994.9319              1021.9596
 Red. masses --     10.7569                 1.2455                 2.1612
 Frc consts  --      5.8506                 0.7264                 1.3299
 IR Inten    --    365.0347                30.9444                17.7958

                     43                     44                     45
                      A                      A                      A
 Frequencies --   1064.2638              1075.2813              1098.5180
 Red. masses --      2.8333                 1.3367                 2.9389
 Frc consts  --      1.8908                 0.9106                 2.0895
 IR Inten    --    596.8659               162.2948               172.8130

                     46                     47                     48
                      A                      A                      A
 Frequencies --   1101.3673              1112.0618              1131.5998
 Red. masses --      3.4451                 2.5988                 1.6289
 Frc consts  --      2.4621                 1.8936                 1.2289
 IR Inten    --     24.7204               249.5671                38.5735

                     49                     50                     51
                      A                      A                      A
 Frequencies --   1155.2988              1164.4455              1177.7285
 Red. masses --      2.1764                18.7857                 1.4801
 Frc consts  --      1.7115                15.0077                 1.2096
 IR Inten    --    252.5839               196.7651               379.9287

                     52                     53                     54
                      A                      A                      A
 Frequencies --   1182.0245              1191.0811              1225.0677
 Red. masses --      1.2891                 2.0627                 2.3591
 Frc consts  --      1.0612                 1.7241                 2.0860
 IR Inten    --   2034.4500               114.5394                20.8443

                     55                     56                     57
                      A                      A                      A
 Frequencies --   1238.7379              1297.0612              1336.9528
 Red. masses --      2.1524                 6.1415                 2.8961
 Frc consts  --      1.9460                 6.0876                 3.0500
 IR Inten    --    126.4185                46.0169               324.3884

                     58                     59                     60
                      A                      A                      A
 Frequencies --   1352.3384              1368.5108              1416.6002
 Red. masses --      8.9267                 3.3753                 2.6772
 Frc consts  --      9.6186                 3.7244                 3.1653
 IR Inten    --    502.8780               160.0091               798.5811

                     61                     62                     63
                      A                      A                      A
 Frequencies --   1462.7700              1468.0817              1471.4886
 Red. masses --      3.2189                 2.4565                 4.7400
 Frc consts  --      4.0580                 3.1194                 6.0471
 IR Inten    --    221.4732                38.7292               749.6496

                     64                     65                     66
                      A                      A                      A
 Frequencies --   1538.2397              1551.8859              1558.8151
 Red. masses --      5.3607                 6.2031                 6.0111
 Frc consts  --      7.4735                 8.8020                 8.6059
 IR Inten    --    376.6368                69.4889               852.5414

                     67                     68                     69
                      A                      A                      A
 Frequencies --   1592.5549              1610.8445              3081.6833
 Red. masses --      5.2193                 7.1758                 1.0876
 Frc consts  --      7.7992                10.9705                 6.0855
 IR Inten    --    295.2119               606.7235              5147.0166

                     70                     71                     72
                      A                      A                      A
 Frequencies --   3096.0651              3119.9272              3164.0834
 Red. masses --      1.0861                 1.0917                 1.0902
 Frc consts  --      6.1337                 6.2611                 6.4308
 IR Inten    --    859.4656               420.1669                11.9795

                     73                     74                     75
                      A                      A                      A
 Frequencies --   3166.5139              3170.4608              3196.2527
 Red. masses --      1.0906                 1.0906                 1.0894
 Frc consts  --      6.4428                 6.4590                 6.5570
 IR Inten    --      1.7092               303.9621               215.1113

 - Thermochemistry -
 -------------------
 Temperature   298.150 Kelvin.  Pressure   1.00000 Atm.
 Atom     1 has atomic number  8 and mass  15.99491

 Molecular mass:   287.00142 amu.
 Principal axes and moments of inertia in atomic units:
                           1         2         3
     Eigenvalues --  3004.325257693.36632**********
           X            0.91546  -0.40202  -0.01794
           Y            0.39537   0.90684  -0.14600
           Z            0.07497   0.12656   0.98912
 This molecule is an asymmetric top.
 Rotational symmetry number  1.
 Warning -- assumption of classical behavior for rotation
           may cause significant error
 Rotational temperatures (Kelvin)      0.02883     0.01126     0.00838
 Rotational constants (GHZ):           0.60071     0.23458     0.17469
 Zero-point vibrational energy     468565.3 (Joules/Mol)
                                  111.98980 (Kcal/Mol)
 Warning -- explicit consideration of  25 degrees of freedom as
           vibrations may cause significant error
 Vibrational temperatures:     26.72    74.90   125.96   172.10   181.32
          (Kelvin)            241.05   255.46   293.28   361.12   397.75
                              416.06   448.36   494.45   540.22   556.08
                              582.95   636.30   640.32   690.62   711.20
                              723.26   735.55   818.02   859.17   882.50
                              928.83   938.40   991.18  1035.60  1054.16
                             1063.10  1152.32  1167.86  1216.94  1232.84
                             1288.83  1328.52  1335.78  1344.46  1382.37
                             1431.49  1470.37  1531.24  1547.09  1580.52
                             1584.62  1600.01  1628.12  1662.22  1675.38
                             1694.49  1700.67  1713.70  1762.60  1782.27
                             1866.18  1923.58  1945.71  1968.98  2038.17
                             2104.60  2112.24  2117.14  2213.18  2232.82
                             2242.79  2291.33  2317.65  4433.85  4454.55
                             4488.88  4552.41  4555.91  4561.59  4598.69

 Zero-point correction=                           0.178467 (Hartree/Particle)
 Thermal correction to Energy=                    0.193624
 Thermal correction to Enthalpy=                  0.194568
 Thermal correction to Gibbs Free Energy=         0.135049
 Sum of electronic and zero-point Energies=          -1311.931911
 Sum of electronic and thermal Energies=             -1311.916754
 Sum of electronic and thermal Enthalpies=           -1311.915809
 Sum of electronic and thermal Free Energies=        -1311.975329

                     E (Thermal)             CV                S
                      KCal/Mol        Cal/Mol-Kelvin    Cal/Mol-Kelvin
 Total                  121.501             59.985            125.270
 Electronic               0.000              0.000              0.000
 Translational            0.889              2.981             42.861
 Rotational               0.889              2.981             33.834
 Vibrational            119.723             54.023             48.575
 Vibration     1          0.593              1.986              6.782
 Vibration     2          0.596              1.977              4.738
 Vibration     3          0.601              1.958              3.714
 Vibration     4          0.609              1.933              3.107
 Vibration     5          0.611              1.927              3.006
 Vibration     6          0.624              1.882              2.463
 Vibration     7          0.628              1.870              2.354
 Vibration     8          0.640              1.834              2.098
 Vibration     9          0.663              1.761              1.724
 Vibration    10          0.678              1.717              1.556
 Vibration    11          0.686              1.694              1.479
 Vibration    12          0.700              1.652              1.354
 Vibration    13          0.722              1.588              1.195
 Vibration    14          0.746              1.522              1.057
 Vibration    15          0.755              1.499              1.014
 Vibration    16          0.770              1.459              0.944
 Vibration    17          0.802              1.378              0.820
 Vibration    18          0.804              1.372              0.811
 Vibration    19          0.836              1.294              0.710
 Vibration    20          0.850              1.263              0.673
 Vibration    21          0.858              1.244              0.651
 Vibration    22          0.866              1.225              0.631
 Vibration    23          0.925              1.099              0.507
 Vibration    24          0.955              1.038              0.455
 Vibration    25          0.973              1.004              0.427

 Optimization completed.
    -- Stationary point found.
 Normal termination of Gaussian 16 at Fri Dec 22 20:05:12 2023.
