 Gaussian 16, Revision A.03,
 Gaussian 16:  ES64L-G16RevA.03 25-Dec-2016

 ----------------------------------------------------------------------
 #P UB3LYP/6-311++G(d,p) nosym opt freq SCRF=(PCM,Solvent=n,n-DiMethylF
 ormamide)
 ----------------------------------------------------------------------

 -------
 Reduced
 -------
 Symbolic Z-matrix:
 Charge = -2 Multiplicity = 1

 SCF Done:  E(UB3LYP) =  -5528.93353263     A.U. after   17 cycles
 SCF Done:  E(UB3LYP) =  -5528.93425256     A.U. after   12 cycles
 SCF Done:  E(UB3LYP) =  -5528.93444268     A.U. after   12 cycles
 SCF Done:  E(UB3LYP) =  -5528.93444568     A.U. after   11 cycles
 SCF Done:  E(UB3LYP) =  -5528.93444574     A.U. after    9 cycles
 Optimization completed.
    -- Stationary point found.
 Normal termination of Gaussian 16 at Sat Feb 10 10:11:27 2024.

 ----------------------------------------------------------------------
 #P Geom=AllCheck Guess=TCheck SCRF=Check GenChk UB3LYP/6-311++G(d,p) F
 req
 ----------------------------------------------------------------------

 Structure from the checkpoint file:  "012-an.chk"
 -------
 Reduced
 -------
 Charge = -2 Multiplicity = 1

                          Input orientation:
 ---------------------------------------------------------------------
 Center     Atomic      Atomic             Coordinates (Angstroms)
 Number     Number       Type             X           Y           Z
 ---------------------------------------------------------------------
      1         35           0       -2.712531   -1.832335   -0.098851
      2          6           0       -1.093860   -0.735157   -0.038225
      3          6           0       -1.267418    0.646051   -0.028558
      4          6           0       -0.157740    1.540435    0.012230
      5          8           0       -0.292534    2.839974    0.021645
      6          6           0        1.110734    0.889474    0.041058
      7          6           0        1.220206   -0.498432    0.029604
      8         35           0        3.026762   -1.248041    0.068093
      9          6           0        0.147823   -1.443231   -0.009004
     10          8           0        0.280480   -2.727212   -0.017790
     11          1           0       -2.266954    1.066071   -0.052524
     12          1           0        2.005030    1.502404    0.072323
 ---------------------------------------------------------------------

 SCF Done:  E(UB3LYP) =  -5528.93444574     A.U. after    1 cycles

 Alpha  occ. eigenvalues -- -482.80686-482.80680 -62.45968 -62.45962 -56.27969
 Alpha  occ. eigenvalues --  -56.27963 -56.27638 -56.27633 -56.27619 -56.27613
 Alpha  occ. eigenvalues --  -19.02583 -19.02026 -10.19422 -10.18980 -10.18976
 Alpha  occ. eigenvalues --  -10.18277 -10.13812 -10.13801  -8.66923  -8.66918
 Alpha  occ. eigenvalues --   -6.49950  -6.49945  -6.48849  -6.48844  -6.48792
 Alpha  occ. eigenvalues --   -6.48786  -2.61063  -2.61058  -2.60756  -2.60751
 Alpha  occ. eigenvalues --   -2.60714  -2.60708  -2.59839  -2.59839  -2.59833
 Alpha  occ. eigenvalues --   -2.59833  -0.94377  -0.92880  -0.81720  -0.78867
 Alpha  occ. eigenvalues --   -0.74646  -0.68611  -0.66236  -0.55799  -0.53716
 Alpha  occ. eigenvalues --   -0.45263  -0.44402  -0.39918  -0.38091  -0.38015
 Alpha  occ. eigenvalues --   -0.36792  -0.34078  -0.32979  -0.32351  -0.30927
 Alpha  occ. eigenvalues --   -0.28101  -0.27527  -0.27100  -0.23091  -0.21608
 Alpha  occ. eigenvalues --   -0.20835  -0.20142  -0.13198
 Alpha virt. eigenvalues --   -0.01420   0.00447   0.00676   0.01390   0.02278
 Alpha virt. eigenvalues --    0.02469   0.04234   0.04588   0.05827   0.05840
 Alpha virt. eigenvalues --    0.06268   0.06338   0.07337   0.08663   0.08861

  Beta  occ. eigenvalues -- -482.80686-482.80680 -62.45968 -62.45962 -56.27969
  Beta  occ. eigenvalues --  -56.27963 -56.27638 -56.27633 -56.27619 -56.27613
  Beta  occ. eigenvalues --  -19.02583 -19.02026 -10.19422 -10.18980 -10.18976
  Beta  occ. eigenvalues --  -10.18277 -10.13812 -10.13801  -8.66923  -8.66918
  Beta  occ. eigenvalues --   -6.49950  -6.49945  -6.48849  -6.48844  -6.48792
  Beta  occ. eigenvalues --   -6.48786  -2.61063  -2.61058  -2.60756  -2.60751
  Beta  occ. eigenvalues --   -2.60714  -2.60708  -2.59839  -2.59839  -2.59833
  Beta  occ. eigenvalues --   -2.59833  -0.94377  -0.92880  -0.81720  -0.78867
  Beta  occ. eigenvalues --   -0.74646  -0.68611  -0.66236  -0.55799  -0.53716
  Beta  occ. eigenvalues --   -0.45263  -0.44402  -0.39918  -0.38091  -0.38015
  Beta  occ. eigenvalues --   -0.36792  -0.34078  -0.32979  -0.32351  -0.30927
  Beta  occ. eigenvalues --   -0.28101  -0.27527  -0.27100  -0.23091  -0.21608
  Beta  occ. eigenvalues --   -0.20835  -0.20142  -0.13198
  Beta virt. eigenvalues --   -0.01420   0.00447   0.00676   0.01390   0.02278
  Beta virt. eigenvalues --    0.02469   0.04234   0.04588   0.05827   0.05840
  Beta virt. eigenvalues --    0.06268   0.06338   0.07337   0.08663   0.08861

 Mulliken charges and spin densities:
               1          2
     1  Br  -0.241577  -0.000000
     2  C    1.099303  -0.000000
     3  C   -0.309819   0.000000
     4  C   -0.425632  -0.000000
     5  O   -0.726944   0.000000
     6  C   -0.308557   0.000000
     7  C    1.099395  -0.000000
     8  Br  -0.241100   0.000000
     9  C   -1.716818   0.000000
    10  O   -0.603785  -0.000000
    11  H    0.187710  -0.000000
    12  H    0.187823   0.000000
 Sum of Mulliken charges =  -2.00000  -0.00000

 Dipole moment (field-independent basis, Debye):
    X=             -0.2102    Y=              2.0960    Z=              0.0133  Tot=              2.1065
 Quadrupole moment (field-independent basis, Debye-Ang):
   XX=           -108.1467   YY=           -154.2527   ZZ=            -91.5951
   XY=              4.7995   XZ=             -0.4182   YZ=             -0.5023

  Exact polarizability: 257.055   1.664 240.132   4.097   1.401 112.199
 Approx polarizability: 269.607  -0.283 271.267   4.157   1.565 121.747

                      1                      2                      3
                      A                      A                      A
 Frequencies --     78.7097               126.1984               161.4923
 Red. masses --     18.0608                29.2006                12.0445
 Frc consts  --      0.0659                 0.2740                 0.1851
 IR Inten    --     15.2750                 8.6351                11.8909

                      4                      5                      6
                      A                      A                      A
 Frequencies --    192.5898               205.6710               244.9159
 Red. masses --      4.9958                14.9373                23.5767
 Frc consts  --      0.1092                 0.3723                 0.8332
 IR Inten    --      0.0109                 0.2664                 2.5071

                      7                      8                      9
                      A                      A                      A
 Frequencies --    259.7756               328.7854               424.7989
 Red. masses --     18.5924                 9.2113                 9.0681
 Frc consts  --      0.7392                 0.5867                 0.9641
 IR Inten    --      1.8653                 0.0040                16.7695

                     10                     11                     12
                      A                      A                      A
 Frequencies --    480.8413               483.7627               600.4328
 Red. masses --      5.7804                12.5791                 2.1068
 Frc consts  --      0.7874                 1.7345                 0.4475
 IR Inten    --      0.0096                 0.1761                11.3337

                     13                     14                     15
                      A                      A                      A
 Frequencies --    603.4459               697.2764               712.0091
 Red. masses --      5.9042                 9.7229                10.3541
 Frc consts  --      1.2667                 2.7852                 3.0927
 IR Inten    --     23.4376               151.1919                 7.4234

                     16                     17                     18
                      A                      A                      A
 Frequencies --    808.0735               812.8715               820.6979
 Red. masses --      6.3858                 1.3597                 1.9272
 Frc consts  --      2.4568                 0.5293                 0.7648
 IR Inten    --    323.4469                16.7614                80.3299

                     19                     20                     21
                      A                      A                      A
 Frequencies --    882.3776              1013.5114              1114.5618
 Red. masses --      9.8881                 2.4398                 5.1838
 Frc consts  --      4.5360                 1.4766                 3.7941
 IR Inten    --     71.5680                72.0821               265.1633

                     22                     23                     24
                      A                      A                      A
 Frequencies --   1197.5443              1261.1345              1349.5327
 Red. masses --      1.8553                 2.2739                10.3189
 Frc consts  --      1.5677                 2.1309                11.0726
 IR Inten    --    153.0472               509.9368                45.0804

                     25                     26                     27
                      A                      A                      A
 Frequencies --   1382.8702              1430.8286              1431.8738
 Red. masses --      3.6460                 6.8327                 4.7372
 Frc consts  --      4.1080                 8.2418                 5.7225
 IR Inten    --     28.6524               419.7165              1771.2847

                     28                     29                     30
                      A                      A                      A
 Frequencies --   1593.0225              3165.1911              3166.4953
 Red. masses --      8.3588                 1.0900                 1.0890
 Frc consts  --     12.4979                 6.4339                 6.4334
 IR Inten    --     48.8846                14.0707                42.6897

 - Thermochemistry -
 -------------------
 Temperature   298.150 Kelvin.  Pressure   1.00000 Atm.
 Atom     1 has atomic number 35 and mass  78.91834

 Molecular mass:   263.84215 amu.
 Principal axes and moments of inertia in atomic units:
                           1         2         3
     Eigenvalues --  1786.655694965.383026752.02997
           X            0.99446  -0.10129  -0.02795
           Y            0.10102   0.99482  -0.01110
           Z            0.02893   0.00822   0.99955
 This molecule is an asymmetric top.
 Rotational symmetry number  1.
 Warning -- assumption of classical behavior for rotation
           may cause significant error
 Rotational temperatures (Kelvin)      0.04848     0.01744     0.01283
 Rotational constants (GHZ):           1.01012     0.36346     0.26729
 Zero-point vibrational energy     161683.0 (Joules/Mol)
                                   38.64317 (Kcal/Mol)
 Warning -- explicit consideration of  13 degrees of freedom as
           vibrations may cause significant error
 Vibrational temperatures:    113.25   181.57   232.35   277.09   295.91
          (Kelvin)            352.38   373.76   473.05   611.19   691.82
                              696.03   863.89   868.22  1003.23  1024.42
                             1162.64  1169.54  1180.80  1269.54  1458.22
                             1603.61  1723.00  1814.49  1941.68  1989.64
                             2058.64  2060.15  2292.00  4554.00  4555.88

 Zero-point correction=                           0.061582 (Hartree/Particle)
 Thermal correction to Energy=                    0.070680
 Thermal correction to Enthalpy=                  0.071624
 Thermal correction to Gibbs Free Energy=         0.024905
 Sum of electronic and zero-point Energies=          -5528.872864
 Sum of electronic and thermal Energies=             -5528.863766
 Sum of electronic and thermal Enthalpies=           -5528.862822
 Sum of electronic and thermal Free Energies=        -5528.909540

                     E (Thermal)             CV                S
                      KCal/Mol        Cal/Mol-Kelvin    Cal/Mol-Kelvin
 Total                   44.352             32.146             98.328
 Electronic               0.000              0.000              0.000
 Translational            0.889              2.981             42.610
 Rotational               0.889              2.981             32.460
 Vibrational             42.575             26.184             23.258
 Vibration     1          0.600              1.963              3.923
 Vibration     2          0.611              1.927              3.003
 Vibration     3          0.622              1.890              2.532
 Vibration     4          0.635              1.850              2.203
 Vibration     5          0.640              1.832              2.082
 Vibration     6          0.660              1.771              1.767
 Vibration     7          0.668              1.746              1.663
 Vibration     8          0.712              1.618              1.266
 Vibration     9          0.787              1.416              0.876
 Vibration    10          0.837              1.293              0.708
 Vibration    11          0.840              1.286              0.700
 Vibration    12          0.959              1.031              0.449
 Vibration    13          0.962              1.024              0.444

 Optimization completed.
    -- Stationary point found.
 Normal termination of Gaussian 16 at Sat Feb 10 10:23:06 2024.
