 Q-Chem 5.4, Q-Chem, Inc., Pleasanton, CA (2021)
 Q-Chem 5.4.0 for Intel X86 EM64T Linux

User input:
--------------------------------------------------------------
$molecule
0 1
C                  1.5733050000      1.0836470000     -1.5533840000
C                  0.1133690000      0.8876010000     -1.3357930000
C                 -0.3555930000      0.1921770000     -0.2914930000
C                  0.5789920000     -0.4215020000      0.7076270000
C                  2.0314110000     -0.2172410000      0.4773480000
C                  2.4973620000      0.4784100000     -0.5674930000
O                  1.9776240000      1.7192800000     -2.5102590000
O                  0.1769010000     -1.0566450000      1.6620730000
C                 -1.8424770000     -0.0017850000     -0.0785850000
F                 -2.5614150000      0.6028810000     -1.0504960000
F                 -2.1750950000     -1.3051010000     -0.0917420000
F                 -2.2434210000      0.5203150000      1.0944670000
H                 -0.5411630000      1.3403070000     -2.0709430000
H                  2.6825230000     -0.6719670000      1.2156350000
H                  3.5558180000      0.6329440000     -0.7443600000
$end

$rem
BASIS  =  6-311++G(d,p)
GUI  =  2
JOB_TYPE  =  SP
METHOD  =  B3LYP
SCF_CONVERGENCE  = 8
SOLVENT_METHOD = sm12
$end

$smx
solvent dimethylformamide
charges CM5
$end

--------------------------------------------------------------

             Standard Nuclear Orientation (Angstroms)
    I     Atom           X                Y                Z
 ----------------------------------------------------------------
    1      C       1.5733050000     1.0836470000    -1.5533840000
    2      C       0.1133690000     0.8876010000    -1.3357930000
    3      C      -0.3555930000     0.1921770000    -0.2914930000
    4      C       0.5789920000    -0.4215020000     0.7076270000
    5      C       2.0314110000    -0.2172410000     0.4773480000
    6      C       2.4973620000     0.4784100000    -0.5674930000
    7      O       1.9776240000     1.7192800000    -2.5102590000
    8      O       0.1769010000    -1.0566450000     1.6620730000
    9      C      -1.8424770000    -0.0017850000    -0.0785850000
   10      F      -2.5614150000     0.6028810000    -1.0504960000
   11      F      -2.1750950000    -1.3051010000    -0.0917420000
   12      F      -2.2434210000     0.5203150000     1.0944670000
   13      H      -0.5411630000     1.3403070000    -2.0709430000
   14      H       2.6825230000    -0.6719670000     1.2156350000
   15      H       3.5558180000     0.6329440000    -0.7443600000
 ----------------------------------------------------------------

   15    -718.7016729620      6.22e-09  Convergence criterion met
 Total energy in the final basis set =     -718.7148314601

                    Orbital Energies (a.u.)
 --------------------------------------------------------------

 Alpha MOs
 -- Occupied --
-24.7314 -24.7290 -24.7289 -19.1537 -19.1534 -10.4530 -10.3035 -10.2993
-10.2487 -10.2382 -10.2212 -10.2197  -1.3383  -1.2497  -1.2494  -1.0870
 -1.0835  -0.8893  -0.8264  -0.7522  -0.7136  -0.6632  -0.6421  -0.6167
 -0.6127  -0.5770  -0.5366  -0.5168  -0.4947  -0.4946  -0.4880  -0.4697
 -0.4645  -0.4519  -0.4509  -0.4446  -0.4340  -0.4306  -0.4299  -0.4147
 -0.3342  -0.3167  -0.3032  -0.2921

          Ground-State Mulliken Net Atomic Charges

     Atom                 Charge (a.u.)
  ----------------------------------------
      1 C                    -0.775496
      2 C                    -0.186306
      3 C                     0.061977
      4 C                    -0.965683
      5 C                     0.669412
      6 C                     0.866774
      7 O                    -0.302393
      8 O                    -0.294884
      9 C                     0.285287
     10 F                    -0.152096
     11 F                    -0.082664
     12 F                    -0.082712
     13 H                     0.244067
     14 H                     0.352394
     15 H                     0.362323
  ----------------------------------------
  Sum of atomic charges =     0.000000

                    Cartesian Multipole Moments
 -----------------------------------------------------------------
    Charge (ESU x 10^10)
                -0.0000
    Dipole Moment (Debye)
         X       3.0281      Y       0.3105      Z      -0.2990
       Tot       3.0587
    Quadrupole Moments (Debye-Ang)
        XX     -63.7179     XY      -4.3004     YY     -70.5711
        XZ       6.8611     YZ       6.2184     ZZ     -75.5703

 Total job time:  128.26s(wall), 952.42s(cpu)
        *  Thank you very much for using Q-Chem.  Have a nice day.  *
