 Q-Chem 5.4, Q-Chem, Inc., Pleasanton, CA (2021)
 Q-Chem 5.4.0 for Intel X86 EM64T Linux

User input:
--------------------------------------------------------------
$molecule
-2 1
C                  4.9781580000     -2.0291060000      0.5191700000
C                  5.7402030000     -1.3225570000     -0.4121790000
C                  5.1079290000     -0.6126770000     -1.4839930000
C                  3.5848740000     -2.0405390000      0.4433760000
C                  2.9211960000     -1.3250180000     -0.6285330000
C                  3.7413060000     -0.6264860000     -1.5631730000
C                  2.8380290000     -2.7871770000      1.4619160000
C                  1.3816420000     -2.7525740000      1.2877760000
C                  0.7524370000     -2.0259780000      0.2025530000
C                  1.4892590000     -1.2877430000     -0.7928080000
C                  0.5885900000     -3.4474660000      2.2016780000
C                 -0.6716020000     -2.0530050000      0.1279260000
C                 -1.4478360000     -2.7317220000      1.0284260000
O                  3.3978210000     -3.4066790000      2.4001090000
O                  0.9177970000     -0.6514910000     -1.7475900000
H                  5.4462560000     -2.5755160000      1.3292870000
S                  7.4651080000     -1.3913410000     -0.3407540000
H                 -2.5288740000     -2.7294990000      0.9635540000
H                  3.2206220000     -0.0928510000     -2.3507770000
H                  1.0869930000     -3.9838300000      3.0003510000
H                 -1.1182480000     -1.4956760000     -0.6882190000
C                 -0.8028200000     -3.4370590000      2.0956820000
S                 -1.7551970000     -4.3700770000      3.1944780000
O                 -1.0602380000     -4.6764580000      4.4516890000
O                 -3.1419820000     -3.8811620000      3.2749910000
O                 -1.8719400000     -5.8627450000      2.3759240000
C                 -2.6349980000     -6.8609590000      3.0522950000
H                 -2.1922900000     -7.1029920000      4.0242920000
H                 -2.6098500000     -7.7445130000      2.4101420000
H                 -3.6725490000     -6.5376670000      3.1904780000
H                  5.7137060000     -0.0648000000     -2.1951510000
O                  7.9784250000     -1.7585550000      0.9855140000
O                  8.0916170000     -0.2510740000     -1.0307010000
O                  7.8027200000     -2.7351080000     -1.3362090000
C                  9.1890150000     -3.0373630000     -1.4884550000
H                  9.6480040000     -3.2751510000     -0.5229840000
H                  9.7250210000     -2.2041000000     -1.9558450000
H                  9.2354850000     -3.9132960000     -2.1397680000
$end
$rem
MAX_SCF_CYCLES=200
BASIS  =  6-311++G(d,p)
GUI  =  2
JOB_TYPE  =  SP
METHOD  =  B3LYP
SOLVENT_METHOD = PCM
$end
$pcm
theory = CPCM
$end
$solvent
dielectric 37.219
opticaldielectric 1.43
$end

--------------------------------------------------------------

             Standard Nuclear Orientation (Angstroms)
    I     Atom           X                Y                Z
 ----------------------------------------------------------------
    1      C       4.9781580000    -2.0291060000     0.5191700000
    2      C       5.7402030000    -1.3225570000    -0.4121790000
    3      C       5.1079290000    -0.6126770000    -1.4839930000
    4      C       3.5848740000    -2.0405390000     0.4433760000
    5      C       2.9211960000    -1.3250180000    -0.6285330000
    6      C       3.7413060000    -0.6264860000    -1.5631730000
    7      C       2.8380290000    -2.7871770000     1.4619160000
    8      C       1.3816420000    -2.7525740000     1.2877760000
    9      C       0.7524370000    -2.0259780000     0.2025530000
   10      C       1.4892590000    -1.2877430000    -0.7928080000
   11      C       0.5885900000    -3.4474660000     2.2016780000
   12      C      -0.6716020000    -2.0530050000     0.1279260000
   13      C      -1.4478360000    -2.7317220000     1.0284260000
   14      O       3.3978210000    -3.4066790000     2.4001090000
   15      O       0.9177970000    -0.6514910000    -1.7475900000
   16      H       5.4462560000    -2.5755160000     1.3292870000
   17      S       7.4651080000    -1.3913410000    -0.3407540000
   18      H      -2.5288740000    -2.7294990000     0.9635540000
   19      H       3.2206220000    -0.0928510000    -2.3507770000
   20      H       1.0869930000    -3.9838300000     3.0003510000
   21      H      -1.1182480000    -1.4956760000    -0.6882190000
   22      C      -0.8028200000    -3.4370590000     2.0956820000
   23      S      -1.7551970000    -4.3700770000     3.1944780000
   24      O      -1.0602380000    -4.6764580000     4.4516890000
   25      O      -3.1419820000    -3.8811620000     3.2749910000
   26      O      -1.8719400000    -5.8627450000     2.3759240000
   27      C      -2.6349980000    -6.8609590000     3.0522950000
   28      H      -2.1922900000    -7.1029920000     4.0242920000
   29      H      -2.6098500000    -7.7445130000     2.4101420000
   30      H      -3.6725490000    -6.5376670000     3.1904780000
   31      H       5.7137060000    -0.0648000000    -2.1951510000
   32      O       7.9784250000    -1.7585550000     0.9855140000
   33      O       8.0916170000    -0.2510740000    -1.0307010000
   34      O       7.8027200000    -2.7351080000    -1.3362090000
   35      C       9.1890150000    -3.0373630000    -1.4884550000
   36      H       9.6480040000    -3.2751510000    -0.5229840000
   37      H       9.7250210000    -2.2041000000    -1.9558450000
   38      H       9.2354850000    -3.9132960000    -2.1397680000
 ----------------------------------------------------------------

    9   -2015.6420260174      8.05e-06  Convergence criterion met
 Total energy in the final basis set =    -2015.6420260174

                    Orbital Energies (a.u.)
 --------------------------------------------------------------

 Alpha MOs
 -- Occupied --
-89.0788 -89.0788 -19.1600 -19.1600 -19.1306 -19.1306 -19.1290 -19.1290
-19.0615 -19.0327 -10.2196 -10.2175 -10.2174 -10.2051 -10.2051 -10.1918
-10.1894 -10.1894 -10.1797 -10.1796 -10.1675 -10.1675 -10.1662 -10.1662
-10.1623 -10.1623  -8.1398  -8.1398  -6.1034  -6.1034  -6.1021  -6.1021
 -6.1003  -6.1002  -1.1397  -1.1397  -1.0297  -1.0296  -1.0179  -1.0179
 -0.9900  -0.9550  -0.8647  -0.8611  -0.7994  -0.7761  -0.7597  -0.7523
 -0.7267  -0.7111  -0.6760  -0.6552  -0.6530  -0.6077  -0.6027  -0.5848
 -0.5596  -0.5501  -0.5479  -0.5202  -0.5188  -0.5020  -0.4913  -0.4848
 -0.4803  -0.4645  -0.4570  -0.4506  -0.4493  -0.4480  -0.4450  -0.4308
 -0.4275  -0.4169  -0.4126  -0.4082  -0.4039  -0.3993  -0.3979  -0.3804
 -0.3733  -0.3671  -0.3552  -0.3499  -0.3457  -0.3441  -0.3427  -0.3415
 -0.3373  -0.3286  -0.3275  -0.3270  -0.3212  -0.3181  -0.2927  -0.2927
 -0.2639  -0.2568  -0.2505  -0.2496  -0.2345  -0.2143  -0.1320

          Ground-State Mulliken Net Atomic Charges

     Atom                 Charge (a.u.)
  ----------------------------------------
      1 C                     0.044798
      2 C                    -1.012004
      3 C                    -0.387423
      4 C                     0.192032
      5 C                     0.782936
      6 C                    -0.279197
      7 C                    -0.921504
      8 C                     0.194310
      9 C                     0.781856
     10 C                    -0.041542
     11 C                     0.038679
     12 C                    -0.280547
     13 C                    -0.373302
     14 O                    -0.507447
     15 O                    -0.650195
     16 H                     0.225145
     17 S                     0.395693
     18 H                     0.241464
     19 H                     0.159842
     20 H                     0.226210
     21 H                     0.158767
     22 C                    -1.022903
     23 S                     0.394387
     24 O                    -0.268792
     25 O                    -0.272267
     26 O                    -0.128863
     27 C                    -0.157604
     28 H                     0.171611
     29 H                     0.185908
     30 H                     0.170297
     31 H                     0.240301
     32 O                    -0.268298
     33 O                    -0.273355
     34 O                    -0.128934
     35 C                    -0.157999
     36 H                     0.171778
     37 H                     0.170303
     38 H                     0.185812
  ----------------------------------------
  Sum of atomic charges =    -2.000043

                    Cartesian Multipole Moments
 -----------------------------------------------------------------
    Charge (ESU x 10^10)
                -9.6066
    Dipole Moment (Debye)
         X     -22.3813      Y      18.3056      Z      -8.4586
       Tot      30.1258
    Quadrupole Moments (Debye-Ang)
        XX    -318.6914     XY      24.8380     YY    -220.1817
        XZ      -9.7384     YZ      46.2064     ZZ    -232.0576

 Total job time:  159.50s(wall), 798.79s(cpu)
        *  Thank you very much for using Q-Chem.  Have a nice day.  *
