 Gaussian 16, Revision A.03,
 Gaussian 16:  ES64L-G16RevA.03 25-Dec-2016

 ----------------------------------------------------------------
 #P UB3LYP/6-311++G(d,p) SCRF=(PCM,Solvent=n,n-DiMethylFormamide)
 ----------------------------------------------------------------

 ------------------
 Radical PCM in DMF
 ------------------
 Symbolic Z-matrix:
 Charge = -1 Multiplicity = 2

                         Standard orientation:
 ---------------------------------------------------------------------
 Center     Atomic      Atomic             Coordinates (Angstroms)
 Number     Number       Type             X           Y           Z
 ---------------------------------------------------------------------
      1          6           0        0.631407   -1.767402    0.000000
      2          6           0        1.970849   -1.427266   -0.000125
      3          6           0        2.372617   -0.071485   -0.000126
      4          6           0       -0.372802   -0.779666    0.000081
      5          6           0        0.017481    0.585222    0.000068
      6          6           0        1.390382    0.905307   -0.000022
      7          6           0       -1.794544   -1.175702    0.000040
      8          6           0       -2.734150   -0.087558    0.000002
      9          6           0       -2.355716    1.238197   -0.000002
     10          6           0       -0.984467    1.669280    0.000020
     11          8           0       -2.148450   -2.386339    0.000008
     12          8           0       -0.649179    2.885902   -0.000052
     13          1           0        0.312108   -2.803810   -0.000016
     14          1           0        2.727416   -2.208852   -0.000197
     15          1           0       -3.785673   -0.362113   -0.000035
     16          1           0       -3.104544    2.025905   -0.000080
     17          6           0        3.840996    0.287049    0.000098
     18          1           0        1.650266    1.959100   -0.000038
     19          1           0        4.354441   -0.117932   -0.880371
     20          1           0        4.353640   -0.115466    0.882184
     21          1           0        3.981067    1.370807   -0.001303
 ---------------------------------------------------------------------

 SCF Done:  E(UB3LYP) =  -574.739218575     A.U. after   17 cycles

 The electronic state is 2-A.
 Alpha  occ. eigenvalues --  -19.07577 -19.07572 -10.22057 -10.22005 -10.18150
 Alpha  occ. eigenvalues --  -10.17175 -10.17009 -10.16983 -10.16898 -10.16527
 Alpha  occ. eigenvalues --  -10.16387 -10.16176 -10.16110  -0.99925  -0.99687
 Alpha  occ. eigenvalues --   -0.85906  -0.80586  -0.76248  -0.74429  -0.69265
 Alpha  occ. eigenvalues --   -0.66716  -0.61494  -0.59355  -0.55742  -0.50237
 Alpha  occ. eigenvalues --   -0.48750  -0.47249  -0.44232  -0.42753  -0.42227
 Alpha  occ. eigenvalues --   -0.42086  -0.41148  -0.40806  -0.39018  -0.38327
 Alpha  occ. eigenvalues --   -0.37634  -0.37608  -0.34499  -0.34150  -0.33428
 Alpha  occ. eigenvalues --   -0.27643  -0.25452  -0.24365  -0.24352  -0.23697
 Alpha  occ. eigenvalues --   -0.15354
 Alpha virt. eigenvalues --   -0.03076  -0.01656  -0.00225   0.00814   0.01405
 Alpha virt. eigenvalues --    0.02588   0.03027   0.03563   0.04552   0.04897
 Alpha virt. eigenvalues --    0.05027   0.05828   0.06177   0.06904   0.07198

  Beta  occ. eigenvalues --  -19.06953 -19.06933 -10.21908 -10.21850 -10.18119
  Beta  occ. eigenvalues --  -10.17131 -10.16980 -10.16958 -10.16889 -10.16514
  Beta  occ. eigenvalues --  -10.16389 -10.16014 -10.15940  -0.98827  -0.98558
  Beta  occ. eigenvalues --   -0.85740  -0.80064  -0.76073  -0.74232  -0.68995
  Beta  occ. eigenvalues --   -0.65860  -0.61292  -0.59126  -0.55457  -0.50002
  Beta  occ. eigenvalues --   -0.48536  -0.46897  -0.44137  -0.42630  -0.41935
  Beta  occ. eigenvalues --   -0.41890  -0.40618  -0.39480  -0.38769  -0.38140
  Beta  occ. eigenvalues --   -0.37486  -0.34955  -0.34341  -0.33319  -0.33309
  Beta  occ. eigenvalues --   -0.24832  -0.24716  -0.23778  -0.23774  -0.23124
  Beta virt. eigenvalues --   -0.08581  -0.02335  -0.00593  -0.00214   0.00830
  Beta virt. eigenvalues --    0.01418   0.02608   0.03045   0.03715   0.04571
  Beta virt. eigenvalues --    0.05037   0.05926   0.06203   0.06477   0.07066

 Mulliken charges and spin densities:
               1          2
     1  C    0.140973   0.033321
     2  C   -0.420894   0.012639
     3  C    0.465303   0.019838
     4  C    0.122075   0.007165
     5  C    0.034825   0.022067
     6  C   -0.244753   0.033089
     7  C   -0.720113   0.069412
     8  C    0.156995   0.155132
     9  C   -0.003531   0.113692
    10  C   -0.447409   0.106050
    11  O   -0.497611   0.224453
    12  O   -0.493301   0.229931
    13  H    0.161994  -0.002412
    14  H    0.180877  -0.001657
    15  H    0.177818  -0.010758
    16  H    0.180751  -0.011147
    17  C   -0.414065  -0.000802
    18  H    0.131263  -0.002969
    19  H    0.162280   0.001477
    20  H    0.162477   0.001480
    21  H    0.164047   0.000001
 Sum of Mulliken charges =  -1.00000   1.00000

 Dipole moment (field-independent basis, Debye):
    X=              7.3055    Y=             -1.1772    Z=              0.0003  Tot=              7.3998
 Quadrupole moment (field-independent basis, Debye-Ang):
   XX=            -84.6572   YY=           -114.5344   ZZ=            -81.5788
   XY=             -9.7931   XZ=              0.0010   YZ=              0.0006

 Normal termination of Gaussian 16 at Sun Jan 21 08:17:20 2024.
