 Gaussian 16, Revision A.03,
 Gaussian 16:  ES64L-G16RevA.03 25-Dec-2016

 --------------------------------------
 #P UB3LYP/6-311++G(d,p) nosym opt freq
 --------------------------------------

 -------
 Radical
 -------
 Symbolic Z-matrix:
 Charge = -1 Multiplicity = 2

 SCF Done:  E(UB3LYP) =  -5757.78652099     A.U. after   19 cycles
 SCF Done:  E(UB3LYP) =  -5757.79546382     A.U. after   18 cycles
 SCF Done:  E(UB3LYP) =  -5757.77853379     A.U. after   16 cycles
 SCF Done:  E(UB3LYP) =  -5757.79395486     A.U. after   16 cycles
 SCF Done:  E(UB3LYP) =  -5757.79647290     A.U. after   10 cycles
 SCF Done:  E(UB3LYP) =  -5757.79712369     A.U. after   14 cycles
 SCF Done:  E(UB3LYP) =  -5757.79725208     A.U. after   13 cycles
 SCF Done:  E(UB3LYP) =  -5757.79724427     A.U. after   13 cycles
 SCF Done:  E(UB3LYP) =  -5757.79725689     A.U. after   13 cycles
 SCF Done:  E(UB3LYP) =  -5757.79726043     A.U. after   13 cycles
 SCF Done:  E(UB3LYP) =  -5757.79726089     A.U. after   12 cycles
 Optimization completed.
    -- Stationary point found.
 Normal termination of Gaussian 16 at Wed Dec 20 02:09:11 2023.

 ----------------------------------------------------------------------
 #P Geom=AllCheck Guess=TCheck SCRF=Check GenChk UB3LYP/6-311++G(d,p) F
 req
 ----------------------------------------------------------------------

 Structure from the checkpoint file:  "088-rad.chk"
 -------
 Radical
 -------
 Charge = -1 Multiplicity = 2

                          Input orientation:
 ---------------------------------------------------------------------
 Center     Atomic      Atomic             Coordinates (Angstroms)
 Number     Number       Type             X           Y           Z
 ---------------------------------------------------------------------
      1          6           0        1.580022    1.237790   -0.670496
      2          6           0        0.333059    1.732779   -0.137012
      3          6           0       -0.667954    0.891971    0.287496
      4          6           0       -0.542610   -0.545223    0.230024
      5          6           0        0.735994   -1.091033   -0.317277
      6          6           0        1.742594   -0.245595   -0.743929
      7          8           0        2.494511    1.991422   -1.057507
      8          8           0       -1.444357   -1.316668    0.611796
      9          8           0        2.992424   -0.456148   -1.277110
     10          6           0        3.670541   -1.643050   -1.568724
     11         35           0        0.179090    3.643279   -0.065853
     12         35           0       -2.328821    1.536713    0.997911
     13          1           0        4.631852   -1.321715   -1.977110
     14          1           0        3.161890   -2.251351   -2.325581
     15          1           0        3.862304   -2.255456   -0.680019
     16          8           0        0.607450   -2.459107   -0.266591
     17          6           0        1.492115   -3.472504   -0.646007
     18          1           0        0.962956   -4.402258   -0.423042
     19          1           0        2.425730   -3.462482   -0.071642
     20          1           0        1.724981   -3.458273   -1.717070
 ---------------------------------------------------------------------

 SCF Done:  E(UB3LYP) =  -5757.79726089     A.U. after    2 cycles

 Alpha  occ. eigenvalues -- -482.69734-482.69734 -62.35008 -62.35008 -56.17039
 Alpha  occ. eigenvalues --  -56.17039 -56.16677 -56.16677 -56.16633 -56.16633
 Alpha  occ. eigenvalues --  -19.03823 -19.03822 -18.94702 -18.94702 -10.13002
 Alpha  occ. eigenvalues --  -10.13000 -10.11738 -10.11681 -10.10564 -10.10562
 Alpha  occ. eigenvalues --  -10.09394 -10.09334  -8.55974  -8.55973  -6.39101
 Alpha  occ. eigenvalues --   -6.39101  -6.37882  -6.37882  -6.37755  -6.37754
 Alpha  occ. eigenvalues --   -2.50200  -2.50199  -2.49873  -2.49872  -2.49776
 Alpha  occ. eigenvalues --   -2.49776  -2.48803  -2.48803  -2.48801  -2.48801
 Alpha  occ. eigenvalues --   -0.96066  -0.94942  -0.87700  -0.87449  -0.72814
 Alpha  occ. eigenvalues --   -0.68490  -0.66067  -0.63384  -0.62081  -0.56929
 Alpha  occ. eigenvalues --   -0.53647  -0.46846  -0.45505  -0.43713  -0.39470
 Alpha  occ. eigenvalues --   -0.38439  -0.37511  -0.35675  -0.34001  -0.33271
 Alpha  occ. eigenvalues --   -0.30615  -0.30612  -0.27821  -0.26870  -0.25909
 Alpha  occ. eigenvalues --   -0.25476  -0.24695  -0.22330  -0.20599  -0.20548
 Alpha  occ. eigenvalues --   -0.19601  -0.17166  -0.17126  -0.14710  -0.13351
 Alpha  occ. eigenvalues --   -0.11856  -0.10712  -0.09719  -0.02838
 Alpha virt. eigenvalues --    0.06470   0.08505   0.08890   0.10332   0.10979
 Alpha virt. eigenvalues --    0.11535   0.11652   0.12527   0.13126   0.13733
 Alpha virt. eigenvalues --    0.14640   0.14794   0.15279   0.15606   0.15612

  Beta  occ. eigenvalues -- -482.69733-482.69732 -62.35007 -62.35006 -56.17041
  Beta  occ. eigenvalues --  -56.17041 -56.16669 -56.16669 -56.16633 -56.16632
  Beta  occ. eigenvalues --  -19.03799 -19.03797 -18.94020 -18.94019 -10.13003
  Beta  occ. eigenvalues --  -10.13002 -10.11694 -10.11636 -10.10454 -10.10453
  Beta  occ. eigenvalues --  -10.09188 -10.09126  -8.55972  -8.55971  -6.39105
  Beta  occ. eigenvalues --   -6.39105  -6.37868  -6.37868  -6.37754  -6.37754
  Beta  occ. eigenvalues --   -2.50202  -2.50201  -2.49867  -2.49866  -2.49779
  Beta  occ. eigenvalues --   -2.49779  -2.48796  -2.48795  -2.48794  -2.48794
  Beta  occ. eigenvalues --   -0.95989  -0.94861  -0.86576  -0.86296  -0.72283
  Beta  occ. eigenvalues --   -0.68351  -0.65889  -0.63258  -0.61904  -0.56809
  Beta  occ. eigenvalues --   -0.52755  -0.46593  -0.45221  -0.43609  -0.39227
  Beta  occ. eigenvalues --   -0.38361  -0.37318  -0.35606  -0.33895  -0.33148
  Beta  occ. eigenvalues --   -0.30213  -0.29451  -0.27079  -0.26504  -0.25287
  Beta  occ. eigenvalues --   -0.23991  -0.23949  -0.22283  -0.20484  -0.19757
  Beta  occ. eigenvalues --   -0.17986  -0.17130  -0.16555  -0.14627  -0.11211
  Beta  occ. eigenvalues --   -0.11090  -0.10110  -0.09171
  Beta virt. eigenvalues --    0.04257   0.06472   0.08641   0.08892   0.10353
  Beta virt. eigenvalues --    0.11000   0.11537   0.11730   0.13166   0.13519
  Beta virt. eigenvalues --    0.14193   0.14654   0.14957   0.15307   0.15638

 Mulliken charges and spin densities:
               1          2
     1  C   -0.650182   0.030664
     2  C    0.525770   0.124755
     3  C    0.525735   0.124779
     4  C   -0.649906   0.030656
     5  C    0.096158   0.081376
     6  C    0.095622   0.081374
     7  O   -0.314746   0.255008
     8  O   -0.314734   0.255002
     9  O   -0.188301   0.001739
    10  C   -0.185666  -0.000340
    11  Br  -0.177370   0.006405
    12  Br  -0.177369   0.006403
    13  H    0.171379  -0.000052
    14  H    0.111575   0.000225
    15  H    0.111588   0.000220
    16  O   -0.188413   0.001736
    17  C   -0.185653  -0.000342
    18  H    0.171370  -0.000052
    19  H    0.111596   0.000224
    20  H    0.111548   0.000221
 Sum of Mulliken charges =  -1.00000   1.00000

 Dipole moment (field-independent basis, Debye):
    X=              0.6837    Y=             -6.1337    Z=             -0.3082  Tot=              6.1794
 Quadrupole moment (field-independent basis, Debye-Ang):
   XX=           -129.1102   YY=           -129.2265   ZZ=           -113.2553
   XY=            -18.7158   XZ=              8.1862   YZ=              7.9175

  Exact polarizability: 194.483  -6.169 215.920 -41.894   2.975 114.134
 Approx polarizability: 308.188  41.243 313.701 -67.482 -17.101 178.348

 ******    2 imaginary frequencies (negative Signs) ******

                      1                      2                      3
                      A                      A                      A
 Frequencies --   -155.2636              -149.5615                43.7423
 Red. masses --      2.9873                 3.8897                 8.9833
 Frc consts  --      0.0424                 0.0513                 0.0101
 IR Inten    --      0.0009                 5.9520                 0.0005

                      4                      5                      6
                      A                      A                      A
 Frequencies --     56.2546                86.8463               124.0540
 Red. masses --      9.0007                10.6510                 4.0181
 Frc consts  --      0.0168                 0.0473                 0.0364
 IR Inten    --      9.4905                 0.0001                 7.0037

                      7                      8                      9
                      A                      A                      A
 Frequencies --    131.0007               179.3589               201.7329
 Red. masses --     54.8695                12.4938                 8.4327
 Frc consts  --      0.5548                 0.2368                 0.2022
 IR Inten    --      0.8198                 2.3019                 0.2546

                     10                     11                     12
                      A                      A                      A
 Frequencies --    238.4750               244.3744               253.7850
 Red. masses --      1.0614                12.4886                13.7199
 Frc consts  --      0.0356                 0.4394                 0.5206
 IR Inten    --      0.0009                 2.3505                 0.2436

                     13                     14                     15
                      A                      A                      A
 Frequencies --    332.0092               334.0369               338.5728
 Red. masses --      4.2753                11.5870                 8.0094
 Frc consts  --      0.2777                 0.7617                 0.5409
 IR Inten    --      0.0286                 0.0001                 2.0029

                     16                     17                     18
                      A                      A                      A
 Frequencies --    360.5432               392.0399               415.7842
 Red. masses --      8.7741                 9.3880                 1.0553
 Frc consts  --      0.6720                 0.8501                 0.1075
 IR Inten    --      0.0153                10.7442                 2.4575

                     19                     20                     21
                      A                      A                      A
 Frequencies --    453.9131               495.7183               495.9039
 Red. masses --      4.7972                 8.9771                 9.9313
 Frc consts  --      0.5824                 1.2997                 1.4390
 IR Inten    --      0.1518                 1.2231                 2.2539

                     22                     23                     24
                      A                      A                      A
 Frequencies --    520.8872               706.9456               723.4536
 Red. masses --     11.9575                 9.4745                12.1385
 Frc consts  --      1.9115                 2.7898                 3.7431
 IR Inten    --      0.0000                60.0543                 2.6129

                     25                     26                     27
                      A                      A                      A
 Frequencies --    734.8010               753.3627               811.6068
 Red. masses --     12.1427                10.6723                11.4707
 Frc consts  --      3.8628                 3.5688                 4.4518
 IR Inten    --      0.0001                 3.3913                62.7426

                     28                     29                     30
                      A                      A                      A
 Frequencies --    958.1598               987.4006              1102.2181
 Red. masses --      9.3420                 7.8328                 5.8672
 Frc consts  --      5.0532                 4.4994                 4.1997
 IR Inten    --      1.3579                87.5153                29.4618

                     31                     32                     33
                      A                      A                      A
 Frequencies --   1140.8465              1141.1654              1158.1602
 Red. masses --     10.0830                 1.2936                 1.2614
 Frc consts  --      7.7320                 0.9925                 0.9968
 IR Inten    --     79.0319                 1.7206                 1.4431

                     34                     35                     36
                      A                      A                      A
 Frequencies --   1191.6505              1209.7193              1241.8383
 Red. masses --      1.8875                 1.6145                 8.2287
 Frc consts  --      1.5792                 1.3921                 7.4767
 IR Inten    --    107.3573                 5.9948               291.4693

                     37                     38                     39
                      A                      A                      A
 Frequencies --   1245.1240              1322.2349              1468.3460
 Red. masses --      3.2939                 8.9219                 3.1801
 Frc consts  --      3.0087                 9.1902                 4.0397
 IR Inten    --    354.6926                 2.5068                66.3306

                     40                     41                     42
                      A                      A                      A
 Frequencies --   1476.4911              1477.7254              1485.4777
 Red. masses --      1.1575                 1.0526                 1.6403
 Frc consts  --      1.4868                 1.3542                 2.1326
 IR Inten    --      1.8139                 0.0383                20.1066

                     43                     44                     45
                      A                      A                      A
 Frequencies --   1486.5139              1512.0991              1521.5090
 Red. masses --      1.0801                 1.0560                 1.0519
 Frc consts  --      1.4062                 1.4226                 1.4348
 IR Inten    --     32.5976                12.9143                 7.4452

                     46                     47                     48
                      A                      A                      A
 Frequencies --   1541.0884              1577.3040              1592.5701
 Red. masses --     12.9255                 9.8364                 9.5972
 Frc consts  --     18.0864                14.4184                14.3414
 IR Inten    --    465.8597               185.1097                38.9279

                     49                     50                     51
                      A                      A                      A
 Frequencies --   2974.6320              2993.8010              3029.3314
 Red. masses --      1.0351                 1.0310                 1.1049
 Frc consts  --      5.3964                 5.4443                 5.9739
 IR Inten    --      0.3031               311.0024                 0.0010

                     52                     53                     54
                      A                      A                      A
 Frequencies --   3047.3118              3073.8277              3077.0600
 Red. masses --      1.1039                 1.0968                 1.0976
 Frc consts  --      6.0394                 6.1057                 6.1232
 IR Inten    --    135.7666                77.4044                 9.2844

 - Thermochemistry -
 -------------------
 Temperature   298.150 Kelvin.  Pressure   1.00000 Atm.
 Atom     1 has atomic number  6 and mass  12.00000

 Molecular mass:   323.86328 amu.
 Principal axes and moments of inertia in atomic units:
                           1         2         3
     Eigenvalues --  3338.674866170.853789486.50563
           X           -0.56184   0.72834   0.39224
           Y            0.79110   0.61168  -0.00265
           Z            0.24185  -0.30881   0.91986
 This molecule is an asymmetric top.
 Rotational symmetry number  1.
 Warning -- assumption of classical behavior for rotation
           may cause significant error
 Rotational temperatures (Kelvin)      0.02594     0.01404     0.00913
 Rotational constants (GHZ):           0.54056     0.29246     0.19024
    2 imaginary frequencies ignored.
 Zero-point vibrational energy     331741.3 (Joules/Mol)
                                   79.28807 (Kcal/Mol)
 Warning -- explicit consideration of  20 degrees of freedom as
           vibrations may cause significant error
 Vibrational temperatures:     62.94    80.94   124.95   178.49   188.48
          (Kelvin)            258.06   290.25   343.11   351.60   365.14
                              477.69   480.60   487.13   518.74   564.06
                              598.22   653.08   713.23   713.50   749.44
                             1017.14  1040.89  1057.21  1083.92  1167.72
                             1378.58  1420.65  1585.85  1641.42  1641.88
                             1666.33  1714.52  1740.52  1786.73  1791.46
                             1902.40  2112.62  2124.34  2126.12  2137.27
                             2138.76  2175.57  2189.11  2217.28  2269.39
                             2291.35  4279.83  4307.41  4358.53  4384.40
                             4422.55  4427.20

 Zero-point correction=                           0.126354 (Hartree/Particle)
 Thermal correction to Energy=                    0.139402
 Thermal correction to Enthalpy=                  0.140346
 Thermal correction to Gibbs Free Energy=         0.083899
 Sum of electronic and zero-point Energies=          -5757.670907
 Sum of electronic and thermal Energies=             -5757.657859
 Sum of electronic and thermal Enthalpies=           -5757.656915
 Sum of electronic and thermal Free Energies=        -5757.713362

                     E (Thermal)             CV                S
                      KCal/Mol        Cal/Mol-Kelvin    Cal/Mol-Kelvin
 Total                   87.476             46.284            118.803
 Electronic               0.000              0.000              1.377
 Translational            0.889              2.981             43.221
 Rotational               0.889              2.981             33.635
 Vibrational             85.699             40.322             40.569
 Vibration     1          0.595              1.980              5.082
 Vibration     2          0.596              1.975              4.584
 Vibration     3          0.601              1.958              3.730
 Vibration     4          0.610              1.929              3.036
 Vibration     5          0.612              1.922              2.931
 Vibration     6          0.629              1.868              2.335
 Vibration     7          0.639              1.837              2.117
 Vibration     8          0.656              1.782              1.814
 Vibration     9          0.660              1.772              1.771
 Vibration    10          0.665              1.756              1.704
 Vibration    11          0.714              1.612              1.250
 Vibration    12          0.716              1.608              1.240
 Vibration    13          0.719              1.598              1.219
 Vibration    14          0.735              1.554              1.120
 Vibration    15          0.759              1.487              0.992
 Vibration    16          0.779              1.436              0.906
 Vibration    17          0.812              1.352              0.784
 Vibration    18          0.851              1.260              0.669
 Vibration    19          0.851              1.259              0.668
 Vibration    20          0.876              1.204              0.608

 Optimization completed.
    -- Stationary point found.
 Normal termination of Gaussian 16 at Wed Dec 20 02:45:38 2023.
