 Q-Chem 5.4, Q-Chem, Inc., Pleasanton, CA (2021)
 Q-Chem 5.4.0 for Intel X86 EM64T Linux

User input:
--------------------------------------------------------------
$molecule
-1 2
C                  7.1948680000      1.1919300000      0.2117650000
C                  8.2930470000      1.0332210000      1.1542310000
C                  8.8927830000     -0.1911630000      1.3524900000
C                  8.4566550000     -1.3789550000      0.6289200000
C                  7.3533050000     -1.2215710000     -0.3129030000
C                  6.7646260000      0.0075160000     -0.5161460000
O                  6.6292380000      2.3132660000      0.0259940000
O                  9.0131260000     -2.5043750000      0.8109340000
C                  5.6239550000      0.2094210000     -1.5002500000
C                  6.9012480000     -2.4631790000     -1.0457170000
C                  8.7438160000      2.2628230000      1.9041260000
C                 10.0296850000     -0.3579390000      2.3311270000
C                  4.2730140000      0.1063330000     -0.8384850000
H                  5.7107380000     -0.4843620000     -2.3387150000
H                  5.7188230000      1.2284180000     -1.8931080000
H                  7.4380670000     -3.3249600000     -0.6482730000
H                  7.1109140000     -2.4013780000     -2.1219750000
H                  5.8245050000     -2.6300740000     -0.9355230000
H                  8.1456150000      3.1178900000      1.5879600000
H                  9.8026430000      2.4855020000      1.7199290000
H                  8.6338890000      2.1400880000      2.9894610000
H                  9.7339600000     -0.0722990000      3.3488200000
H                 10.8888100000      0.2720270000      2.0664160000
H                 10.3501570000     -1.3999560000      2.3387900000
C                  3.2058570000     -0.6242270000     -1.1934220000
C                  3.1588640000     -1.5418410000     -2.3930410000
C                  1.9345820000     -0.5685770000     -0.3686290000
C                  0.7309670000      0.0763210000     -1.0840090000
C                 -0.5209710000      0.1340700000     -0.1994050000
C                 -1.7991470000      0.6590900000     -0.8841360000
C                 -3.0177080000      0.4552040000      0.0387640000
C                 -4.3870350000      0.7178110000     -0.6028910000
C                 -5.5542870000      0.4063020000      0.3435420000
C                 -6.9635670000      0.5435620000     -0.2675370000
C                 -8.0189270000     -0.0213340000      0.7046950000
C                 -9.4378110000     -0.1590890000      0.1363210000
C                 -1.6515440000      2.1242000000     -1.3227340000
C                -10.4098600000     -0.8200650000      1.1225580000
C                -11.8307530000     -1.0733260000      0.5833570000
C                -12.5774270000      0.2278610000      0.2550800000
C                -12.6405400000     -1.9206100000      1.5752490000
H                  4.1852610000      0.7293240000      0.0495740000
H                  4.1360080000     -1.6661920000     -2.8589740000
H                  2.4719830000     -1.1682210000     -3.1628840000
H                  2.7954790000     -2.5369580000     -2.1052740000
H                  2.1334340000     -0.0142440000      0.5545360000
H                  1.6507090000     -1.5881280000     -0.0654490000
H                  0.4961730000     -0.4854070000     -1.9967120000
H                  1.0219330000      1.0819990000     -1.4042970000
H                 -0.3117140000      0.7515720000      0.6851890000
H                 -0.7232940000     -0.8760000000      0.1801400000
H                 -1.9631310000      0.0505520000     -1.7860230000
H                 -2.9034010000      1.0954600000      0.9245450000
H                 -3.0008650000     -0.5774410000      0.4097120000
H                 -4.4837230000      0.1014030000     -1.5071200000
H                 -4.4457910000      1.7588240000     -0.9332670000
H                 -5.4860450000      1.0532760000      1.2292400000
H                 -5.4365340000     -0.6206350000      0.7118720000
C                 -7.2744780000      1.9932930000     -0.6705380000
H                 -8.0479490000      0.6096870000      1.6039110000
H                 -7.6832560000     -1.0101170000      1.0417010000
H                 -9.3992390000     -0.7565010000     -0.7846940000
H                 -9.8186800000      0.8251330000     -0.1516810000
H                 -0.8038900000      2.2568780000     -1.9981630000
H                 -1.4861590000      2.7711920000     -0.4533470000
H                 -2.5418650000      2.4858940000     -1.8439930000
H                -10.4803000000     -0.2058540000      2.0312380000
H                 -9.9845650000     -1.7803400000      1.4408120000
H                -11.7337950000     -1.6498590000     -0.3472680000
H                -12.0627730000      0.8166650000     -0.5079040000
H                -12.6768710000      0.8535370000      1.1495710000
H                -13.5853910000      0.0176970000     -0.1156890000
H                -12.1442320000     -2.8730710000      1.7841390000
H                -13.6399730000     -2.1409360000      1.1876210000
H                -12.7632580000     -1.3939170000      2.5283780000
H                 -6.9895960000     -0.0739660000     -1.1775330000
H                 -7.2595780000      2.6487610000      0.2081320000
H                 -8.2586830000      2.0836170000     -1.1369130000
H                 -6.5431380000      2.3790420000     -1.3842110000
$end

$rem
BASIS  =  6-311++G(d,p)
GUI  =  2
JOB_TYPE  =  SP
METHOD  =  B3LYP
SCF_CONVERGENCE  = 8
SOLVENT_METHOD = sm12
$end

$smx
solvent dimethylformamide
charges CM5
$end

--------------------------------------------------------------

             Standard Nuclear Orientation (Angstroms)
    I     Atom           X                Y                Z
 ----------------------------------------------------------------
    1      C       7.1948680000     1.1919300000     0.2117650000
    2      C       8.2930470000     1.0332210000     1.1542310000
    3      C       8.8927830000    -0.1911630000     1.3524900000
    4      C       8.4566550000    -1.3789550000     0.6289200000
    5      C       7.3533050000    -1.2215710000    -0.3129030000
    6      C       6.7646260000     0.0075160000    -0.5161460000
    7      O       6.6292380000     2.3132660000     0.0259940000
    8      O       9.0131260000    -2.5043750000     0.8109340000
    9      C       5.6239550000     0.2094210000    -1.5002500000
   10      C       6.9012480000    -2.4631790000    -1.0457170000
   11      C       8.7438160000     2.2628230000     1.9041260000
   12      C      10.0296850000    -0.3579390000     2.3311270000
   13      C       4.2730140000     0.1063330000    -0.8384850000
   14      H       5.7107380000    -0.4843620000    -2.3387150000
   15      H       5.7188230000     1.2284180000    -1.8931080000
   16      H       7.4380670000    -3.3249600000    -0.6482730000
   17      H       7.1109140000    -2.4013780000    -2.1219750000
   18      H       5.8245050000    -2.6300740000    -0.9355230000
   19      H       8.1456150000     3.1178900000     1.5879600000
   20      H       9.8026430000     2.4855020000     1.7199290000
   21      H       8.6338890000     2.1400880000     2.9894610000
   22      H       9.7339600000    -0.0722990000     3.3488200000
   23      H      10.8888100000     0.2720270000     2.0664160000
   24      H      10.3501570000    -1.3999560000     2.3387900000
   25      C       3.2058570000    -0.6242270000    -1.1934220000
   26      C       3.1588640000    -1.5418410000    -2.3930410000
   27      C       1.9345820000    -0.5685770000    -0.3686290000
   28      C       0.7309670000     0.0763210000    -1.0840090000
   29      C      -0.5209710000     0.1340700000    -0.1994050000
   30      C      -1.7991470000     0.6590900000    -0.8841360000
   31      C      -3.0177080000     0.4552040000     0.0387640000
   32      C      -4.3870350000     0.7178110000    -0.6028910000
   33      C      -5.5542870000     0.4063020000     0.3435420000
   34      C      -6.9635670000     0.5435620000    -0.2675370000
   35      C      -8.0189270000    -0.0213340000     0.7046950000
   36      C      -9.4378110000    -0.1590890000     0.1363210000
   37      C      -1.6515440000     2.1242000000    -1.3227340000
   38      C     -10.4098600000    -0.8200650000     1.1225580000
   39      C     -11.8307530000    -1.0733260000     0.5833570000
   40      C     -12.5774270000     0.2278610000     0.2550800000
   41      C     -12.6405400000    -1.9206100000     1.5752490000
   42      H       4.1852610000     0.7293240000     0.0495740000
   43      H       4.1360080000    -1.6661920000    -2.8589740000
   44      H       2.4719830000    -1.1682210000    -3.1628840000
   45      H       2.7954790000    -2.5369580000    -2.1052740000
   46      H       2.1334340000    -0.0142440000     0.5545360000
   47      H       1.6507090000    -1.5881280000    -0.0654490000
   48      H       0.4961730000    -0.4854070000    -1.9967120000
   49      H       1.0219330000     1.0819990000    -1.4042970000
   50      H      -0.3117140000     0.7515720000     0.6851890000
   51      H      -0.7232940000    -0.8760000000     0.1801400000
   52      H      -1.9631310000     0.0505520000    -1.7860230000
   53      H      -2.9034010000     1.0954600000     0.9245450000
   54      H      -3.0008650000    -0.5774410000     0.4097120000
   55      H      -4.4837230000     0.1014030000    -1.5071200000
   56      H      -4.4457910000     1.7588240000    -0.9332670000
   57      H      -5.4860450000     1.0532760000     1.2292400000
   58      H      -5.4365340000    -0.6206350000     0.7118720000
   59      C      -7.2744780000     1.9932930000    -0.6705380000
   60      H      -8.0479490000     0.6096870000     1.6039110000
   61      H      -7.6832560000    -1.0101170000     1.0417010000
   62      H      -9.3992390000    -0.7565010000    -0.7846940000
   63      H      -9.8186800000     0.8251330000    -0.1516810000
   64      H      -0.8038900000     2.2568780000    -1.9981630000
   65      H      -1.4861590000     2.7711920000    -0.4533470000
   66      H      -2.5418650000     2.4858940000    -1.8439930000
   67      H     -10.4803000000    -0.2058540000     2.0312380000
   68      H      -9.9845650000    -1.7803400000     1.4408120000
   69      H     -11.7337950000    -1.6498590000    -0.3472680000
   70      H     -12.0627730000     0.8166650000    -0.5079040000
   71      H     -12.6768710000     0.8535370000     1.1495710000
   72      H     -13.5853910000     0.0176970000    -0.1156890000
   73      H     -12.1442320000    -2.8730710000     1.7841390000
   74      H     -13.6399730000    -2.1409360000     1.1876210000
   75      H     -12.7632580000    -1.3939170000     2.5283780000
   76      H      -6.9895960000    -0.0739660000    -1.1775330000
   77      H      -7.2595780000     2.6487610000     0.2081320000
   78      H      -8.2586830000     2.0836170000    -1.1369130000
   79      H      -6.5431380000     2.3790420000    -1.3842110000
 ----------------------------------------------------------------

   16   -1284.8717212586      4.16e-09  Convergence criterion met
 Total energy in the final basis set =    -1284.9619655323

                    Orbital Energies (a.u.)
 --------------------------------------------------------------

 Alpha MOs
 -- Occupied --
-19.0686 -19.0679 -10.2117 -10.2107 -10.1735 -10.1734 -10.1710 -10.1707
-10.1676 -10.1673 -10.1669 -10.1661 -10.1655 -10.1647 -10.1645 -10.1642
-10.1626 -10.1622 -10.1620 -10.1614 -10.1612 -10.1612 -10.1609 -10.1607
-10.1602 -10.1601 -10.1601 -10.1564 -10.1559 -10.1546 -10.1543  -0.9908
 -0.9882  -0.8330  -0.8270  -0.8221  -0.8138  -0.8039  -0.7940  -0.7693
 -0.7523  -0.7357  -0.7265  -0.7237  -0.7053  -0.6847  -0.6837  -0.6785
 -0.6728  -0.6638  -0.6359  -0.6337  -0.6168  -0.5936  -0.5754  -0.5636
 -0.5594  -0.5518  -0.5461  -0.5427  -0.5184  -0.5021  -0.4823  -0.4782
 -0.4706  -0.4665  -0.4527  -0.4455  -0.4430  -0.4426  -0.4420  -0.4358
 -0.4322  -0.4273  -0.4224  -0.4200  -0.4173  -0.4120  -0.4101  -0.4083
 -0.3997  -0.3964  -0.3939  -0.3903  -0.3893  -0.3865  -0.3847  -0.3808
 -0.3800  -0.3796  -0.3743  -0.3727  -0.3683  -0.3672  -0.3641  -0.3604
 -0.3561  -0.3553  -0.3521  -0.3465  -0.3436  -0.3420  -0.3362  -0.3332
 -0.3307  -0.3265  -0.3245  -0.3214  -0.3209  -0.3191  -0.3156  -0.3147
 -0.3089  -0.2912  -0.2654  -0.2419  -0.2397  -0.2330  -0.2242  -0.1532

 Beta MOs
 -- Occupied --
-19.0614 -19.0609 -10.2103 -10.2093 -10.1735 -10.1734 -10.1710 -10.1707
-10.1677 -10.1673 -10.1658 -10.1651 -10.1647 -10.1644 -10.1642 -10.1635
-10.1625 -10.1622 -10.1620 -10.1614 -10.1613 -10.1613 -10.1609 -10.1607
-10.1602 -10.1602 -10.1601 -10.1564 -10.1559 -10.1546 -10.1543  -0.9785
 -0.9757  -0.8304  -0.8259  -0.8210  -0.8133  -0.8037  -0.7927  -0.7690
 -0.7519  -0.7349  -0.7239  -0.7234  -0.7034  -0.6845  -0.6837  -0.6785
 -0.6726  -0.6625  -0.6345  -0.6281  -0.6158  -0.5934  -0.5754  -0.5636
 -0.5594  -0.5518  -0.5429  -0.5390  -0.5178  -0.5007  -0.4823  -0.4782
 -0.4705  -0.4661  -0.4525  -0.4453  -0.4426  -0.4410  -0.4381  -0.4330
 -0.4321  -0.4269  -0.4219  -0.4190  -0.4154  -0.4100  -0.4095  -0.4056
 -0.3974  -0.3954  -0.3936  -0.3902  -0.3878  -0.3849  -0.3846  -0.3807
 -0.3796  -0.3776  -0.3726  -0.3683  -0.3679  -0.3654  -0.3605  -0.3555
 -0.3538  -0.3519  -0.3465  -0.3429  -0.3396  -0.3362  -0.3327  -0.3303
 -0.3289  -0.3263  -0.3242  -0.3214  -0.3209  -0.3191  -0.3156  -0.3146
 -0.3087  -0.2911  -0.2423  -0.2333  -0.2317  -0.2263  -0.2187

          Ground-State Mulliken Net Atomic Charges

     Atom                 Charge (a.u.)    Spin (a.u.)
  --------------------------------------------------------
      1 C                    -2.109360       0.068637
      2 C                     0.176648       0.093683
      3 C                    -0.254250       0.078853
      4 C                    -2.384427       0.065944
      5 C                    -0.008374       0.071474
      6 C                     0.042373       0.073732
      7 O                    -0.302157       0.256942
      8 O                    -0.336961       0.260302
      9 C                    -0.376174       0.009389
     10 C                     0.131278       0.003987
     11 C                     0.206450       0.002082
     12 C                     0.253356       0.002519
     13 C                    -0.363538      -0.001241
     14 H                     0.019826      -0.000734
     15 H                     0.198466       0.003179
     16 H                     0.175395      -0.002448
     17 H                     0.219752       0.004782
     18 H                     0.141033       0.003380
     19 H                     0.175869      -0.001761
     20 H                     0.200201       0.003412
     21 H                     0.200700       0.003458
     22 H                     0.202545       0.003397
     23 H                     0.203939       0.003485
     24 H                     0.180582      -0.001930
     25 C                    -0.297783       0.009514
     26 C                    -0.059195      -0.002317
     27 C                    -0.140084      -0.011128
     28 C                    -0.269484       0.002165
     29 C                    -0.440281      -0.000995
     30 C                     1.913438      -0.000526
     31 C                    -0.274523       0.000308
     32 C                     0.239795      -0.000045
     33 C                    -1.072969       0.000011
     34 C                     1.201290       0.000001
     35 C                    -0.766123       0.000002
     36 C                     0.150363      -0.000000
     37 C                    -0.769034       0.000041
     38 C                    -0.623309      -0.000001
     39 C                     0.489409       0.000000
     40 C                    -0.640351      -0.000000
     41 C                    -0.514381      -0.000001
     42 H                     0.132406      -0.001630
     43 H                     0.256459       0.000039
     44 H                     0.232462      -0.000066
     45 H                     0.216330       0.000138
     46 H                     0.150780      -0.000136
     47 H                     0.238697       0.000204
     48 H                     0.102127       0.000223
     49 H                     0.070872      -0.000341
     50 H                     0.101422       0.000057
     51 H                     0.153992      -0.000052
     52 H                     0.091069      -0.000044
     53 H                     0.116327      -0.000003
     54 H                     0.092710       0.000007
     55 H                     0.147274       0.000002
     56 H                     0.024231       0.000004
     57 H                     0.117623      -0.000000
     58 H                     0.099351       0.000000
     59 C                    -0.680459      -0.000001
     60 H                     0.113421      -0.000000
     61 H                     0.109135      -0.000000
     62 H                     0.138649      -0.000000
     63 H                     0.033456       0.000000
     64 H                     0.136330       0.000062
     65 H                     0.129920      -0.000007
     66 H                     0.189233      -0.000006
     67 H                     0.114767      -0.000000
     68 H                     0.107384       0.000000
     69 H                     0.109134       0.000000
     70 H                     0.149769       0.000000
     71 H                     0.136368       0.000000
     72 H                     0.164583       0.000000
     73 H                     0.147701      -0.000000
     74 H                     0.174593      -0.000000
     75 H                     0.137589      -0.000000
     76 H                     0.076412      -0.000000
     77 H                     0.140180      -0.000000
     78 H                     0.164712       0.000000
     79 H                     0.143042      -0.000000
  --------------------------------------------------------
  Sum of atomic charges =    -1.000002

                    Cartesian Multipole Moments
 -----------------------------------------------------------------
    Charge (ESU x 10^10)
                -4.8032
    Dipole Moment (Debye)
         X     -37.1547      Y       0.3190      Z      -2.1965
       Tot      37.2209
    Quadrupole Moments (Debye-Ang)
        XX    -510.0199     XY      19.3827     YY    -234.3749
        XZ     -18.1735     YZ       6.0624     ZZ    -208.0082

 Total job time:  7800.80s(wall), 39926.94s(cpu)
        *  Thank you very much for using Q-Chem.  Have a nice day.  *
