 Q-Chem 5.4, Q-Chem, Inc., Pleasanton, CA (2021)
 Q-Chem 5.4.0 for Intel X86 EM64T Linux

User input:
--------------------------------------------------------------
$molecule
-2 1
C                 -3.6299360000      0.1992280000      0.8407020000
C                 -3.6585520000     -0.1736490000     -0.4977660000
C                 -2.4414620000     -0.3646650000     -1.1931290000
C                 -1.1808610000     -0.1915480000     -0.5814160000
N                 -0.0298940000     -0.3860980000     -1.2887150000
C                  1.1512380000     -0.1996120000     -0.6286890000
C                  2.3836170000     -0.3815610000     -1.2916780000
C                  3.6300360000     -0.1992740000     -0.6470030000
C                  3.6584170000      0.1736740000      0.6915320000
C                  2.4414410000      0.3646680000      1.3868130000
C                  1.1808310000      0.1915210000      0.7750850000
N                  0.0298660000      0.3860930000      1.4824630000
C                 -1.1512450000      0.1996040000      0.8224340000
C                 -2.3836770000      0.3815510000      1.4855060000
H                 -4.5557910000      0.3516580000      1.3950280000
H                 -4.6070810000     -0.3196140000     -1.0141010000
H                 -2.4434900000     -0.6569870000     -2.2420920000
H                  2.3413530000     -0.6737240000     -2.3397650000
H                  4.5559330000     -0.3516240000     -1.2010990000
H                  4.6069370000      0.3196580000      1.2079950000
H                  2.4435360000      0.6570050000      2.4357870000
H                 -2.3412140000      0.6736960000      2.5335620000
$end

$rem
BASIS  =  6-311++G(d,p)
GUI  =  2
JOB_TYPE  =  SP
METHOD  =  B3LYP
SCF_CONVERGENCE  = 8
SOLVENT_METHOD = sm12
$end

$smx
solvent dimethylformamide
charges CM5
$end

--------------------------------------------------------------

             Standard Nuclear Orientation (Angstroms)
    I     Atom           X                Y                Z
 ----------------------------------------------------------------
    1      C      -3.6299360000     0.1992280000     0.8407020000
    2      C      -3.6585520000    -0.1736490000    -0.4977660000
    3      C      -2.4414620000    -0.3646650000    -1.1931290000
    4      C      -1.1808610000    -0.1915480000    -0.5814160000
    5      N      -0.0298940000    -0.3860980000    -1.2887150000
    6      C       1.1512380000    -0.1996120000    -0.6286890000
    7      C       2.3836170000    -0.3815610000    -1.2916780000
    8      C       3.6300360000    -0.1992740000    -0.6470030000
    9      C       3.6584170000     0.1736740000     0.6915320000
   10      C       2.4414410000     0.3646680000     1.3868130000
   11      C       1.1808310000     0.1915210000     0.7750850000
   12      N       0.0298660000     0.3860930000     1.4824630000
   13      C      -1.1512450000     0.1996040000     0.8224340000
   14      C      -2.3836770000     0.3815510000     1.4855060000
   15      H      -4.5557910000     0.3516580000     1.3950280000
   16      H      -4.6070810000    -0.3196140000    -1.0141010000
   17      H      -2.4434900000    -0.6569870000    -2.2420920000
   18      H       2.3413530000    -0.6737240000    -2.3397650000
   19      H       4.5559330000    -0.3516240000    -1.2010990000
   20      H       4.6069370000     0.3196580000     1.2079950000
   21      H       2.4435360000     0.6570050000     2.4357870000
   22      H      -2.3412140000     0.6736960000     2.5335620000
 ----------------------------------------------------------------

   15    -571.6690518585      3.15e-09  Convergence criterion met
 Total energy in the final basis set =     -571.9880878046

                    Orbital Energies (a.u.)
 --------------------------------------------------------------

 Alpha MOs
 -- Occupied --
-14.2706 -14.2706 -10.2048 -10.2047 -10.2044 -10.2044 -10.1763 -10.1763
-10.1757 -10.1757 -10.1655 -10.1655 -10.1654 -10.1654  -0.9384  -0.8706
 -0.8491  -0.8205  -0.7485  -0.7461  -0.7182  -0.6766  -0.6240  -0.5971
 -0.5905  -0.5559  -0.5353  -0.4867  -0.4798  -0.4701  -0.4558  -0.4306
 -0.4207  -0.4203  -0.4191  -0.3839  -0.3726  -0.3664  -0.3545  -0.3499
 -0.3283  -0.3174  -0.2843  -0.2585  -0.2562  -0.2322  -0.2121  -0.1315

          Ground-State Mulliken Net Atomic Charges

     Atom                 Charge (a.u.)
  ----------------------------------------
      1 C                     1.664227
      2 C                     1.666004
      3 C                     1.446372
      4 C                    -4.065110
      5 N                    -0.327515
      6 C                    -4.058359
      7 C                     1.443228
      8 C                     1.665090
      9 C                     1.666238
     10 C                     1.447726
     11 C                    -4.066279
     12 N                    -0.327351
     13 C                    -4.057889
     14 C                     1.442587
     15 H                     0.446989
     16 H                     0.447101
     17 H                     0.167941
     18 H                     0.168353
     19 H                     0.447097
     20 H                     0.447054
     21 H                     0.168155
     22 H                     0.168342
  ----------------------------------------
  Sum of atomic charges =    -2.000000

                    Cartesian Multipole Moments
 -----------------------------------------------------------------
    Charge (ESU x 10^10)
                -9.6064
    Dipole Moment (Debye)
         X       0.0025      Y       0.0002      Z      -0.9299
       Tot       0.9299
    Quadrupole Moments (Debye-Ang)
        XX    -140.6537     XY       0.0749     YY    -101.0394
        XZ       0.5693     YZ      -3.3941     ZZ    -112.2610

 Total job time:  335.13s(wall), 2321.34s(cpu)
        *  Thank you very much for using Q-Chem.  Have a nice day.  *
