 Gaussian 16, Revision A.03,
 Gaussian 16:  ES64L-G16RevA.03 25-Dec-2016

 --------------------------------------
 #P UB3LYP/6-311++G(d,p) nosym opt freq
 --------------------------------------

 --------
 Oxidized
 --------
 Symbolic Z-matrix:
 Charge =  0 Multiplicity = 1

 SCF Done:  E(UB3LYP) =  -652.130982713     A.U. after   21 cycles
 SCF Done:  E(UB3LYP) =  -652.178595429     A.U. after   14 cycles
 SCF Done:  E(UB3LYP) =  -652.183194257     A.U. after   15 cycles
 SCF Done:  E(UB3LYP) =  -652.194894998     A.U. after   15 cycles
 SCF Done:  E(UB3LYP) =  -652.195080431     A.U. after   16 cycles
 SCF Done:  E(UB3LYP) =  -652.196560465     A.U. after   18 cycles
 SCF Done:  E(UB3LYP) =  -652.200943245     A.U. after   17 cycles
 SCF Done:  E(UB3LYP) =  -652.202269981     A.U. after   15 cycles
 SCF Done:  E(UB3LYP) =  -652.209188437     A.U. after   16 cycles
 SCF Done:  E(UB3LYP) =  -652.211227249     A.U. after   17 cycles
 SCF Done:  E(UB3LYP) =  -652.212993992     A.U. after   12 cycles
 SCF Done:  E(UB3LYP) =  -652.213008688     A.U. after   12 cycles
 SCF Done:  E(UB3LYP) =  -652.213023205     A.U. after   12 cycles
 SCF Done:  E(UB3LYP) =  -652.213029394     A.U. after   12 cycles
 SCF Done:  E(UB3LYP) =  -652.213032916     A.U. after   11 cycles
 SCF Done:  E(UB3LYP) =  -652.213034228     A.U. after   11 cycles
 SCF Done:  E(UB3LYP) =  -652.213034683     A.U. after   10 cycles
 SCF Done:  E(UB3LYP) =  -652.213034929     A.U. after   10 cycles
 SCF Done:  E(UB3LYP) =  -652.213034975     A.U. after    9 cycles
 Optimization completed.
    -- Stationary point found.
 Normal termination of Gaussian 16 at Wed Dec 20 02:58:26 2023.

 ----------------------------------------------------------------------
 #P Geom=AllCheck Guess=TCheck SCRF=Check GenChk UB3LYP/6-311++G(d,p) F
 req
 ----------------------------------------------------------------------

 Structure from the checkpoint file:  "061.chk"
 --------
 Oxidized
 --------
 Charge =  0 Multiplicity = 1

                          Input orientation:
 ---------------------------------------------------------------------
 Center     Atomic      Atomic             Coordinates (Angstroms)
 Number     Number       Type             X           Y           Z
 ---------------------------------------------------------------------
      1          6           0       -0.246635   -0.411783    2.166055
      2          6           0       -0.651694   -1.047917    0.887605
      3          6           0       -0.282677   -0.527168   -0.289218
      4          6           0        0.535438    0.707623   -0.371807
      5          6           0        0.939891    1.358721    0.910828
      6          6           0        0.588631    0.811205    2.085982
      7          8           0       -0.586072   -0.876774    3.241319
      8          8           0        0.879173    1.162439   -1.450405
      9          1           0       -1.250481   -1.948162    0.969915
     10          1           0       -0.553425   -0.973080   -1.240010
     11          6           0        1.835225    2.586921    0.860493
     12          6           0        1.282200    3.954330    0.407515
     13          6           0       -0.233102    3.938749    0.145034
     14          6           0        1.602220    4.960170    1.536905
     15          6           0        2.041382    4.359216   -0.876755
     16          8           0        2.981756    2.459323    1.227139
     17          1           0       -0.496909    3.291854   -0.693582
     18          1           0       -0.566003    4.949165   -0.107044
     19          1           0       -0.797668    3.619814    1.025866
     20          1           0        1.065883    4.712678    2.458180
     21          1           0        1.294500    5.963383    1.229835
     22          1           0        2.670818    4.973082    1.754405
     23          1           0        1.845520    3.655688   -1.688114
     24          1           0        3.117100    4.388587   -0.693660
     25          1           0        1.715246    5.354277   -1.192986
     26          1           0        0.895303    1.236280    3.035845
 ---------------------------------------------------------------------

 SCF Done:  E(UB3LYP) =  -652.213034975     A.U. after    1 cycles

 Alpha  occ. eigenvalues --  -19.15661 -19.15234 -19.14035 -10.30462 -10.29793
 Alpha  occ. eigenvalues --  -10.28821 -10.23655 -10.22997 -10.22911 -10.22878
 Alpha  occ. eigenvalues --  -10.20971 -10.17519 -10.17343 -10.16827  -1.08860
 Alpha  occ. eigenvalues --   -1.08128  -1.07506  -0.88328  -0.83751  -0.81573
 Alpha  occ. eigenvalues --   -0.73122  -0.70402  -0.69943  -0.68042  -0.64084
 Alpha  occ. eigenvalues --   -0.61644  -0.54629  -0.54209  -0.52129  -0.50020
 Alpha  occ. eigenvalues --   -0.49324  -0.47772  -0.46360  -0.46107  -0.45933
 Alpha  occ. eigenvalues --   -0.44976  -0.43923  -0.43365  -0.42678  -0.42067
 Alpha  occ. eigenvalues --   -0.40094  -0.39057  -0.38262  -0.37951  -0.34812
 Alpha  occ. eigenvalues --   -0.34471  -0.32666  -0.31896  -0.30334  -0.29908
 Alpha  occ. eigenvalues --   -0.26914
 Alpha virt. eigenvalues --   -0.15053  -0.06194  -0.04412  -0.01467  -0.01347
 Alpha virt. eigenvalues --   -0.00523   0.00703   0.01289   0.02012   0.02246
 Alpha virt. eigenvalues --    0.03311   0.03544   0.03982   0.04554   0.04804

  Beta  occ. eigenvalues --  -19.15661 -19.15234 -19.14035 -10.30462 -10.29793
  Beta  occ. eigenvalues --  -10.28821 -10.23655 -10.22997 -10.22911 -10.22878
  Beta  occ. eigenvalues --  -10.20971 -10.17519 -10.17343 -10.16827  -1.08860
  Beta  occ. eigenvalues --   -1.08128  -1.07506  -0.88328  -0.83751  -0.81573
  Beta  occ. eigenvalues --   -0.73122  -0.70402  -0.69943  -0.68042  -0.64084
  Beta  occ. eigenvalues --   -0.61644  -0.54629  -0.54209  -0.52129  -0.50020
  Beta  occ. eigenvalues --   -0.49324  -0.47772  -0.46360  -0.46107  -0.45933
  Beta  occ. eigenvalues --   -0.44976  -0.43923  -0.43365  -0.42678  -0.42067
  Beta  occ. eigenvalues --   -0.40094  -0.39057  -0.38262  -0.37951  -0.34812
  Beta  occ. eigenvalues --   -0.34471  -0.32666  -0.31896  -0.30334  -0.29908
  Beta  occ. eigenvalues --   -0.26914
  Beta virt. eigenvalues --   -0.15053  -0.06194  -0.04412  -0.01467  -0.01347
  Beta virt. eigenvalues --   -0.00523   0.00703   0.01289   0.02012   0.02246
  Beta virt. eigenvalues --    0.03311   0.03544   0.03982   0.04554   0.04804

 Mulliken charges and spin densities:
               1          2
     1  C   -0.577064  -0.000000
     2  C    0.247901   0.000000
     3  C    0.021808  -0.000000
     4  C   -0.910742   0.000000
     5  C    1.299698  -0.000000
     6  C    0.043601   0.000000
     7  O   -0.206837   0.000000
     8  O   -0.172740  -0.000000
     9  H    0.230441   0.000000
    10  H    0.230018  -0.000000
    11  C   -0.680605  -0.000000
    12  C    0.584328  -0.000000
    13  C   -0.621701   0.000000
    14  C   -0.498048  -0.000000
    15  C   -0.533898   0.000000
    16  O   -0.153880   0.000000
    17  H    0.149327  -0.000000
    18  H    0.160934   0.000000
    19  H    0.137094  -0.000000
    20  H    0.140091  -0.000000
    21  H    0.151694   0.000000
    22  H    0.187604   0.000000
    23  H    0.186586   0.000000
    24  H    0.168359   0.000000
    25  H    0.149570  -0.000000
    26  H    0.266460  -0.000000
 Sum of Mulliken charges =  -0.00000   0.00000

 Dipole moment (field-independent basis, Debye):
    X=             -2.3422    Y=              0.7649    Z=             -1.1249  Tot=              2.7086
 Quadrupole moment (field-independent basis, Debye-Ang):
   XX=            -93.2784   YY=            -74.0242   ZZ=            -95.2968
   XY=             -3.0634   XZ=              1.2649   YZ=              5.8956

  Exact polarizability: 113.189  25.800 145.840 -10.828 -22.004 151.327
 Approx polarizability: 176.337  32.540 193.464 -34.022 -57.085 287.446

                      1                      2                      3
                      A                      A                      A
 Frequencies --     29.1551                37.1462                71.0033
 Red. masses --      3.9596                 4.2995                 4.8101
 Frc consts  --      0.0020                 0.0035                 0.0143
 IR Inten    --      1.2263                 0.4096                 4.0530

                      4                      5                      6
                      A                      A                      A
 Frequencies --    103.5124               135.1777               195.1958
 Red. masses --      8.1126                 8.9233                 4.7966
 Frc consts  --      0.0512                 0.0961                 0.1077
 IR Inten    --     10.1056                 0.7912                 1.7068

                      7                      8                      9
                      A                      A                      A
 Frequencies --    212.2754               238.7847               250.1448
 Red. masses --      1.2417                 1.6186                 3.3022
 Frc consts  --      0.0330                 0.0544                 0.1217
 IR Inten    --      0.3154                 0.7418                 0.8651

                     10                     11                     12
                      A                      A                      A
 Frequencies --    262.4099               275.9565               286.3621
 Red. masses --      2.0879                 1.4612                 1.2375
 Frc consts  --      0.0847                 0.0656                 0.0598
 IR Inten    --      1.7161                 1.4405                 0.2645

                     13                     14                     15
                      A                      A                      A
 Frequencies --    315.4921               359.1593               375.2520
 Red. masses --      4.6741                 2.6304                 2.2902
 Frc consts  --      0.2741                 0.1999                 0.1900
 IR Inten    --      1.0524                 2.0693                 0.1979

                     16                     17                     18
                      A                      A                      A
 Frequencies --    395.0315               425.8921               466.8955
 Red. masses --      3.1450                 8.1212                10.3678
 Frc consts  --      0.2892                 0.8679                 1.3316
 IR Inten    --      4.1351                21.1698                 1.3742

                     19                     20                     21
                      A                      A                      A
 Frequencies --    481.2573               519.8080               587.0359
 Red. masses --      3.3001                 4.0714                 3.9611
 Frc consts  --      0.4503                 0.6482                 0.8043
 IR Inten    --      0.2708                11.8295                 3.1728

                     22                     23                     24
                      A                      A                      A
 Frequencies --    623.0643               646.7027               722.0646
 Red. masses --      4.2927                 4.4621                 4.8875
 Frc consts  --      0.9818                 1.0995                 1.5014
 IR Inten    --      1.4595                 2.1229                 0.1154

                     25                     26                     27
                      A                      A                      A
 Frequencies --    783.9439               790.6489               824.8338
 Red. masses --      4.8705                 2.8627                 6.1661
 Frc consts  --      1.7636                 1.0544                 2.4717
 IR Inten    --      5.6288                 2.2476                 5.3891

                     28                     29                     30
                      A                      A                      A
 Frequencies --    835.5297               855.8187               932.3630
 Red. masses --      2.7581                 2.9558                 1.8864
 Frc consts  --      1.1344                 1.2755                 0.9662
 IR Inten    --      6.8983                19.8744                61.0854

                     31                     32                     33
                      A                      A                      A
 Frequencies --    937.0771               945.5083               969.8847
 Red. masses --      1.7587                 1.6315                 1.3719
 Frc consts  --      0.9099                 0.8593                 0.7603
 IR Inten    --     13.2738                 3.2523                16.9255

                     34                     35                     36
                      A                      A                      A
 Frequencies --    971.7833              1017.6743              1039.0915
 Red. masses --      2.0309                 1.2585                 1.4718
 Frc consts  --      1.1300                 0.7680                 0.9363
 IR Inten    --     47.9853                 0.0035                 0.0371

                     37                     38                     39
                      A                      A                      A
 Frequencies --   1047.5013              1097.9633              1141.1330
 Red. masses --      1.4662                 2.0470                 2.0969
 Frc consts  --      0.9479                 1.4540                 1.6088
 IR Inten    --      1.7973                 9.2941                88.8712

                     40                     41                     42
                      A                      A                      A
 Frequencies --   1213.8735              1224.5968              1246.9894
 Red. masses --      2.4530                 1.7848                 2.8881
 Frc consts  --      2.1296                 1.5770                 2.6460
 IR Inten    --      2.5916                20.7337                14.7590

                     43                     44                     45
                      A                      A                      A
 Frequencies --   1267.1074              1286.0600              1345.8365
 Red. masses --      2.6691                 3.2599                 2.1835
 Frc consts  --      2.5249                 3.1767                 2.3302
 IR Inten    --      3.9286                97.4310                42.2386

                     46                     47                     48
                      A                      A                      A
 Frequencies --   1389.1754              1392.8717              1398.8926
 Red. masses --      1.9345                 1.2056                 1.2116
 Frc consts  --      2.1995                 1.3781                 1.3969
 IR Inten    --      0.3500                 9.4735                13.1768

                     49                     50                     51
                      A                      A                      A
 Frequencies --   1429.1753              1479.3104              1491.5723
 Red. masses --      1.2209                 1.0460                 1.0461
 Frc consts  --      1.4693                 1.3486                 1.3713
 IR Inten    --     11.6990                 1.1347                 2.4669

                     52                     53                     54
                      A                      A                      A
 Frequencies --   1494.7019              1502.3369              1511.0454
 Red. masses --      1.0453                 1.0535                 1.0478
 Frc consts  --      1.3760                 1.4009                 1.4095
 IR Inten    --      0.9470                 6.8798                14.0396

                     55                     56                     57
                      A                      A                      A
 Frequencies --   1526.3160              1640.9982              1675.0046
 Red. masses --      1.0596                 8.3968                 9.0585
 Frc consts  --      1.4544                13.3223                14.9740
 IR Inten    --     26.5232                 8.1573                 3.8103

                     58                     59                     60
                      A                      A                      A
 Frequencies --   1717.6520              1725.3983              1759.9837
 Red. masses --     10.9308                 9.7919                12.4462
 Frc consts  --     19.0007                17.1749                22.7146
 IR Inten    --    233.5306               224.0211               137.2026

                     61                     62                     63
                      A                      A                      A
 Frequencies --   3024.7344              3029.1699              3033.8654
 Red. masses --      1.0363                 1.0357                 1.0369
 Frc consts  --      5.5863                 5.5991                 5.6234
 IR Inten    --     18.6265                27.3497                21.0652

                     64                     65                     66
                      A                      A                      A
 Frequencies --   3084.2346              3089.3163              3099.7328
 Red. masses --      1.1016                 1.1007                 1.0999
 Frc consts  --      6.1742                 6.1892                 6.2269
 IR Inten    --      1.6357                50.7922                16.9307

                     67                     68                     69
                      A                      A                      A
 Frequencies --   3109.9253              3117.3113              3120.0667
 Red. masses --      1.1009                 1.1028                 1.1012
 Frc consts  --      6.2731                 6.3140                 6.3162
 IR Inten    --     14.1460                 6.4964                19.4323

                     70                     71                     72
                      A                      A                      A
 Frequencies --   3176.8414              3180.0926              3194.5138
 Red. masses --      1.0875                 1.0924                 1.0993
 Frc consts  --      6.4666                 6.5088                 6.6099
 IR Inten    --      0.6057                 0.1701                 1.9660

 - Thermochemistry -
 -------------------
 Temperature   298.150 Kelvin.  Pressure   1.00000 Atm.
 Atom     1 has atomic number  6 and mass  12.00000

 Molecular mass:   192.07864 amu.
 Principal axes and moments of inertia in atomic units:
                           1         2         3
     Eigenvalues --  1464.971193813.009464412.67333
           X            0.37485   0.10905   0.92065
           Y            0.89466   0.21778  -0.39006
           Z           -0.24303   0.96989  -0.01593
 This molecule is an asymmetric top.
 Rotational symmetry number  1.
 Warning -- assumption of classical behavior for rotation
           may cause significant error
 Rotational temperatures (Kelvin)      0.05912     0.02272     0.01963
 Rotational constants (GHZ):           1.23193     0.47331     0.40899
 Zero-point vibrational energy     539421.5 (Joules/Mol)
                                  128.92484 (Kcal/Mol)
 Warning -- explicit consideration of  21 degrees of freedom as
           vibrations may cause significant error
 Vibrational temperatures:     41.95    53.45   102.16   148.93   194.49
          (Kelvin)            280.84   305.42   343.56   359.90   377.55
                              397.04   412.01   453.92   516.75   539.90
                              568.36   612.76   671.76   692.42   747.89
                              844.61   896.45   930.46  1038.89  1127.92
                             1137.57  1186.75  1202.14  1231.33  1341.46
                             1348.24  1360.38  1395.45  1398.18  1464.21
                             1495.02  1507.12  1579.72  1641.84  1746.49
                             1761.92  1794.14  1823.08  1850.35  1936.36
                             1998.71  2004.03  2012.69  2056.26  2128.40
                             2146.04  2150.54  2161.53  2174.06  2196.03
                             2361.03  2409.96  2471.32  2482.46  2532.22
                             4351.92  4358.30  4365.06  4437.53  4444.84
                             4459.82  4474.49  4485.12  4489.08  4570.77
                             4575.44  4596.19

 Zero-point correction=                           0.205455 (Hartree/Particle)
 Thermal correction to Energy=                    0.219496
 Thermal correction to Enthalpy=                  0.220440
 Thermal correction to Gibbs Free Energy=         0.164091
 Sum of electronic and zero-point Energies=           -652.007580
 Sum of electronic and thermal Energies=              -651.993539
 Sum of electronic and thermal Enthalpies=            -651.992595
 Sum of electronic and thermal Free Energies=         -652.048944

                     E (Thermal)             CV                S
                      KCal/Mol        Cal/Mol-Kelvin    Cal/Mol-Kelvin
 Total                  137.736             52.229            118.595
 Electronic               0.000              0.000              0.000
 Translational            0.889              2.981             41.664
 Rotational               0.889              2.981             31.578
 Vibrational            135.958             46.268             45.354
 Vibration     1          0.593              1.984              5.886
 Vibration     2          0.594              1.982              5.406
 Vibration     3          0.598              1.968              4.125
 Vibration     4          0.605              1.946              3.387
 Vibration     5          0.613              1.918              2.871
 Vibration     6          0.636              1.847              2.178
 Vibration     7          0.643              1.822              2.024
 Vibration     8          0.657              1.781              1.812
 Vibration     9          0.663              1.763              1.730
 Vibration    10          0.670              1.742              1.646
 Vibration    11          0.678              1.718              1.559
 Vibration    12          0.684              1.699              1.495
 Vibration    13          0.703              1.644              1.333
 Vibration    14          0.734              1.556              1.126
 Vibration    15          0.746              1.523              1.058
 Vibration    16          0.762              1.481              0.981
 Vibration    17          0.788              1.414              0.872
 Vibration    18          0.824              1.323              0.746
 Vibration    19          0.838              1.292              0.707
 Vibration    20          0.875              1.206              0.610
 Vibration    21          0.944              1.059              0.472

 Optimization completed.
    -- Stationary point found.
 Normal termination of Gaussian 16 at Wed Dec 20 03:24:28 2023.
