 Q-Chem 5.4, Q-Chem, Inc., Pleasanton, CA (2021)
 Q-Chem 5.4.0 for Intel X86 EM64T Linux

User input:
--------------------------------------------------------------
$molecule
0 1
C                  1.5733050000      1.0836470000     -1.5533840000
C                  0.1133690000      0.8876010000     -1.3357930000
C                 -0.3555930000      0.1921770000     -0.2914930000
C                  0.5789920000     -0.4215020000      0.7076270000
C                  2.0314110000     -0.2172410000      0.4773480000
C                  2.4973620000      0.4784100000     -0.5674930000
O                  1.9776240000      1.7192800000     -2.5102590000
O                  0.1769010000     -1.0566450000      1.6620730000
C                 -1.8424770000     -0.0017850000     -0.0785850000
F                 -2.5614150000      0.6028810000     -1.0504960000
F                 -2.1750950000     -1.3051010000     -0.0917420000
F                 -2.2434210000      0.5203150000      1.0944670000
H                 -0.5411630000      1.3403070000     -2.0709430000
H                  2.6825230000     -0.6719670000      1.2156350000
H                  3.5558180000      0.6329440000     -0.7443600000
$end
$rem
MAX_SCF_CYCLES=200
BASIS  =  6-311++G(d,p)
GUI  =  2
JOB_TYPE  =  SP
METHOD  =  B3LYP
SOLVENT_METHOD = PCM
$end
$pcm
theory = CPCM
$end
$solvent
dielectric 37.219
opticaldielectric 1.43
$end

--------------------------------------------------------------

             Standard Nuclear Orientation (Angstroms)
    I     Atom           X                Y                Z
 ----------------------------------------------------------------
    1      C       1.5733050000     1.0836470000    -1.5533840000
    2      C       0.1133690000     0.8876010000    -1.3357930000
    3      C      -0.3555930000     0.1921770000    -0.2914930000
    4      C       0.5789920000    -0.4215020000     0.7076270000
    5      C       2.0314110000    -0.2172410000     0.4773480000
    6      C       2.4973620000     0.4784100000    -0.5674930000
    7      O       1.9776240000     1.7192800000    -2.5102590000
    8      O       0.1769010000    -1.0566450000     1.6620730000
    9      C      -1.8424770000    -0.0017850000    -0.0785850000
   10      F      -2.5614150000     0.6028810000    -1.0504960000
   11      F      -2.1750950000    -1.3051010000    -0.0917420000
   12      F      -2.2434210000     0.5203150000     1.0944670000
   13      H      -0.5411630000     1.3403070000    -2.0709430000
   14      H       2.6825230000    -0.6719670000     1.2156350000
   15      H       3.5558180000     0.6329440000    -0.7443600000
 ----------------------------------------------------------------

    9    -718.7166083614      4.44e-06  Convergence criterion met
 Total energy in the final basis set =     -718.7166083614

                    Orbital Energies (a.u.)
 --------------------------------------------------------------

 Alpha MOs
 -- Occupied --
-24.7333 -24.7333 -24.7326 -19.1579 -19.1575 -10.4552 -10.3070 -10.3018
-10.2468 -10.2357 -10.2216 -10.2201  -1.3417  -1.2536  -1.2518  -1.0918
 -1.0872  -0.8878  -0.8256  -0.7526  -0.7152  -0.6646  -0.6427  -0.6208
 -0.6146  -0.5783  -0.5378  -0.5201  -0.4977  -0.4971  -0.4928  -0.4709
 -0.4678  -0.4550  -0.4534  -0.4467  -0.4372  -0.4330  -0.4329  -0.4166
 -0.3331  -0.3173  -0.3075  -0.2955

          Ground-State Mulliken Net Atomic Charges

     Atom                 Charge (a.u.)
  ----------------------------------------
      1 C                    -0.485919
      2 C                    -0.451278
      3 C                     0.439374
      4 C                    -0.380488
      5 C                     0.028652
      6 C                     0.269906
      7 O                    -0.273934
      8 O                    -0.268669
      9 C                     0.638026
     10 F                    -0.162790
     11 F                    -0.077053
     12 F                    -0.077057
     13 H                     0.260916
     14 H                     0.269189
     15 H                     0.271125
  ----------------------------------------
  Sum of atomic charges =     0.000000

                    Cartesian Multipole Moments
 -----------------------------------------------------------------
    Charge (ESU x 10^10)
                 0.0000
    Dipole Moment (Debye)
         X       3.1626      Y       0.4906      Z      -0.5674
       Tot       3.2503
    Quadrupole Moments (Debye-Ang)
        XX     -64.2239     XY      -4.9591     YY     -71.0921
        XZ       7.8433     YZ       7.1770     ZZ     -76.8749

 Total job time:  13.99s(wall), 101.86s(cpu)
        *  Thank you very much for using Q-Chem.  Have a nice day.  *
