 Gaussian 16, Revision A.03,
 Gaussian 16:  ES64L-G16RevA.03 25-Dec-2016

 --------------------------------------
 #P UB3LYP/6-311++G(d,p) nosym opt freq
 --------------------------------------

 -------
 Radical
 -------
 Symbolic Z-matrix:
 Charge = -1 Multiplicity = 2

 SCF Done:  E(UB3LYP) =  -846.508485578     A.U. after   23 cycles
 SCF Done:  E(UB3LYP) =  -846.531719961     A.U. after   17 cycles
 SCF Done:  E(UB3LYP) =  -846.536387498     A.U. after   18 cycles
 SCF Done:  E(UB3LYP) =  -846.538140773     A.U. after   15 cycles
 SCF Done:  E(UB3LYP) =  -846.538270092     A.U. after   14 cycles
 SCF Done:  E(UB3LYP) =  -846.538285483     A.U. after   14 cycles
 SCF Done:  E(UB3LYP) =  -846.538286671     A.U. after   12 cycles
 SCF Done:  E(UB3LYP) =  -846.538286864     A.U. after   10 cycles
 Optimization completed.
    -- Stationary point found.
 Normal termination of Gaussian 16 at Tue Dec 26 21:29:35 2023.

 ----------------------------------------------------------------------
 #P Geom=AllCheck Guess=TCheck SCRF=Check GenChk UB3LYP/6-311++G(d,p) F
 req
 ----------------------------------------------------------------------

 Structure from the checkpoint file:  "284-rad.chk"
 -------
 Radical
 -------
 Charge = -1 Multiplicity = 2

                          Input orientation:
 ---------------------------------------------------------------------
 Center     Atomic      Atomic             Coordinates (Angstroms)
 Number     Number       Type             X           Y           Z
 ---------------------------------------------------------------------
      1          6           0       -0.163794    3.976527    0.069620
      2          6           0       -1.227579    3.464940    0.788631
      3          6           0       -1.292915    2.083871    1.066771
      4          6           0        0.867343    3.130293   -0.394608
      5          6           0        0.803399    1.737206   -0.115021
      6          6           0       -0.289025    1.241164    0.618160
      7          6           0        1.981413    3.656801   -1.146401
      8          6           0        2.997704    2.719195   -1.586188
      9          6           0        2.969401    1.361892   -1.333362
     10          6           0        1.855938    0.811597   -0.577743
     11          8           0        2.139190    4.885181   -1.453345
     12          8           0        1.784746   -0.418321   -0.322562
     13          1           0       -0.091152    5.034253   -0.156905
     14          1           0       -2.014451    4.126168    1.140198
     15          1           0       -2.129334    1.683184    1.631754
     16          1           0       -0.313297    0.175787    0.817291
     17          8           0        3.994199    3.338140   -2.284762
     18          6           0        4.001834    0.339968   -1.767266
     19          6           0        5.225393    0.794645   -2.571757
     20          6           0        6.149321   -0.381272   -2.913125
     21          6           0        7.388350    0.024115   -3.719607
     22          6           0        8.316583   -1.146382   -4.063772
     23          6           0        9.551247   -0.729871   -4.869934
     24          1           0        3.689178    4.275404   -2.266571
     25          1           0        3.472457   -0.439820   -2.331482
     26          1           0        4.342280   -0.183873   -0.863757
     27          1           0        5.786984    1.548693   -2.012240
     28          1           0        4.908552    1.288930   -3.494972
     29          1           0        5.584613   -1.137183   -3.476081
     30          1           0        6.469209   -0.874896   -1.985099
     31          1           0        7.954125    0.779368   -3.157905
     32          1           0        7.070100    0.516490   -4.648214
     33          1           0        7.752074   -1.900874   -4.625989
     34          1           0        8.636097   -1.637787   -3.136175
     35          1           0        9.264138   -0.265997   -5.819499
     36          1           0       10.192834   -1.586870   -5.099089
     37          1           0       10.154445   -0.000717   -4.318795
 ---------------------------------------------------------------------

 SCF Done:  E(UB3LYP) =  -846.538286864     A.U. after    1 cycles

 Alpha  occ. eigenvalues --  -19.01265 -18.95523 -18.94134 -10.09646 -10.09329
 Alpha  occ. eigenvalues --  -10.09283 -10.09239 -10.09076 -10.08011 -10.06829
 Alpha  occ. eigenvalues --  -10.05698 -10.05518 -10.05103 -10.05069 -10.04910
 Alpha  occ. eigenvalues --  -10.04903 -10.04702 -10.04693 -10.04066  -0.93483
 Alpha  occ. eigenvalues --   -0.86738  -0.86389  -0.73592  -0.72321  -0.68984
 Alpha  occ. eigenvalues --   -0.67011  -0.63544  -0.62897  -0.60218  -0.55991
 Alpha  occ. eigenvalues --   -0.53555  -0.50633  -0.49528  -0.48744  -0.46266
 Alpha  occ. eigenvalues --   -0.44317  -0.41075  -0.39790  -0.38231  -0.36168
 Alpha  occ. eigenvalues --   -0.35814  -0.35366  -0.33579  -0.32988  -0.32671
 Alpha  occ. eigenvalues --   -0.31981  -0.30533  -0.29871  -0.29315  -0.28731
 Alpha  occ. eigenvalues --   -0.27871  -0.27267  -0.26996  -0.26176  -0.25968
 Alpha  occ. eigenvalues --   -0.25164  -0.24829  -0.23950  -0.23346  -0.22110
 Alpha  occ. eigenvalues --   -0.22094  -0.21514  -0.21057  -0.20403  -0.14151
 Alpha  occ. eigenvalues --   -0.13459  -0.12998  -0.10602  -0.10174  -0.02074
 Alpha virt. eigenvalues --    0.05392   0.07678   0.08138   0.08292   0.08372
 Alpha virt. eigenvalues --    0.08933   0.10237   0.10654   0.10880   0.11075
 Alpha virt. eigenvalues --    0.11407   0.11679   0.11991   0.12841   0.13403

  Beta  occ. eigenvalues --  -19.01230 -18.94860 -18.93588 -10.09561 -10.09329
  Beta  occ. eigenvalues --  -10.09239 -10.09184 -10.08800 -10.08011 -10.06829
  Beta  occ. eigenvalues --  -10.05694 -10.05414 -10.05069 -10.05060 -10.04950
  Beta  occ. eigenvalues --  -10.04874 -10.04710 -10.04556 -10.03981  -0.93281
  Beta  occ. eigenvalues --   -0.85801  -0.85285  -0.73361  -0.72319  -0.68820
  Beta  occ. eigenvalues --   -0.66756  -0.63378  -0.62703  -0.60114  -0.55647
  Beta  occ. eigenvalues --   -0.52990  -0.50566  -0.49364  -0.48694  -0.46003
  Beta  occ. eigenvalues --   -0.44100  -0.40930  -0.39789  -0.38009  -0.36035
  Beta  occ. eigenvalues --   -0.35789  -0.35178  -0.33460  -0.32930  -0.32608
  Beta  occ. eigenvalues --   -0.31736  -0.30481  -0.29153  -0.28940  -0.28603
  Beta  occ. eigenvalues --   -0.27500  -0.26952  -0.26787  -0.25918  -0.25164
  Beta  occ. eigenvalues --   -0.25092  -0.24680  -0.23864  -0.22716  -0.22045
  Beta  occ. eigenvalues --   -0.21412  -0.20763  -0.20238  -0.19738  -0.12779
  Beta  occ. eigenvalues --   -0.12405  -0.12048  -0.10078  -0.09217
  Beta virt. eigenvalues --    0.04464   0.05391   0.07675   0.08136   0.08286
  Beta virt. eigenvalues --    0.08368   0.09591   0.10230   0.10664   0.10880
  Beta virt. eigenvalues --    0.11108   0.11674   0.11991   0.12481   0.12843

 Mulliken charges and spin densities:
               1          2
     1  C    0.047847   0.075368
     2  C   -0.312420   0.004451
     3  C   -0.417224   0.081117
     4  C    0.204918   0.020515
     5  C    0.696178   0.088066
     6  C    0.095734  -0.017797
     7  C   -1.163431   0.162014
     8  C   -1.299793   0.040058
     9  C    1.398777   0.053211
    10  C   -0.740787   0.049013
    11  O   -0.445059   0.244736
    12  O   -0.351323   0.205424
    13  H    0.158219  -0.003651
    14  H    0.119922  -0.000645
    15  H    0.122151  -0.006427
    16  H    0.160660   0.000778
    17  O   -0.239811   0.013821
    18  C    0.147789  -0.007780
    19  C    0.098005  -0.008111
    20  C   -0.304574  -0.002922
    21  C   -0.092331  -0.000227
    22  C   -0.223976   0.000040
    23  C   -0.677144  -0.000006
    24  H    0.271553  -0.004354
    25  H    0.170075   0.005342
    26  H    0.170031   0.005344
    27  H    0.162466   0.001136
    28  H    0.162267   0.001135
    29  H    0.113476   0.000252
    30  H    0.113424   0.000252
    31  H    0.108735  -0.000058
    32  H    0.108659  -0.000057
    33  H    0.121670  -0.000020
    34  H    0.121662  -0.000020
    35  H    0.131989   0.000001
    36  H    0.129657  -0.000001
    37  H    0.132006   0.000001
 Sum of Mulliken charges =  -1.00000   1.00000

 Dipole moment (field-independent basis, Debye):
    X=            -10.0958    Y=             -9.9702    Z=              4.5321  Tot=             14.8953
 Quadrupole moment (field-independent basis, Debye-Ang):
   XX=           -159.5217   YY=           -169.9678   ZZ=           -131.2070
   XY=            -17.7871   XZ=             19.5644   YZ=             12.5406

  Exact polarizability: 268.519 -27.515 243.746 -76.921  -3.346 176.816
 Approx polarizability: 355.267  -5.678 428.780 -85.821 -34.832 265.701

 ******    1 imaginary frequencies (negative Signs) ******

                      1                      2                      3
                      A                      A                      A
 Frequencies --    -32.9772                41.6970                45.7994
 Red. masses --      2.8801                 2.0899                 4.4200
 Frc consts  --      0.0018                 0.0021                 0.0055
 IR Inten    --      0.1237                 0.4690                 0.4568

                      4                      5                      6
                      A                      A                      A
 Frequencies --     54.3576                77.0180               108.1486
 Red. masses --      2.4775                 4.0289                 3.0339
 Frc consts  --      0.0043                 0.0141                 0.0209
 IR Inten    --      0.2951                 4.9260                 0.1265

                      7                      8                      9
                      A                      A                      A
 Frequencies --    136.1867               140.8084               146.9479
 Red. masses --      2.5341                 2.2707                 3.9356
 Frc consts  --      0.0277                 0.0265                 0.0501
 IR Inten    --      0.1652                 0.0568                 1.5165

                     10                     11                     12
                      A                      A                      A
 Frequencies --    165.2057               178.6696               184.1768
 Red. masses --      4.2054                 6.1586                 4.9740
 Frc consts  --      0.0676                 0.1158                 0.0994
 IR Inten    --      0.2829                 0.9836                 2.9147

                     13                     14                     15
                      A                      A                      A
 Frequencies --    243.7915               258.0226               290.9731
 Red. masses --      1.1215                 4.8025                 4.1181
 Frc consts  --      0.0393                 0.1884                 0.2054
 IR Inten    --      0.0005                 1.6322                 1.0558

                     16                     17                     18
                      A                      A                      A
 Frequencies --    304.1116               366.8853               382.0039
 Red. masses --      4.7460                 5.4432                 9.9745
 Frc consts  --      0.2586                 0.4317                 0.8576
 IR Inten    --      0.0182                 5.6314                15.2612

                     19                     20                     21
                      A                      A                      A
 Frequencies --    410.0264               412.8903               424.5515
 Red. masses --      6.0259                 4.2191                 6.8597
 Frc consts  --      0.5969                 0.4238                 0.7285
 IR Inten    --      0.0224                11.7109                 1.2116

                     22                     23                     24
                      A                      A                      A
 Frequencies --    443.6340               451.5810               490.5148
 Red. masses --      3.6128                 3.5336                 7.2690
 Frc consts  --      0.4189                 0.4246                 1.0305
 IR Inten    --      1.4258                 1.8273                 1.7771

                     25                     26                     27
                      A                      A                      A
 Frequencies --    538.4376               542.1246               644.8108
 Red. masses --      4.3854                 6.8298                 6.1887
 Frc consts  --      0.7491                 1.1826                 1.5161
 IR Inten    --      2.1321                 0.1011                14.2308

                     28                     29                     30
                      A                      A                      A
 Frequencies --    674.4060               681.2731               701.1693
 Red. masses --      6.0674                 3.6842                 3.5412
 Frc consts  --      1.6259                 1.0075                 1.0257
 IR Inten    --      4.2849                 7.6320                17.4904

                     31                     32                     33
                      A                      A                      A
 Frequencies --    724.8895               730.1212               739.7494
 Red. masses --      6.8814                 1.0878                 1.2768
 Frc consts  --      2.1305                 0.3416                 0.4117
 IR Inten    --      0.2637                 2.4969                 0.4500

                     34                     35                     36
                      A                      A                      A
 Frequencies --    749.8420               765.3081               773.0609
 Red. masses --      1.5219                 1.5041                 1.7005
 Frc consts  --      0.5042                 0.5190                 0.5988
 IR Inten    --     95.3183                32.3687                 3.9648

                     37                     38                     39
                      A                      A                      A
 Frequencies --    797.0796               860.0025               869.7148
 Red. masses --      1.4296                 1.3911                 5.1812
 Frc consts  --      0.5351                 0.6062                 2.3091
 IR Inten    --      0.9359                 0.0185                16.6628

                     40                     41                     42
                      A                      A                      A
 Frequencies --    886.3585               897.2993               938.3069
 Red. masses --      1.2778                 2.1037                 6.0080
 Frc consts  --      0.5915                 0.9980                 3.1165
 IR Inten    --      0.3664                 5.8655                30.2917

                     43                     44                     45
                      A                      A                      A
 Frequencies --    968.5635               978.3688               995.2044
 Red. masses --      1.3111                 1.2952                 1.2106
 Frc consts  --      0.7247                 0.7304                 0.7064
 IR Inten    --      1.3514                 1.2161                 0.0709

                     46                     47                     48
                      A                      A                      A
 Frequencies --   1005.0422              1033.7829              1040.1381
 Red. masses --      3.9720                 2.3459                 3.1365
 Frc consts  --      2.3639                 1.4771                 1.9993
 IR Inten    --     11.3824                17.0814                 8.7788

                     49                     50                     51
                      A                      A                      A
 Frequencies --   1055.6025              1065.8686              1083.6484
 Red. masses --      2.6434                 2.2624                 4.4990
 Frc consts  --      1.7354                 1.5143                 3.1128
 IR Inten    --      4.0629                 1.0518                51.2213

                     52                     53                     54
                      A                      A                      A
 Frequencies --   1108.5154              1130.5765              1134.1865
 Red. masses --      2.0176                 2.5251                 1.4194
 Frc consts  --      1.4607                 1.9017                 1.0758
 IR Inten    --      3.0769                 5.7142                 0.1757

                     55                     56                     57
                      A                      A                      A
 Frequencies --   1151.3651              1168.6392              1203.7418
 Red. masses --      1.3057                 3.2691                 2.3038
 Frc consts  --      1.0198                 2.6305                 1.9668
 IR Inten    --      2.2859                20.8603                26.0781

                     58                     59                     60
                      A                      A                      A
 Frequencies --   1220.9858              1238.3006              1251.9274
 Red. masses --      1.5630                 2.1834                 1.7858
 Frc consts  --      1.3729                 1.9726                 1.6490
 IR Inten    --      0.0008                 2.3461                37.3482

                     61                     62                     63
                      A                      A                      A
 Frequencies --   1275.1382              1276.7134              1313.8565
 Red. masses --      1.9349                 1.2832                 1.5061
 Frc consts  --      1.8537                 1.2324                 1.5318
 IR Inten    --     33.8196                 0.1107                 2.0571

                     64                     65                     66
                      A                      A                      A
 Frequencies --   1316.5723              1324.6666              1332.7039
 Red. masses --      1.1428                 1.0534                 1.0898
 Frc consts  --      1.1671                 1.0891                 1.1404
 IR Inten    --      0.0245                 0.0866                 0.6080

                     67                     68                     69
                      A                      A                      A
 Frequencies --   1346.9004              1356.3214              1367.4865
 Red. masses --      2.1205                 5.9062                 1.6058
 Frc consts  --      2.2665                 6.4015                 1.7692
 IR Inten    --      8.4595                31.7046                29.2938

                     70                     71                     72
                      A                      A                      A
 Frequencies --   1392.1827              1399.9610              1407.0324
 Red. masses --      1.6034                 1.6051                 1.2624
 Frc consts  --      1.8309                 1.8534                 1.4725
 IR Inten    --     13.7646                 7.3404                 1.4344

                     73                     74                     75
                      A                      A                      A
 Frequencies --   1435.0566              1464.2204              1472.9223
 Red. masses --      2.3502                 2.1387                 1.2780
 Frc consts  --      2.8517                 2.7016                 1.6335
 IR Inten    --    453.3249                20.6114                 0.7620

                     76                     77                     78
                      A                      A                      A
 Frequencies --   1481.3907              1484.0386              1485.8071
 Red. masses --      1.2763                 1.5667                 1.2864
 Frc consts  --      1.6503                 2.0329                 1.6733
 IR Inten    --     23.8000                62.2272                38.5141

                     79                     80                     81
                      A                      A                      A
 Frequencies --   1493.7508              1497.4454              1503.8874
 Red. masses --      1.0852                 1.0402                 1.0843
 Frc consts  --      1.4267                 1.3743                 1.4449
 IR Inten    --      4.6846                 6.7811                 1.6382

                     82                     83                     84
                      A                      A                      A
 Frequencies --   1512.2689              1526.3314              1540.5960
 Red. masses --      1.0948                 5.9138                 5.8651
 Frc consts  --      1.4752                 8.1174                 8.2017
 IR Inten    --      9.0276               430.9119                22.0867

                     85                     86                     87
                      A                      A                      A
 Frequencies --   1582.1929              1620.9622              1639.0452
 Red. masses --      5.3007                 5.6593                 5.5581
 Frc consts  --      7.8182                 8.7612                 8.7975
 IR Inten    --     19.5035                12.8844                 7.2018

                     88                     89                     90
                      A                      A                      A
 Frequencies --   2981.2101              2989.0698              2990.2413
 Red. masses --      1.0578                 1.0583                 1.0590
 Frc consts  --      5.5390                 5.5707                 5.5791
 IR Inten    --      3.0169                 4.1160                47.2618

                     91                     92                     93
                      A                      A                      A
 Frequencies --   2997.3100              2999.9622              3001.2351
 Red. masses --      1.0996                 1.0989                 1.0598
 Frc consts  --      5.8204                 5.8269                 5.6244
 IR Inten    --     12.3212                 9.6043                77.4478

                     94                     95                     96
                      A                      A                      A
 Frequencies --   3009.3423              3013.4963              3034.3836
 Red. masses --      1.0349                 1.1024                 1.0596
 Frc consts  --      5.5222                 5.8985                 5.7483
 IR Inten    --     57.5715                 2.8257                29.9827

                     97                     98                     99
                      A                      A                      A
 Frequencies --   3036.2665              3068.1662              3070.3179
 Red. masses --      1.1050                 1.1009                 1.1028
 Frc consts  --      6.0021                 6.1058                 6.1252
 IR Inten    --     46.3922                63.0003                17.9615

                    100                    101                    102
                      A                      A                      A
 Frequencies --   3072.7503              3132.8098              3152.1351
 Red. masses --      1.1039                 1.0846                 1.0909
 Frc consts  --      6.1407                 6.2715                 6.3864
 IR Inten    --    126.6105                15.9826                50.0164

                    103                    104                    105
                      A                      A                      A
 Frequencies --   3179.8281              3182.8073              3424.4950
 Red. masses --      1.0916                 1.0928                 1.0635
 Frc consts  --      6.5029                 6.5226                 7.3483
 IR Inten    --     14.4954                25.9761               129.8549

 - Thermochemistry -
 -------------------
 Temperature   298.150 Kelvin.  Pressure   1.00000 Atm.
 Atom     1 has atomic number  6 and mass  12.00000

 Molecular mass:   258.12559 amu.
 Principal axes and moments of inertia in atomic units:
                           1         2         3
     Eigenvalues --  1822.53300********************
           X            0.83284   0.22851   0.50414
           Y           -0.34394   0.92727   0.14789
           Z           -0.43369  -0.29656   0.85086
 This molecule is an asymmetric top.
 Rotational symmetry number  1.
 Warning -- assumption of classical behavior for rotation
           may cause significant error
 Rotational temperatures (Kelvin)      0.04752     0.00681     0.00598
 Rotational constants (GHZ):           0.99024     0.14182     0.12462
    1 imaginary frequencies ignored.
 Zero-point vibrational energy     797261.4 (Joules/Mol)
                                  190.55004 (Kcal/Mol)
 Warning -- explicit consideration of  25 degrees of freedom as
           vibrations may cause significant error
 Vibrational temperatures:     59.99    65.90    78.21   110.81   155.60
          (Kelvin)            195.94   202.59   211.43   237.69   257.07
                              264.99   350.76   371.24   418.65   437.55
                              527.87   549.62   589.94   594.06   610.83
                              638.29   649.72   705.74   774.69   780.00
                              927.74   970.32   980.20  1008.83  1042.95
                             1050.48  1064.33  1078.86  1101.11  1112.26
                             1146.82  1237.35  1251.33  1275.27  1291.01
                             1350.01  1393.55  1407.65  1431.88  1446.03
                             1487.38  1496.53  1518.78  1533.55  1559.13
                             1594.91  1626.65  1631.84  1656.56  1681.41
                             1731.92  1756.73  1781.64  1801.24  1834.64
                             1836.91  1890.35  1894.25  1905.90  1917.46
                             1937.89  1951.44  1967.51  2003.04  2014.23
                             2024.41  2064.73  2106.69  2119.21  2131.39
                             2135.20  2137.75  2149.17  2154.49  2163.76
                             2175.82  2196.05  2216.57  2276.42  2332.20
                             2358.22  4289.30  4300.60  4302.29  4312.46
                             4316.28  4318.11  4329.77  4335.75  4365.80
                             4368.51  4414.41  4417.50  4421.00  4507.41
                             4535.22  4575.06  4579.35  4927.08

 Zero-point correction=                           0.303661 (Hartree/Particle)
 Thermal correction to Energy=                    0.320895
 Thermal correction to Enthalpy=                  0.321839
 Thermal correction to Gibbs Free Energy=         0.257369
 Sum of electronic and zero-point Energies=           -846.234626
 Sum of electronic and thermal Energies=              -846.217392
 Sum of electronic and thermal Enthalpies=            -846.216448
 Sum of electronic and thermal Free Energies=         -846.280918

                     E (Thermal)             CV                S
                      KCal/Mol        Cal/Mol-Kelvin    Cal/Mol-Kelvin
 Total                  201.365             66.710            135.689
 Electronic               0.000              0.000              1.377
 Translational            0.889              2.981             42.545
 Rotational               0.889              2.981             34.173
 Vibrational            199.587             60.748             57.594
 Vibration     1          0.594              1.981              5.177
 Vibration     2          0.595              1.979              4.991
 Vibration     3          0.596              1.976              4.652
 Vibration     4          0.599              1.964              3.965
 Vibration     5          0.606              1.943              3.302
 Vibration     6          0.614              1.917              2.857
 Vibration     7          0.615              1.912              2.793
 Vibration     8          0.617              1.906              2.711
 Vibration     9          0.624              1.885              2.489
 Vibration    10          0.629              1.869              2.342
 Vibration    11          0.631              1.861              2.286
 Vibration    12          0.659              1.773              1.775
 Vibration    13          0.667              1.749              1.675
 Vibration    14          0.687              1.691              1.468
 Vibration    15          0.695              1.666              1.394
 Vibration    16          0.740              1.540              1.093
 Vibration    17          0.751              1.509              1.031
 Vibration    18          0.774              1.448              0.927
 Vibration    19          0.777              1.442              0.916
 Vibration    20          0.787              1.417              0.877
 Vibration    21          0.803              1.375              0.815
 Vibration    22          0.810              1.357              0.791
 Vibration    23          0.846              1.271              0.682
 Vibration    24          0.893              1.165              0.569
 Vibration    25          0.897              1.157              0.561

                           ! Non-Optimized Parameters !
 Normal termination of Gaussian 16 at Tue Dec 26 23:44:03 2023.
