 Gaussian 16, Revision A.03,
 Gaussian 16:  ES64L-G16RevA.03 25-Dec-2016

 ----------------------------------------------
 #P UB3LYP/6-311++G(d,p) nosym opt freq SCF=YQC
 ----------------------------------------------

 -------
 Reduced
 -------
 Symbolic Z-matrix:
 Charge = -2 Multiplicity = 1

 SCF Done:  E(UB3LYP) =  -880.853251060     a.u. after   15 cycles
 SCF Done:  E(UB3LYP) =  -880.844678012     A.U. after   33 cycles
 SCF Done:  E(UB3LYP) =  -880.861876709     a.u. after   21 cycles
 SCF Done:  E(UB3LYP) =  -880.880402219     a.u. after   34 cycles
 SCF Done:  E(UB3LYP) =  -880.881301515     A.U. after   33 cycles
 SCF Done:  E(UB3LYP) =  -880.881301515     a.u. after    1 cycles
 SCF Done:  E(UB3LYP) =  -880.883842886     a.u. after   43 cycles
 SCF Done:  E(UB3LYP) =  -880.884079616     A.U. after   26 cycles
 SCF Done:  E(UB3LYP) =  -880.884139104     a.u. after   14 cycles
 SCF Done:  E(UB3LYP) =  -880.884257272     A.U. after   27 cycles
 SCF Done:  E(UB3LYP) =  -880.885243087     a.u. after   64 cycles
 SCF Done:  E(UB3LYP) =  -880.885459953     A.U. after   27 cycles
 SCF Done:  E(UB3LYP) =  -880.885337612     a.u. after    1 cycles
 SCF Done:  E(UB3LYP) =  -880.885463255     A.U. after   27 cycles
 SCF Done:  E(UB3LYP) =  -880.885398455     a.u. after    1 cycles
 SCF Done:  E(UB3LYP) =  -880.885463397     A.U. after   29 cycles
 SCF Done:  E(UB3LYP) =  -880.885461607     a.u. after    1 cycles
 SCF Done:  E(UB3LYP) =  -880.885463425     A.U. after   27 cycles
 Optimization completed.
    -- Stationary point found.
 Normal termination of Gaussian 16 at Sat Jan  6 15:36:12 2024.

 ----------------------------------------------------------------------
 #P Geom=AllCheck Guess=TCheck SCRF=Check GenChk UB3LYP/6-311++G(d,p) F
 req
 ----------------------------------------------------------------------

 Structure from the checkpoint file:  "328-an.chk"
 -------
 Reduced
 -------
 Charge = -2 Multiplicity = 1

                          Input orientation:
 ---------------------------------------------------------------------
 Center     Atomic      Atomic             Coordinates (Angstroms)
 Number     Number       Type             X           Y           Z
 ---------------------------------------------------------------------
      1          6           0       -1.197336    2.636707   -0.603777
      2          6           0       -2.262407    2.008850   -0.004808
      3          6           0       -2.131368    0.657831    0.452672
      4          6           0        0.057235    1.982114   -0.793625
      5          6           0        0.186316    0.606054   -0.334571
      6          6           0       -0.940031   -0.008437    0.285710
      7          6           0        1.157725    2.597526   -1.400174
      8          6           0        2.389900    1.960017   -1.587849
      9          6           0        2.509869    0.570595   -1.122378
     10          6           0        1.411315   -0.049881   -0.518529
     11          6           0        3.481056    2.692964   -2.225215
     12          6           0        4.762454    1.955936   -2.402859
     13          6           0        4.803216    0.587663   -1.932510
     14          6           0        3.752232   -0.078302   -1.330426
     15          8           0        3.342081    3.891192   -2.604131
     16          8           0        5.780829    2.481041   -2.937856
     17          1           0       -1.293820    3.663379   -0.950213
     18          1           0       -3.205452    2.533322    0.125681
     19          1           0       -2.974000    0.164117    0.929226
     20          1           0       -0.837708   -1.034654    0.632752
     21          1           0        1.083340    3.622702   -1.751833
     22          1           0        1.516886   -1.074936   -0.177468
     23          1           0        5.758109    0.096872   -2.089701
     24          8           0        3.811231   -1.420258   -0.927043
     25          6           0        5.087878   -2.019027   -0.818278
     26          6           0        4.919669   -3.439766   -0.366041
     27          6           0        5.689652   -4.048689    0.533980
     28          1           0        5.728165   -1.460032   -0.120049
     29          1           0        5.591438   -2.010924   -1.797189
     30          1           0        4.113746   -3.985985   -0.852486
     31          1           0        6.490551   -3.520845    1.045307
     32          1           0        5.555208   -5.093643    0.800412
 ---------------------------------------------------------------------

 SCF Done:  E(UB3LYP) =  -880.885463425     a.u. after    1 cycles
 SCF Done:  E(UB3LYP) =  -880.885463425     A.U. after    6 cycles

 Alpha  occ. eigenvalues --  -18.94000 -18.80983 -18.80901 -10.03976 -10.00713
 Alpha  occ. eigenvalues --   -9.99691  -9.99416  -9.97761  -9.97678  -9.97599
 Alpha  occ. eigenvalues --   -9.97559  -9.96647  -9.96414  -9.96288  -9.96186
 Alpha  occ. eigenvalues --   -9.95330  -9.95007  -9.94395  -9.93488  -9.92711
 Alpha  occ. eigenvalues --   -0.84997  -0.74111  -0.71360  -0.65931  -0.62420
 Alpha  occ. eigenvalues --   -0.60781  -0.56626  -0.56201  -0.51878  -0.50395
 Alpha  occ. eigenvalues --   -0.49860  -0.43643  -0.42142  -0.39278  -0.38502
 Alpha  occ. eigenvalues --   -0.37977  -0.34824  -0.31652  -0.30827  -0.29965
 Alpha  occ. eigenvalues --   -0.29361  -0.27465  -0.25873  -0.24753  -0.24314
 Alpha  occ. eigenvalues --   -0.22626  -0.22248  -0.20743  -0.19763  -0.18910
 Alpha  occ. eigenvalues --   -0.18397  -0.17806  -0.16710  -0.16035  -0.15161
 Alpha  occ. eigenvalues --   -0.14453  -0.13497  -0.13158  -0.11636  -0.10767
 Alpha  occ. eigenvalues --   -0.10515  -0.09454  -0.08171  -0.06683  -0.04339
 Alpha  occ. eigenvalues --   -0.00448   0.00660   0.01314   0.03531   0.11167
 Alpha virt. eigenvalues --    0.12369   0.13473   0.15068   0.15214   0.15394
 Alpha virt. eigenvalues --    0.16038   0.16407   0.17287   0.18188   0.19045
 Alpha virt. eigenvalues --    0.19928   0.20301   0.20801   0.21176   0.21873

  Beta  occ. eigenvalues --  -18.94000 -18.80983 -18.80901 -10.03976 -10.00713
  Beta  occ. eigenvalues --   -9.99691  -9.99416  -9.97761  -9.97678  -9.97599
  Beta  occ. eigenvalues --   -9.97559  -9.96647  -9.96414  -9.96288  -9.96186
  Beta  occ. eigenvalues --   -9.95330  -9.95007  -9.94395  -9.93488  -9.92711
  Beta  occ. eigenvalues --   -0.84997  -0.74111  -0.71360  -0.65931  -0.62420
  Beta  occ. eigenvalues --   -0.60781  -0.56626  -0.56201  -0.51878  -0.50395
  Beta  occ. eigenvalues --   -0.49860  -0.43643  -0.42142  -0.39278  -0.38502
  Beta  occ. eigenvalues --   -0.37977  -0.34824  -0.31652  -0.30827  -0.29965
  Beta  occ. eigenvalues --   -0.29361  -0.27465  -0.25873  -0.24753  -0.24314
  Beta  occ. eigenvalues --   -0.22626  -0.22248  -0.20743  -0.19763  -0.18910
  Beta  occ. eigenvalues --   -0.18397  -0.17806  -0.16710  -0.16035  -0.15161
  Beta  occ. eigenvalues --   -0.14453  -0.13497  -0.13158  -0.11636  -0.10767
  Beta  occ. eigenvalues --   -0.10515  -0.09454  -0.08171  -0.06683  -0.04339
  Beta  occ. eigenvalues --   -0.00448   0.00660   0.01314   0.03531   0.11167
  Beta virt. eigenvalues --    0.12369   0.13473   0.15068   0.15214   0.15394
  Beta virt. eigenvalues --    0.16038   0.16407   0.17287   0.18188   0.19045
  Beta virt. eigenvalues --    0.19928   0.20301   0.20801   0.21176   0.21873

 Mulliken charges and spin densities:
               1          2
     1  C   -0.170974   0.000000
     2  C   -0.274665  -0.000000
     3  C   -0.318109  -0.000000
     4  C    0.141568  -0.000000
     5  C    0.143237  -0.000000
     6  C   -0.182783   0.000000
     7  C   -0.030884  -0.000000
     8  C    0.617040  -0.000000
     9  C    0.281982  -0.000000
    10  C   -0.092948  -0.000000
    11  C   -0.685878   0.000000
    12  C   -0.122418  -0.000000
    13  C    0.413874   0.000000
    14  C   -0.668382   0.000000
    15  O   -0.448567  -0.000000
    16  O   -0.455314  -0.000000
    17  H    0.093084   0.000000
    18  H    0.093585  -0.000000
    19  H    0.101068  -0.000000
    20  H    0.055142   0.000000
    21  H    0.105748  -0.000000
    22  H    0.114254  -0.000000
    23  H    0.113039   0.000000
    24  O   -0.123310   0.000000
    25  C    1.438619  -0.000000
    26  C   -2.643581   0.000000
    27  C    1.835377  -0.000000
    28  H    0.074343   0.000000
    29  H    0.164459  -0.000000
    30  H   -0.176947   0.000000
    31  H    0.019349  -0.000000
    32  H   -1.411008   0.000000
 Sum of Mulliken charges =  -2.00000  -0.00000

 Dipole moment (field-independent basis, Debye):
    X=            -32.5590    Y=             -5.7343    Z=             12.1696  Tot=             35.2288
 Quadrupole moment (field-independent basis, Debye-Ang):
   XX=           -312.8811   YY=           -259.6294   ZZ=           -176.2851
   XY=              1.5524   XZ=             53.3898   YZ=             54.7003

  Exact polarizability: 975.873-531.4681857.942 221.722-450.153 495.741
 Approx polarizability:2272.891****************1247.881********2065.041

 ******    1 imaginary frequencies (negative Signs) ******

                      1                      2                      3
                      A                      A                      A
 Frequencies --    -92.5864                26.6960                61.5819
 Red. masses --      1.8577                 5.1016                 8.5519
 Frc consts  --      0.0094                 0.0021                 0.0191
 IR Inten    --     37.9589                 7.0712                 1.0284

                      4                      5                      6
                      A                      A                      A
 Frequencies --     69.4196                80.8409               110.8921
 Red. masses --      4.7221                 4.9998                 6.4834
 Frc consts  --      0.0134                 0.0193                 0.0470
 IR Inten    --      1.5524                 2.9863                 0.9629

                      7                      8                      9
                      A                      A                      A
 Frequencies --    130.3884               171.2280               209.1016
 Red. masses --      2.7369                 6.2074                 7.1625
 Frc consts  --      0.0274                 0.1072                 0.1845
 IR Inten    --     21.8581                 1.8224                11.4979

                     10                     11                     12
                      A                      A                      A
 Frequencies --    236.7384               260.2313               274.1975
 Red. masses --      4.4480                 4.6126                 5.2284
 Frc consts  --      0.1469                 0.1840                 0.2316
 IR Inten    --      2.1587                 4.7739                17.8307

                     13                     14                     15
                      A                      A                      A
 Frequencies --    274.9716               330.9410               355.1349
 Red. masses --      4.8198                 6.3932                10.1119
 Frc consts  --      0.2147                 0.4125                 0.7514
 IR Inten    --     21.7661                14.7268                34.0951

                     16                     17                     18
                      A                      A                      A
 Frequencies --    385.6275               403.8695               418.7970
 Red. masses --      6.6125                 5.9094                 4.1162
 Frc consts  --      0.5794                 0.5679                 0.4254
 IR Inten    --      7.0432                 1.1338                 7.1078

                     19                     20                     21
                      A                      A                      A
 Frequencies --    448.3699               456.8185               498.8350
 Red. masses --      3.2047                 2.6300                 5.4876
 Frc consts  --      0.3796                 0.3234                 0.8045
 IR Inten    --     29.2240                22.4875               114.6036

                     22                     23                     24
                      A                      A                      A
 Frequencies --    525.4175               539.4718               580.9596
 Red. masses --      4.1356                 6.4058                 3.9915
 Frc consts  --      0.6727                 1.0984                 0.7937
 IR Inten    --      5.3181               301.3996                20.9953

                     25                     26                     27
                      A                      A                      A
 Frequencies --    586.6388               613.9702               637.5378
 Red. masses --      7.3314                 3.6315                 4.1413
 Frc consts  --      1.4866                 0.8065                 0.9917
 IR Inten    --     35.6159                40.3537                43.8452

                     28                     29                     30
                      A                      A                      A
 Frequencies --    682.1868               688.6573               708.5787
 Red. masses --      2.4089                 4.0764                 1.4002
 Frc consts  --      0.6605                 1.1390                 0.4142
 IR Inten    --    137.4754                17.8217                44.7372

                     31                     32                     33
                      A                      A                      A
 Frequencies --    715.1454               729.8004               753.8544
 Red. masses --      5.8143                 3.1217                 5.2078
 Frc consts  --      1.7520                 0.9796                 1.7437
 IR Inten    --     46.4085                13.4554                28.0883

                     34                     35                     36
                      A                      A                      A
 Frequencies --    768.3959               775.7223               780.6405
 Red. masses --      5.6470                 4.3971                 1.6234
 Frc consts  --      1.9644                 1.5589                 0.5829
 IR Inten    --     35.6618               121.5938                 4.2136

                     37                     38                     39
                      A                      A                      A
 Frequencies --    827.4726               880.3480               904.4221
 Red. masses --      1.6014                 1.3761                 4.5122
 Frc consts  --      0.6460                 0.6284                 2.1746
 IR Inten    --     34.1445                20.4782                 9.2848

                     40                     41                     42
                      A                      A                      A
 Frequencies --    907.0079               923.5902               925.0343
 Red. masses --      1.3030                 1.2927                 1.4866
 Frc consts  --      0.6316                 0.6497                 0.7495
 IR Inten    --      1.6575                15.1348                80.2004

                     43                     44                     45
                      A                      A                      A
 Frequencies --    937.3307               961.5970               973.6297
 Red. masses --      1.4292                 1.3223                 4.0378
 Frc consts  --      0.7398                 0.7204                 2.2552
 IR Inten    --     19.1658               274.0266                 3.9889

                     46                     47                     48
                      A                      A                      A
 Frequencies --    991.2443              1001.9728              1008.7690
 Red. masses --      2.4899                 2.2968                 2.6699
 Frc consts  --      1.4414                 1.3586                 1.6007
 IR Inten    --    225.6779                88.7348               128.8657

                     49                     50                     51
                      A                      A                      A
 Frequencies --   1043.6829              1073.8860              1101.5736
 Red. masses --      1.1660                 5.6575                 5.6254
 Frc consts  --      0.7483                 3.8440                 4.0219
 IR Inten    --     53.3085                68.1726               301.2772

                     52                     53                     54
                      A                      A                      A
 Frequencies --   1136.9385              1158.9427              1165.1879
 Red. masses --      1.6517                 1.1125                 1.7419
 Frc consts  --      1.2579                 0.8804                 1.3933
 IR Inten    --     21.7979                74.1448               111.1520

                     55                     56                     57
                      A                      A                      A
 Frequencies --   1171.8523              1220.9163              1243.9588
 Red. masses --      1.9851                 2.0780                 1.7623
 Frc consts  --      1.6061                 1.8250                 1.6068
 IR Inten    --    381.8848                30.9246                23.2118

                     58                     59                     60
                      A                      A                      A
 Frequencies --   1252.4137              1261.8818              1275.2877
 Red. masses --      1.2178                 2.5653                 2.1131
 Frc consts  --      1.1254                 2.4068                 2.0248
 IR Inten    --     16.0022                43.0759                57.7718

                     61                     62                     63
                      A                      A                      A
 Frequencies --   1303.9205              1331.9448              1356.5567
 Red. masses --      1.2971                 3.2914                 2.3979
 Frc consts  --      1.2994                 3.4403                 2.5998
 IR Inten    --     49.8422               997.4963                19.3611

                     64                     65                     66
                      A                      A                      A
 Frequencies --   1368.5440              1392.9868              1407.6196
 Red. masses --      2.3755                 2.4475                 3.2924
 Frc consts  --      2.6214                 2.7982                 3.8435
 IR Inten    --    594.8859               258.8367               212.7947

                     67                     68                     69
                      A                      A                      A
 Frequencies --   1428.6044              1437.2357              1448.9773
 Red. masses --      4.5567                 2.7900                 1.3215
 Frc consts  --      5.4793                 3.3956                 1.6347
 IR Inten    --    213.1571               718.3221              1318.1187

                     70                     71                     72
                      A                      A                      A
 Frequencies --   1476.7096              1499.8291              1503.8327
 Red. masses --      3.2797                 1.3251                 3.4589
 Frc consts  --      4.2139                 1.7563                 4.6088
 IR Inten    --   1727.0688                83.2197              1611.4226

                     73                     74                     75
                      A                      A                      A
 Frequencies --   1510.6337              1527.7947              1553.4111
 Red. masses --      3.2689                 7.9081                 6.4364
 Frc consts  --      4.3951                10.8755                 9.1509
 IR Inten    --    510.5231              2822.7853               843.1703

                     76                     77                     78
                      A                      A                      A
 Frequencies --   1582.5863              1608.5272              1691.8897
 Red. masses --      6.5471                 5.6104                 4.8068
 Frc consts  --      9.6612                 8.5526                 8.1068
 IR Inten    --    528.6961               270.6684               148.9855

                     79                     80                     81
                      A                      A                      A
 Frequencies --   2951.1000              2981.7674              3094.7469
 Red. masses --      1.0574                 1.1010                 1.0595
 Frc consts  --      5.4256                 5.7673                 5.9786
 IR Inten    --     48.9264                88.5453                 2.2326

                     82                     83                     84
                      A                      A                      A
 Frequencies --   3111.0829              3119.5333              3130.2796
 Red. masses --      1.0816                 1.0858                 1.0906
 Frc consts  --      6.1680                 6.2257                 6.2964
 IR Inten    --      0.1233                 8.2812                21.0044

                     85                     86                     87
                      A                      A                      A
 Frequencies --   3134.1128              3148.5066              3151.2390
 Red. masses --      1.0925                 1.0959                 1.0884
 Frc consts  --      6.3228                 6.4005                 6.3679
 IR Inten    --     83.2531               143.5392                87.4787

                     88                     89                     90
                      A                      A                      A
 Frequencies --   3156.3701              3157.3729              3179.4172
 Red. masses --      1.0872                 1.0883                 1.1147
 Frc consts  --      6.3814                 6.3920                 6.6389
 IR Inten    --     80.1174                52.5169                63.3910

 - Thermochemistry -
 -------------------
 Temperature   298.150 Kelvin.  Pressure   1.00000 Atm.
 Atom     1 has atomic number  6 and mass  12.00000

 Molecular mass:   264.07864 amu.
 Principal axes and moments of inertia in atomic units:
                           1         2         3
     Eigenvalues --  4175.363757559.32927**********
           X            0.88037   0.37524   0.29007
           Y           -0.46571   0.79970   0.37894
           Z           -0.08978  -0.46870   0.87878
 This molecule is an asymmetric top.
 Rotational symmetry number  1.
 Warning -- assumption of classical behavior for rotation
           may cause significant error
 Rotational temperatures (Kelvin)      0.02074     0.01146     0.00743
 Rotational constants (GHZ):           0.43224     0.23874     0.15490
    1 imaginary frequencies ignored.
 Zero-point vibrational energy     624377.3 (Joules/Mol)
                                  149.22975 (Kcal/Mol)
 Warning -- explicit consideration of  25 degrees of freedom as
           vibrations may cause significant error
 Vibrational temperatures:     38.41    88.60    99.88   116.31   159.55
          (Kelvin)            187.60   246.36   300.85   340.61   374.41
                              394.51   395.62   476.15   510.96   554.83
                              581.08   602.56   645.10   657.26   717.71
                              755.96   776.18   835.87   844.04   883.37
                              917.27   981.51   990.82  1019.49  1028.93
                             1050.02  1084.63  1105.55  1116.09  1123.17
                             1190.55  1266.62  1301.26  1304.98  1328.84
                             1330.92  1348.61  1383.52  1400.84  1426.18
                             1441.62  1451.39  1501.63  1545.08  1584.92
                             1635.80  1667.46  1676.45  1686.03  1756.63
                             1789.78  1801.94  1815.57  1834.85  1876.05
                             1916.37  1951.78  1969.03  2004.20  2025.25
                             2055.44  2067.86  2084.76  2124.66  2157.92
                             2163.68  2173.46  2198.16  2235.01  2276.99
                             2314.31  2434.25  4245.97  4290.10  4452.65
                             4476.15  4488.31  4503.77  4509.29  4530.00
                             4533.93  4541.31  4542.76  4574.47

 Zero-point correction=                           0.237813 (Hartree/Particle)
 Thermal correction to Energy=                    0.253597
 Thermal correction to Enthalpy=                  0.254542
 Thermal correction to Gibbs Free Energy=         0.193791
 Sum of electronic and zero-point Energies=           -880.647651
 Sum of electronic and thermal Energies=              -880.631866
 Sum of electronic and thermal Enthalpies=            -880.630922
 Sum of electronic and thermal Free Energies=         -880.691672

                     E (Thermal)             CV                S
                      KCal/Mol        Cal/Mol-Kelvin    Cal/Mol-Kelvin
 Total                  159.135             63.048            127.860
 Electronic               0.000              0.000              0.000
 Translational            0.889              2.981             42.613
 Rotational               0.889              2.981             34.263
 Vibrational            157.357             57.086             50.984
 Vibration     1          0.593              1.984              6.061
 Vibration     2          0.597              1.973              4.406
 Vibration     3          0.598              1.969              4.170
 Vibration     4          0.600              1.962              3.870
 Vibration     5          0.607              1.940              3.253
 Vibration     6          0.612              1.923              2.940
 Vibration     7          0.626              1.878              2.422
 Vibration     8          0.642              1.827              2.052
 Vibration     9          0.656              1.784              1.827
 Vibration    10          0.668              1.745              1.660
 Vibration    11          0.677              1.721              1.570
 Vibration    12          0.677              1.720              1.565
 Vibration    13          0.713              1.614              1.255
 Vibration    14          0.731              1.565              1.143
 Vibration    15          0.754              1.501              1.017
 Vibration    16          0.769              1.462              0.949
 Vibration    17          0.782              1.429              0.896
 Vibration    18          0.807              1.364              0.801
 Vibration    19          0.815              1.346              0.775
 Vibration    20          0.854              1.253              0.661
 Vibration    21          0.880              1.194              0.598
 Vibration    22          0.895              1.163              0.566
 Vibration    23          0.938              1.072              0.484
 Vibration    24          0.944              1.060              0.473
 Vibration    25          0.973              1.002              0.426

 Optimization completed.
    -- Stationary point found.
 Normal termination of Gaussian 16 at Sat Jan  6 16:36:02 2024.
