 Q-Chem 5.4, Q-Chem, Inc., Pleasanton, CA (2021)
 Q-Chem 5.4.0 for Intel X86 EM64T Linux

User input:
--------------------------------------------------------------
$molecule
-2 1
C                  2.8116100000     -0.4061810000      0.4152590000
O                  1.6484480000      0.2966420000      0.8181500000
C                  0.4544430000     -0.3204880000      0.4312410000
C                 -0.3913240000      0.3887380000     -0.4378800000
O                  0.0928130000      1.5841080000     -0.9790850000
C                 -0.6638360000      2.7250300000     -0.6118210000
C                 -1.6894900000     -0.0885490000     -0.8415670000
O                 -2.4713220000      0.5656480000     -1.6474560000
C                 -2.0165730000     -1.3598080000     -0.2752020000
C                 -1.1655390000     -2.0762110000      0.5667400000
C                  0.1185620000     -1.6074540000      0.9852160000
O                  0.8988960000     -2.2628700000      1.7916700000
H                  2.9040750000     -0.4144550000     -0.6840020000
H                  3.6720840000      0.1347610000      0.8317770000
H                  2.7887580000     -1.4310080000      0.7999930000
H                 -0.2312970000      3.5811470000     -1.1470910000
H                 -0.5852960000      2.9158040000      0.4718760000
H                 -1.7127180000      2.5935170000     -0.8971020000
H                 -2.9847840000     -1.7759950000     -0.5554520000
H                 -1.4775100000     -3.0423760000      0.9647360000
$end

$rem
Scf_algorithm RCA_DIIS
BASIS  =  6-311++G(d,p)
GUI  =  2
JOB_TYPE  =  SP
METHOD  =  B3LYP
SCF_CONVERGENCE  = 6
SOLVENT_METHOD = sm12
$end

$smx
solvent dimethylformamide
charges CM5
$end

--------------------------------------------------------------

             Standard Nuclear Orientation (Angstroms)
    I     Atom           X                Y                Z
 ----------------------------------------------------------------
    1      C       2.8116100000    -0.4061810000     0.4152590000
    2      O       1.6484480000     0.2966420000     0.8181500000
    3      C       0.4544430000    -0.3204880000     0.4312410000
    4      C      -0.3913240000     0.3887380000    -0.4378800000
    5      O       0.0928130000     1.5841080000    -0.9790850000
    6      C      -0.6638360000     2.7250300000    -0.6118210000
    7      C      -1.6894900000    -0.0885490000    -0.8415670000
    8      O      -2.4713220000     0.5656480000    -1.6474560000
    9      C      -2.0165730000    -1.3598080000    -0.2752020000
   10      C      -1.1655390000    -2.0762110000     0.5667400000
   11      C       0.1185620000    -1.6074540000     0.9852160000
   12      O       0.8988960000    -2.2628700000     1.7916700000
   13      H       2.9040750000    -0.4144550000    -0.6840020000
   14      H       3.6720840000     0.1347610000     0.8317770000
   15      H       2.7887580000    -1.4310080000     0.7999930000
   16      H      -0.2312970000     3.5811470000    -1.1470910000
   17      H      -0.5852960000     2.9158040000     0.4718760000
   18      H      -1.7127180000     2.5935170000    -0.8971020000
   19      H      -2.9847840000    -1.7759950000    -0.5554520000
   20      H      -1.4775100000    -3.0423760000     0.9647360000
 ----------------------------------------------------------------

   25    -610.6415333154      6.06E-07 Convergence criterion met
    9    -610.6333460587      8.53E-07 Convergence criterion met
 Total energy in the final basis set = -610.92616151

                    Orbital Energies (a.u.)
 --------------------------------------------------------------

 Alpha MOs
 -- Occupied --
-19.1227 -19.1226 -19.0181 -19.0181 -10.2084 -10.2084 -10.1874 -10.1870
-10.1791 -10.1791 -10.1383 -10.1378  -1.0412  -1.0238  -0.9280  -0.9253
 -0.7888  -0.7265  -0.6951  -0.6549  -0.6464  -0.5681  -0.5497  -0.4890
 -0.4794  -0.4575  -0.4542  -0.4374  -0.4351  -0.4222  -0.4101  -0.3694
 -0.3593  -0.3557  -0.3443  -0.3346  -0.3280  -0.3124  -0.2690  -0.2684
 -0.2282  -0.2074  -0.1955  -0.1927  -0.1229

          Ground-State Mulliken Net Atomic Charges

     Atom                 Charge (a.u.)
  ----------------------------------------
      1 C                     0.260240
      2 O                    -0.009400
      3 C                     0.459539
      4 C                     0.449878
      5 O                    -0.007662
      6 C                     0.260638
      7 C                    -0.902762
      8 O                    -0.384553
      9 C                    -0.837264
     10 C                    -0.838627
     11 C                    -0.901463
     12 O                    -0.384804
     13 H                     0.070118
     14 H                     0.280294
     15 H                     0.121757
     16 H                     0.280260
     17 H                     0.069974
     18 H                     0.121782
     19 H                    -0.054139
     20 H                    -0.053807
  ----------------------------------------
  Sum of atomic charges =    -2.000000

                    Cartesian Multipole Moments
 -----------------------------------------------------------------
    Charge (ESU x 10^10)
                -9.6064
    Dipole Moment (Debye)
         X       6.7273      Y       7.2615      Z      -0.6142
       Tot       9.9178
    Quadrupole Moments (Debye-Ang)
        XX    -111.2608     XY       3.1457     YY    -107.3269
        XZ     -20.2195     YZ      18.7433     ZZ    -105.7739

 Total job time:  156.50s(wall), 505.02s(cpu)
        *  Thank you very much for using Q-Chem.  Have a nice day.  *
