 Gaussian 16, Revision A.03,
 Gaussian 16:  ES64L-G16RevA.03 25-Dec-2016

 ----------------------------------------------------------------
 #P UB3LYP/6-311++G(d,p) SCRF=(PCM,Solvent=n,n-DiMethylFormamide)
 ----------------------------------------------------------------

 -------
 Reduced
 -------
 Symbolic Z-matrix:
 Charge = -2 Multiplicity = 1

                         Standard orientation:
 ---------------------------------------------------------------------
 Center     Atomic      Atomic             Coordinates (Angstroms)
 Number     Number       Type             X           Y           Z
 ---------------------------------------------------------------------
      1          6           0       -1.867847    1.556743    0.025761
      2          6           0       -0.512961    1.349700   -0.389936
      3          6           0        0.054244    0.098354   -0.596074
      4          6           0       -0.708100   -1.112229   -0.406132
      5          6           0       -2.077337   -0.924741    0.022012
      6          6           0       -2.631667    0.341262    0.227913
      7          6           0       -4.066567    0.498750    0.672800
      8          6           0       -2.904481   -2.173780    0.221327
      9          8           0       -2.369385    2.733310    0.205181
     10          8           0       -0.195619   -2.278892   -0.618851
     11          6           0        1.484422   -0.040579   -1.084227
     12          6           0        2.457461   -0.487271   -0.020286
     13          6           0        3.656772    0.026263    0.294867
     14          6           0        4.292558    1.226393   -0.366476
     15          6           0        4.499253   -0.565376    1.403863
     16          1           0        0.087685    2.246568   -0.539898
     17          1           0       -4.260337    0.012550    1.642010
     18          1           0       -4.779641    0.057009   -0.040827
     19          1           0       -4.280966    1.566144    0.767315
     20          1           0       -2.276217   -3.042199    0.009833
     21          1           0       -3.782473   -2.204882   -0.443414
     22          1           0       -3.292538   -2.259231    1.247828
     23          1           0        1.808025    0.902049   -1.537530
     24          1           0        1.492565   -0.813857   -1.867978
     25          1           0        2.111457   -1.359293    0.530288
     26          1           0        3.683336    1.645833   -1.168390
     27          1           0        5.273637    0.969280   -0.788616
     28          1           0        4.479987    2.022669    0.369581
     29          1           0        4.014143   -1.428524    1.867541
     30          1           0        4.702368    0.176287    2.192252
     31          1           0        5.484507   -0.886675    1.036886
 ---------------------------------------------------------------------

 SCF Done:  E(UB3LYP) =  -655.863251671     A.U. after   17 cycles

 The electronic state is 1-A.
 Alpha  occ. eigenvalues --  -19.00178 -19.00013 -10.16175 -10.15380 -10.15370
 Alpha  occ. eigenvalues --  -10.15205 -10.14962 -10.14466 -10.14161 -10.12912
 Alpha  occ. eigenvalues --  -10.12906 -10.11447 -10.11402 -10.11274 -10.10441
 Alpha  occ. eigenvalues --   -0.91876  -0.91543  -0.80085  -0.77491  -0.74605
 Alpha  occ. eigenvalues --   -0.69775  -0.68775  -0.68172  -0.63709  -0.61570
 Alpha  occ. eigenvalues --   -0.58750  -0.51681  -0.50500  -0.48989  -0.45361
 Alpha  occ. eigenvalues --   -0.43683  -0.42370  -0.42041  -0.40272  -0.39825
 Alpha  occ. eigenvalues --   -0.37973  -0.37497  -0.37361  -0.36631  -0.36084
 Alpha  occ. eigenvalues --   -0.35856  -0.35473  -0.34657  -0.34031  -0.33416
 Alpha  occ. eigenvalues --   -0.32238  -0.31260  -0.29818  -0.29420  -0.29119
 Alpha  occ. eigenvalues --   -0.22446  -0.20823  -0.18766  -0.18493  -0.17668
 Alpha  occ. eigenvalues --   -0.09984
 Alpha virt. eigenvalues --   -0.00312   0.00370   0.01394   0.01857   0.01968
 Alpha virt. eigenvalues --    0.02738   0.03054   0.03629   0.03808   0.04477
 Alpha virt. eigenvalues --    0.04625   0.05022   0.05458   0.05783   0.06317

  Beta  occ. eigenvalues --  -19.00178 -19.00013 -10.16175 -10.15380 -10.15370
  Beta  occ. eigenvalues --  -10.15205 -10.14962 -10.14466 -10.14161 -10.12912
  Beta  occ. eigenvalues --  -10.12906 -10.11447 -10.11402 -10.11274 -10.10441
  Beta  occ. eigenvalues --   -0.91876  -0.91543  -0.80085  -0.77491  -0.74605
  Beta  occ. eigenvalues --   -0.69775  -0.68775  -0.68172  -0.63709  -0.61570
  Beta  occ. eigenvalues --   -0.58750  -0.51681  -0.50500  -0.48989  -0.45361
  Beta  occ. eigenvalues --   -0.43683  -0.42370  -0.42041  -0.40272  -0.39825
  Beta  occ. eigenvalues --   -0.37973  -0.37497  -0.37361  -0.36631  -0.36084
  Beta  occ. eigenvalues --   -0.35856  -0.35473  -0.34657  -0.34031  -0.33416
  Beta  occ. eigenvalues --   -0.32238  -0.31260  -0.29818  -0.29420  -0.29119
  Beta  occ. eigenvalues --   -0.22446  -0.20823  -0.18766  -0.18493  -0.17668
  Beta  occ. eigenvalues --   -0.09984
  Beta virt. eigenvalues --   -0.00312   0.00370   0.01394   0.01857   0.01968
  Beta virt. eigenvalues --    0.02738   0.03054   0.03629   0.03808   0.04477
  Beta virt. eigenvalues --    0.04625   0.05022   0.05458   0.05783   0.06317

 Mulliken charges and spin densities:
               1          2
     1  C   -0.970675  -0.000000
     2  C   -0.030463  -0.000000
     3  C    0.960534   0.000000
     4  C   -1.315010   0.000000
     5  C    0.192641  -0.000000
     6  C    0.649518   0.000000
     7  C   -0.519372  -0.000000
     8  C   -0.558439   0.000000
     9  O   -0.734469   0.000000
    10  O   -0.706020   0.000000
    11  C    0.171560   0.000000
    12  C   -0.698050  -0.000000
    13  C    0.593922   0.000000
    14  C   -0.654002  -0.000000
    15  C   -0.642753   0.000000
    16  H    0.121847  -0.000000
    17  H    0.123029   0.000000
    18  H    0.122587   0.000000
    19  H    0.164821   0.000000
    20  H    0.169070   0.000000
    21  H    0.122021   0.000000
    22  H    0.123534   0.000000
    23  H    0.146658   0.000000
    24  H    0.143957  -0.000000
    25  H    0.182185  -0.000000
    26  H    0.128265  -0.000000
    27  H    0.140060   0.000000
    28  H    0.142389  -0.000000
    29  H    0.153709   0.000000
    30  H    0.138888   0.000000
    31  H    0.138062  -0.000000
 Sum of Mulliken charges =  -2.00000  -0.00000

 Dipole moment (field-independent basis, Debye):
    X=             11.8231    Y=             -2.4829    Z=              1.6820  Tot=             12.1975
 Quadrupole moment (field-independent basis, Debye-Ang):
   XX=           -132.5353   YY=           -154.4876   ZZ=           -104.0926
   XY=             24.9320   XZ=              2.3478   YZ=             -8.1266

 Normal termination of Gaussian 16 at Sun Jan 21 07:44:05 2024.
