 Gaussian 16, Revision A.03,
 Gaussian 16:  ES64L-G16RevA.03 25-Dec-2016

 --------------------------------------
 #P UB3LYP/6-311++G(d,p) nosym opt freq
 --------------------------------------

 -------
 Reduced
 -------
 Symbolic Z-matrix:
 Charge = -2 Multiplicity = 1

 SCF Done:  E(UB3LYP) =  -655.594779179     A.U. after   43 cycles
 Optimization completed.
    -- Stationary point found.
 Normal termination of Gaussian 16 at Sat Jan  6 06:03:40 2024.

 ----------------------------------------------------------------------
 #P Geom=AllCheck Guess=TCheck SCRF=Check GenChk UB3LYP/6-311++G(d,p) F
 req
 ----------------------------------------------------------------------

 Structure from the checkpoint file:  "040-an.chk"
 -------
 Reduced
 -------
 Charge = -2 Multiplicity = 1

                          Input orientation:
 ---------------------------------------------------------------------
 Center     Atomic      Atomic             Coordinates (Angstroms)
 Number     Number       Type             X           Y           Z
 ---------------------------------------------------------------------
      1          6           0        1.044044    1.192983    1.443828
      2          6           0       -0.115683    0.352497    1.445312
      3          6           0       -0.297690   -0.722442    0.584231
      4          6           0        0.701984   -1.078898   -0.393700
      5          6           0        1.878114   -0.236609   -0.416886
      6          6           0        2.044185    0.843075    0.454403
      7          6           0        3.287364    1.699539    0.403012
      8          6           0        2.947500   -0.589687   -1.424726
      9          8           0        1.187572    2.183445    2.260178
     10          8           0        0.551497   -2.091377   -1.181880
     11          6           0       -1.533372   -1.598391    0.678078
     12          6           0       -2.534260   -1.371677   -0.428780
     13          6           0       -3.861386   -1.191262   -0.341761
     14          6           0       -4.653671   -1.152137    0.943799
     15          6           0       -4.709261   -0.978865   -1.576944
     16          1           0       -0.888708    0.598929    2.172870
     17          1           0        3.422038    2.183937   -0.577052
     18          1           0        4.205621    1.120552    0.588626
     19          1           0        3.201232    2.475039    1.168134
     20          1           0        2.610553   -1.457073   -1.997180
     21          1           0        3.908692   -0.836212   -0.946130
     22          1           0        3.154032    0.236309   -2.122343
     23          1           0       -2.000535   -1.465705    1.659354
     24          1           0       -1.202958   -2.645697    0.598915
     25          1           0       -2.081299   -1.383167   -1.417702
     26          1           0       -4.038409   -1.310741    1.830616
     27          1           0       -5.444322   -1.914825    0.942077
     28          1           0       -5.167213   -0.185280    1.055278
     29          1           0       -4.110843   -1.007480   -2.491509
     30          1           0       -5.233123   -0.010761   -1.542011
     31          1           0       -5.497356   -1.740488   -1.663357
 ---------------------------------------------------------------------

 SCF Done:  E(UB3LYP) =  -655.594779179     A.U. after    6 cycles

 Alpha  occ. eigenvalues --  -18.79020 -18.78605  -9.96481  -9.96444  -9.96093
 Alpha  occ. eigenvalues --   -9.94324  -9.94235  -9.94092  -9.93436  -9.92710
 Alpha  occ. eigenvalues --   -9.92709  -9.90619  -9.90599  -9.90536  -9.89168
 Alpha  occ. eigenvalues --   -0.70354  -0.69677  -0.60227  -0.56543  -0.54001
 Alpha  occ. eigenvalues --   -0.49283  -0.49153  -0.48237  -0.43426  -0.40617
 Alpha  occ. eigenvalues --   -0.38065  -0.30757  -0.30479  -0.28127  -0.25331
 Alpha  occ. eigenvalues --   -0.23317  -0.23019  -0.22342  -0.19435  -0.19036
 Alpha  occ. eigenvalues --   -0.18684  -0.17231  -0.16981  -0.16526  -0.16388
 Alpha  occ. eigenvalues --   -0.15862  -0.14859  -0.13798  -0.13005  -0.11957
 Alpha  occ. eigenvalues --   -0.11322  -0.10348  -0.08621  -0.08123  -0.07305
 Alpha  occ. eigenvalues --   -0.02133   0.01350   0.02510   0.03436   0.04228
 Alpha  occ. eigenvalues --    0.12520
 Alpha virt. eigenvalues --    0.13947   0.15583   0.16412   0.16919   0.18257
 Alpha virt. eigenvalues --    0.18675   0.19475   0.19632   0.19825   0.20349
 Alpha virt. eigenvalues --    0.21172   0.21810   0.22087   0.23007   0.23410

  Beta  occ. eigenvalues --  -18.79020 -18.78605  -9.96481  -9.96444  -9.96093
  Beta  occ. eigenvalues --   -9.94324  -9.94235  -9.94092  -9.93436  -9.92710
  Beta  occ. eigenvalues --   -9.92709  -9.90619  -9.90599  -9.90536  -9.89168
  Beta  occ. eigenvalues --   -0.70354  -0.69677  -0.60227  -0.56543  -0.54001
  Beta  occ. eigenvalues --   -0.49283  -0.49153  -0.48237  -0.43426  -0.40617
  Beta  occ. eigenvalues --   -0.38065  -0.30757  -0.30479  -0.28127  -0.25331
  Beta  occ. eigenvalues --   -0.23317  -0.23019  -0.22342  -0.19435  -0.19036
  Beta  occ. eigenvalues --   -0.18684  -0.17231  -0.16981  -0.16526  -0.16388
  Beta  occ. eigenvalues --   -0.15862  -0.14859  -0.13798  -0.13005  -0.11957
  Beta  occ. eigenvalues --   -0.11322  -0.10348  -0.08621  -0.08123  -0.07305
  Beta  occ. eigenvalues --   -0.02133   0.01350   0.02510   0.03436   0.04228
  Beta  occ. eigenvalues --    0.12520
  Beta virt. eigenvalues --    0.13947   0.15583   0.16412   0.16919   0.18257
  Beta virt. eigenvalues --    0.18675   0.19475   0.19632   0.19825   0.20349
  Beta virt. eigenvalues --    0.21172   0.21810   0.22087   0.23007   0.23410

 Mulliken charges and spin densities:
               1          2
     1  C   -1.378875  -0.000000
     2  C    0.190941   0.000000
     3  C    1.486823   0.000000
     4  C   -1.505501  -0.000000
     5  C    0.382301  -0.000000
     6  C    0.887985   0.000000
     7  C   -0.573882   0.000000
     8  C   -0.656821   0.000000
     9  O   -0.520382   0.000000
    10  O   -0.503345   0.000000
    11  C   -0.335206  -0.000000
    12  C    0.738242   0.000000
    13  C   -1.342766  -0.000000
    14  C    0.367801   0.000000
    15  C    0.784639   0.000000
    16  H    0.092278  -0.000000
    17  H    0.079911   0.000000
    18  H    0.085265   0.000000
    19  H    0.185186  -0.000000
    20  H    0.182796  -0.000000
    21  H    0.076978  -0.000000
    22  H    0.088446   0.000000
    23  H    0.305603   0.000000
    24  H    0.012305  -0.000000
    25  H    0.387684   0.000000
    26  H   -0.261963  -0.000000
    27  H   -0.235817  -0.000000
    28  H   -0.054246  -0.000000
    29  H   -0.263427  -0.000000
    30  H   -0.281331  -0.000000
    31  H   -0.421621  -0.000000
 Sum of Mulliken charges =  -2.00000   0.00000

 Dipole moment (field-independent basis, Debye):
    X=              7.1796    Y=              2.3178    Z=             -1.9889  Tot=              7.8022
 Quadrupole moment (field-independent basis, Debye-Ang):
   XX=           -215.0798   YY=           -147.6440   ZZ=           -138.5520
   XY=            -26.8928   XZ=            -15.1942   YZ=            -24.4696

  Exact polarizability:1619.389 270.781 724.341 155.991 -88.6441344.997
 Approx polarizability:9335.4311794.5981008.8761598.807 302.1051237.404

                      1                      2                      3
                      A                      A                      A
 Frequencies --     26.6716                28.5970                54.5006
 Red. masses --      2.9997                 4.0305                 3.3540
 Frc consts  --      0.0013                 0.0019                 0.0059
 IR Inten    --      1.7359                 0.8944                 5.2410

                      4                      5                      6
                      A                      A                      A
 Frequencies --     77.5925               107.8320               126.2451
 Red. masses --      1.0857                 4.1041                 1.0909
 Frc consts  --      0.0039                 0.0281                 0.0102
 IR Inten    --      0.2030                 1.5897                 4.6050

                      7                      8                      9
                      A                      A                      A
 Frequencies --    129.5821               136.7719               172.5742
 Red. masses --      1.0703                 2.8915                 2.2017
 Frc consts  --      0.0106                 0.0319                 0.0386
 IR Inten    --      5.5039                 0.3745                 3.2421

                     10                     11                     12
                      A                      A                      A
 Frequencies --    200.9943               208.9476               264.9717
 Red. masses --      2.4470                 2.2480                 2.9126
 Frc consts  --      0.0582                 0.0578                 0.1205
 IR Inten    --     18.4433                16.8541                 2.6933

                     13                     14                     15
                      A                      A                      A
 Frequencies --    279.0986               298.8803               309.3213
 Red. masses --      3.2362                 1.8900                 2.5268
 Frc consts  --      0.1485                 0.0995                 0.1424
 IR Inten    --     13.2640                 9.0650                 1.3851

                     16                     17                     18
                      A                      A                      A
 Frequencies --    330.4711               364.8040               387.0278
 Red. masses --      3.7145                 4.2281                 5.5033
 Frc consts  --      0.2390                 0.3315                 0.4857
 IR Inten    --      0.8365                21.9588                27.0858

                     19                     20                     21
                      A                      A                      A
 Frequencies --    407.6042               431.4722               465.5823
 Red. masses --      3.3900                 2.8859                 4.7741
 Frc consts  --      0.3318                 0.3166                 0.6097
 IR Inten    --     46.3997                56.5215               418.6055

                     22                     23                     24
                      A                      A                      A
 Frequencies --    477.9353               500.4968               532.4368
 Red. masses --      5.0173                 3.9515                 3.2147
 Frc consts  --      0.6752                 0.5832                 0.5369
 IR Inten    --    334.0097                58.4167                32.5937

                     25                     26                     27
                      A                      A                      A
 Frequencies --    613.0299               639.7370               683.7997
 Red. masses --      4.4854                 3.4266                 3.6226
 Frc consts  --      0.9931                 0.8263                 0.9980
 IR Inten    --     11.3590                12.5543                 6.4148

                     28                     29                     30
                      A                      A                      A
 Frequencies --    720.6944               760.7135               790.2888
 Red. masses --      4.8933                 4.3540                 2.7009
 Frc consts  --      1.4975                 1.4845                 0.9939
 IR Inten    --     28.9133                 5.2542                 5.2331

                     31                     32                     33
                      A                      A                      A
 Frequencies --    844.1803               846.6689               866.9917
 Red. masses --      2.2462                 1.7365                 1.7555
 Frc consts  --      0.9431                 0.7334                 0.7775
 IR Inten    --      3.7247                34.6711                20.8939

                     34                     35                     36
                      A                      A                      A
 Frequencies --    938.0251               954.5855               956.1372
 Red. masses --      2.1232                 1.6515                 1.5550
 Frc consts  --      1.1007                 0.8867                 0.8376
 IR Inten    --      3.8490                 7.4733                 8.1662

                     37                     38                     39
                      A                      A                      A
 Frequencies --   1000.2202              1022.6605              1023.3814
 Red. masses --      2.1347                 1.3869                 1.3994
 Frc consts  --      1.2583                 0.8546                 0.8635
 IR Inten    --      3.7633                 1.9240                 3.3154

                     40                     41                     42
                      A                      A                      A
 Frequencies --   1025.6509              1046.9068              1088.2411
 Red. masses --      1.8475                 1.4957                 1.5998
 Frc consts  --      1.1451                 0.9659                 1.1163
 IR Inten    --     25.5333                 1.0002                21.2226

                     43                     44                     45
                      A                      A                      A
 Frequencies --   1098.0519              1108.8856              1124.8265
 Red. masses --      2.5986                 2.1454                 3.8985
 Frc consts  --      1.8460                 1.5543                 2.9062
 IR Inten    --     27.2681                59.6012               260.5842

                     46                     47                     48
                      A                      A                      A
 Frequencies --   1165.1107              1189.6880              1206.0523
 Red. masses --      1.6177                 1.7877                 5.1381
 Frc consts  --      1.2939                 1.4908                 4.4033
 IR Inten    --     33.5137               159.3151               143.5271

                     49                     50                     51
                      A                      A                      A
 Frequencies --   1240.6248              1297.4778              1312.2541
 Red. masses --      1.8580                 1.4473                 2.1194
 Frc consts  --      1.6849                 1.4355                 2.1503
 IR Inten    --     38.2325                63.6470               104.0474

                     52                     53                     54
                      A                      A                      A
 Frequencies --   1351.4308              1354.1445              1364.7200
 Red. masses --      1.8149                 1.4480                 1.3994
 Frc consts  --      1.9529                 1.5644                 1.5356
 IR Inten    --    935.7445                66.5806                 4.7794

                     55                     56                     57
                      A                      A                      A
 Frequencies --   1382.9019              1396.4308              1404.1333
 Red. masses --      1.3486                 2.8404                 1.2575
 Frc consts  --      1.5195                 3.2633                 1.4608
 IR Inten    --   1356.3564              2160.6657                53.0657

                     58                     59                     60
                      A                      A                      A
 Frequencies --   1427.5778              1444.9378              1456.3920
 Red. masses --      2.6560                 1.3694                 3.1943
 Frc consts  --      3.1891                 1.6845                 3.9919
 IR Inten    --    257.7799                16.4544               193.4966

                     61                     62                     63
                      A                      A                      A
 Frequencies --   1468.2584              1472.4829              1473.8028
 Red. masses --      1.5492                 1.0491                 1.0502
 Frc consts  --      1.9677                 1.3402                 1.3440
 IR Inten    --    183.0916                96.4325                28.8953

                     64                     65                     66
                      A                      A                      A
 Frequencies --   1480.2787              1481.0096              1485.9361
 Red. masses --      1.2930                 1.0959                 1.0532
 Frc consts  --      1.6693                 1.4163                 1.3701
 IR Inten    --     21.8330               153.5738                 1.9459

                     67                     68                     69
                      A                      A                      A
 Frequencies --   1489.7387              1492.7751              1500.9991
 Red. masses --      1.0476                 2.3689                 1.0521
 Frc consts  --      1.3698                 3.1101                 1.3966
 IR Inten    --    127.9281               184.4290                 1.9281

                     70                     71                     72
                      A                      A                      A
 Frequencies --   1585.2004              1704.6447              2938.1877
 Red. masses --      7.0252                 6.3537                 1.0450
 Frc consts  --     10.4011                10.8779                 5.3150
 IR Inten    --   3425.9858                24.3240                29.0956

                     73                     74                     75
                      A                      A                      A
 Frequencies --   2942.8538              2951.1217              2951.7117
 Red. masses --      1.0484                 1.0892                 1.0474
 Frc consts  --      5.3498                 5.5892                 5.3764
 IR Inten    --   1654.4689               108.6108                31.5773

                     76                     77                     78
                      A                      A                      A
 Frequencies --   2957.2030              2961.4405              2965.2723
 Red. masses --      1.0666                 1.0945                 1.0484
 Frc consts  --      5.4953                 5.6555                 5.4312
 IR Inten    --    158.5019               136.8595                52.1204

                     79                     80                     81
                      A                      A                      A
 Frequencies --   2986.0324              2996.8179              3036.7213
 Red. masses --      1.0926                 1.0925                 1.0907
 Frc consts  --      5.7397                 5.7811                 5.9260
 IR Inten    --     43.4060               100.1993                14.7625

                     82                     83                     84
                      A                      A                      A
 Frequencies --   3073.5186              3075.6115              3079.1192
 Red. masses --      1.0947                 1.0916                 1.0916
 Frc consts  --      6.0927                 6.0837                 6.0975
 IR Inten    --     25.8355                22.3245                14.7392

                     85                     86                     87
                      A                      A                      A
 Frequencies --   3098.1850              3100.7285              3135.2822
 Red. masses --      1.0910                 1.0883                 1.0883
 Frc consts  --      6.1699                 6.1649                 6.3028
 IR Inten    --     50.3433                47.3406                19.7289

 - Thermochemistry -
 -------------------
 Temperature   298.150 Kelvin.  Pressure   1.00000 Atm.
 Atom     1 has atomic number  6 and mass  12.00000

 Molecular mass:   204.11503 amu.
 Principal axes and moments of inertia in atomic units:
                           1         2         3
     Eigenvalues --  1749.987905768.822246912.81336
           X            0.94446  -0.27962  -0.17265
           Y            0.31380   0.61131   0.72652
           Z            0.09761   0.74034  -0.66511
 This molecule is an asymmetric top.
 Rotational symmetry number  1.
 Warning -- assumption of classical behavior for rotation
           may cause significant error
 Rotational temperatures (Kelvin)      0.04949     0.01501     0.01253
 Rotational constants (GHZ):           1.03129     0.31284     0.26107
 Zero-point vibrational energy     660056.9 (Joules/Mol)
                                  157.75739 (Kcal/Mol)
 Warning -- explicit consideration of  25 degrees of freedom as
           vibrations may cause significant error
 Vibrational temperatures:     38.37    41.14    78.41   111.64   155.15
          (Kelvin)            181.64   186.44   196.78   248.30   289.19
                              300.63   381.24   401.56   430.02   445.04
                              475.47   524.87   556.85   586.45   620.79
                              669.87   687.64   720.10   766.06   882.01
                              920.44   983.84  1036.92  1094.50  1137.05
                             1214.59  1218.17  1247.41  1349.61  1373.44
                             1375.67  1439.09  1471.38  1472.42  1475.68
                             1506.27  1565.74  1579.85  1595.44  1618.37
                             1676.33  1711.70  1735.24  1784.98  1866.78
                             1888.04  1944.41  1948.31  1963.53  1989.69
                             2009.15  2020.23  2053.97  2078.94  2095.42
                             2112.50  2118.57  2120.47  2129.79  2130.84
                             2137.93  2143.40  2147.77  2159.60  2280.75
                             2452.60  4227.40  4234.11  4246.01  4246.85
                             4254.76  4260.85  4266.37  4296.23  4311.75
                             4369.16  4422.11  4425.12  4430.17  4457.60
                             4461.26  4510.97

 Zero-point correction=                           0.251402 (Hartree/Particle)
 Thermal correction to Energy=                    0.267852
 Thermal correction to Enthalpy=                  0.268796
 Thermal correction to Gibbs Free Energy=         0.206331
 Sum of electronic and zero-point Energies=           -655.343377
 Sum of electronic and thermal Energies=              -655.326927
 Sum of electronic and thermal Enthalpies=            -655.325983
 Sum of electronic and thermal Free Energies=         -655.388449

                     E (Thermal)             CV                S
                      KCal/Mol        Cal/Mol-Kelvin    Cal/Mol-Kelvin
 Total                  168.080             60.222            131.469
 Electronic               0.000              0.000              0.000
 Translational            0.889              2.981             41.845
 Rotational               0.889              2.981             32.612
 Vibrational            166.302             54.260             57.013
 Vibration     1          0.593              1.984              6.063
 Vibration     2          0.593              1.984              5.924
 Vibration     3          0.596              1.976              4.647
 Vibration     4          0.599              1.964              3.951
 Vibration     5          0.606              1.943              3.308
 Vibration     6          0.611              1.927              3.002
 Vibration     7          0.612              1.924              2.952
 Vibration     8          0.614              1.917              2.849
 Vibration     9          0.626              1.876              2.407
 Vibration    10          0.638              1.838              2.124
 Vibration    11          0.642              1.827              2.053
 Vibration    12          0.671              1.737              1.629
 Vibration    13          0.679              1.712              1.539
 Vibration    14          0.692              1.676              1.423
 Vibration    15          0.699              1.656              1.366
 Vibration    16          0.713              1.615              1.258
 Vibration    17          0.738              1.545              1.102
 Vibration    18          0.755              1.498              1.012
 Vibration    19          0.772              1.454              0.935
 Vibration    20          0.793              1.402              0.854
 Vibration    21          0.823              1.326              0.750
 Vibration    22          0.834              1.299              0.716
 Vibration    23          0.856              1.249              0.657
 Vibration    24          0.887              1.178              0.582
 Vibration    25          0.972              1.004              0.428

 Optimization completed.
    -- Stationary point found.
 Normal termination of Gaussian 16 at Sat Jan  6 07:13:26 2024.
