 Gaussian 16, Revision A.03,
 Gaussian 16:  ES64L-G16RevA.03 25-Dec-2016

 ----------------------------------------------------------------
 #P UB3LYP/6-311++G(d,p) SCRF=(PCM,Solvent=n,n-DiMethylFormamide)
 ----------------------------------------------------------------

 ------------------
 Radical PCM in DMF
 ------------------
 Symbolic Z-matrix:
 Charge = -1 Multiplicity = 2

                         Standard orientation:
 ---------------------------------------------------------------------
 Center     Atomic      Atomic             Coordinates (Angstroms)
 Number     Number       Type             X           Y           Z
 ---------------------------------------------------------------------
      1          6           0        0.043833    1.317052    0.100486
      2          6           0       -1.352848    1.658728    0.009713
      3          6           0       -2.339516    0.711954   -0.060400
      4          6           0       -2.039525   -0.703819   -0.048076
      5          6           0       -0.631622   -1.040686    0.051368
      6          6           0        0.369699   -0.105367    0.126509
      7          8           0        0.951592    2.214395    0.148047
      8          8           0       -2.938933   -1.589855   -0.114856
      9          6           0        1.841931   -0.461585    0.305427
     10          6           0        2.196416   -1.924478    0.071468
     11          8           0        2.677704    0.315890   -0.559419
     12          1           0       -1.586931    2.719714   -0.006250
     13          1           0       -3.386909    0.991831   -0.131629
     14          1           0       -0.410816   -2.102953    0.069350
     15          1           0        2.103620   -0.212098    1.349359
     16          1           0        1.697238   -2.580288    0.789160
     17          1           0        3.277212   -2.046886    0.182295
     18          1           0        1.916853   -2.232222   -0.939819
     19          1           0        2.336622    1.228668   -0.441615
 ---------------------------------------------------------------------

 SCF Done:  E(UB3LYP) =  -535.626385741     A.U. after   19 cycles

 The electronic state is 2-A.
 Alpha  occ. eigenvalues --  -19.10511 -19.08662 -19.08188 -10.22585 -10.22271
 Alpha  occ. eigenvalues --  -10.22089 -10.17512 -10.16716 -10.16644 -10.16541
 Alpha  occ. eigenvalues --  -10.15629  -1.02027  -1.00149  -0.99448  -0.82920
 Alpha  occ. eigenvalues --   -0.77083  -0.72525  -0.68788  -0.62968  -0.58224
 Alpha  occ. eigenvalues --   -0.56291  -0.50295  -0.47814  -0.47614  -0.45855
 Alpha  occ. eigenvalues --   -0.43426  -0.41150  -0.40820  -0.40003  -0.38386
 Alpha  occ. eigenvalues --   -0.38144  -0.38010  -0.36500  -0.35842  -0.34232
 Alpha  occ. eigenvalues --   -0.28750  -0.27217  -0.25943  -0.24947  -0.24041
 Alpha  occ. eigenvalues --   -0.16902
 Alpha virt. eigenvalues --   -0.01518   0.00097   0.01081   0.01399   0.01947
 Alpha virt. eigenvalues --    0.02746   0.03166   0.03675   0.04794   0.05780
 Alpha virt. eigenvalues --    0.06646   0.06791   0.07204   0.08415   0.09914

  Beta  occ. eigenvalues --  -19.10508 -19.08011 -19.07456 -10.22387 -10.22157
  Beta  occ. eigenvalues --  -10.22096 -10.17433 -10.16625 -10.16509 -10.16420
  Beta  occ. eigenvalues --  -10.15629  -1.01680  -0.98893  -0.98579  -0.82327
  Beta  occ. eigenvalues --   -0.76881  -0.72353  -0.67768  -0.62635  -0.57903
  Beta  occ. eigenvalues --   -0.55980  -0.50197  -0.47444  -0.47350  -0.45580
  Beta  occ. eigenvalues --   -0.43215  -0.40225  -0.39887  -0.39249  -0.38083
  Beta  occ. eigenvalues --   -0.37944  -0.36593  -0.35838  -0.35172  -0.33563
  Beta  occ. eigenvalues --   -0.27251  -0.25353  -0.25111  -0.24325  -0.23451
  Beta virt. eigenvalues --   -0.09587  -0.00544   0.00440   0.01161   0.01602
  Beta virt. eigenvalues --    0.02552   0.03047   0.03483   0.04527   0.04890
  Beta virt. eigenvalues --    0.05820   0.06717   0.06935   0.07403   0.08475

 Mulliken charges and spin densities:
               1          2
     1  C   -0.668110   0.105353
     2  C    0.088391   0.067937
     3  C    0.092097   0.110533
     4  C   -0.395991   0.124356
     5  C   -1.210121   0.041966
     6  C    1.616775   0.051487
     7  O   -0.481450   0.232494
     8  O   -0.492988   0.255839
     9  C   -0.243838   0.030122
    10  C   -0.496846  -0.002417
    11  O   -0.311386   0.003029
    12  H    0.188319  -0.006488
    13  H    0.189718  -0.008360
    14  H    0.164085  -0.007833
    15  H    0.186339   0.006054
    16  H    0.150917  -0.000896
    17  H    0.162616  -0.000100
    18  H    0.158655   0.000215
    19  H    0.302820  -0.003291
 Sum of Mulliken charges =  -1.00000   1.00000

 Dipole moment (field-independent basis, Debye):
    X=              2.3236    Y=             -0.8084    Z=              1.4263  Tot=              2.8437
 Quadrupole moment (field-independent basis, Debye-Ang):
   XX=           -100.9946   YY=            -83.3688   ZZ=            -70.1168
   XY=            -19.6632   XZ=              3.0120   YZ=             -2.1285

 Normal termination of Gaussian 16 at Wed Jan 24 22:49:53 2024.
