 Gaussian 16, Revision A.03,
 Gaussian 16:  ES64L-G16RevA.03 25-Dec-2016

 --------------------------------------
 #P UB3LYP/6-311++G(d,p) nosym opt freq
 --------------------------------------

 -------
 Radical
 -------
 Symbolic Z-matrix:
 Charge = -1 Multiplicity = 2

 SCF Done:  E(UB3LYP) =  -535.547824936     A.U. after   20 cycles
 SCF Done:  E(UB3LYP) =  -535.547824880     A.U. after   11 cycles
 SCF Done:  E(UB3LYP) =  -535.547824979     A.U. after   10 cycles
 Optimization completed.
    -- Stationary point found.
 Normal termination of Gaussian 16 at Wed Jan 10 16:55:13 2024.

 ----------------------------------------------------------------------
 #P Geom=AllCheck Guess=TCheck SCRF=Check GenChk UB3LYP/6-311++G(d,p) F
 req
 ----------------------------------------------------------------------

 Structure from the checkpoint file:  "095-rad.chk"
 -------
 Radical
 -------
 Charge = -1 Multiplicity = 2

                          Input orientation:
 ---------------------------------------------------------------------
 Center     Atomic      Atomic             Coordinates (Angstroms)
 Number     Number       Type             X           Y           Z
 ---------------------------------------------------------------------
      1          6           0        2.149210    3.806979    5.528484
      2          6           0        3.046060    3.184958    4.588032
      3          6           0        2.618096    2.291857    3.642502
      4          6           0        1.226200    1.912563    3.527082
      5          6           0        0.327515    2.548692    4.472208
      6          6           0        0.738319    3.448555    5.423311
      7          8           0        2.569413    4.625241    6.414707
      8          8           0        0.816022    1.087500    2.661358
      9          6           0       -0.218045    4.171274    6.366400
     10          6           0       -1.631556    3.606701    6.427189
     11          8           0        0.283834    4.190533    7.707552
     12          1           0        4.094145    3.459394    4.671363
     13          1           0        3.312358    1.831843    2.944774
     14          1           0       -0.716598    2.268902    4.377150
     15          1           0       -0.284910    5.215165    6.010956
     16          1           0       -2.137629    3.681295    5.461440
     17          1           0       -2.205663    4.173662    7.164985
     18          1           0       -1.615123    2.557813    6.735615
     19          1           0        1.220116    4.462264    7.593903
 ---------------------------------------------------------------------

 SCF Done:  E(UB3LYP) =  -535.547824979     A.U. after    1 cycles

 Alpha  occ. eigenvalues --  -18.97240 -18.94712 -18.94074 -10.09763 -10.08946
 Alpha  occ. eigenvalues --  -10.08456 -10.04577 -10.04233 -10.03513 -10.03443
 Alpha  occ. eigenvalues --  -10.03307  -0.88591  -0.86017  -0.85721  -0.69574
 Alpha  occ. eigenvalues --   -0.64472  -0.60130  -0.55385  -0.50199  -0.45352
 Alpha  occ. eigenvalues --   -0.43219  -0.37471  -0.34507  -0.34328  -0.33002
 Alpha  occ. eigenvalues --   -0.30568  -0.27538  -0.27318  -0.26772  -0.26590
 Alpha  occ. eigenvalues --   -0.25542  -0.24610  -0.23515  -0.22695  -0.21167
 Alpha  occ. eigenvalues --   -0.14971  -0.13916  -0.12731  -0.11028  -0.10014
 Alpha  occ. eigenvalues --   -0.03072
 Alpha virt. eigenvalues --    0.09087   0.10359   0.11162   0.11955   0.12459
 Alpha virt. eigenvalues --    0.12693   0.13231   0.14810   0.15395   0.15662
 Alpha virt. eigenvalues --    0.17342   0.17557   0.18628   0.19481   0.20217

  Beta  occ. eigenvalues --  -18.97237 -18.94044 -18.93288 -10.09769 -10.08768
  Beta  occ. eigenvalues --  -10.08383 -10.04577 -10.04159 -10.03421 -10.03297
  Beta  occ. eigenvalues --  -10.03171  -0.88352  -0.84853  -0.84559  -0.69004
  Beta  occ. eigenvalues --   -0.64291  -0.59936  -0.54418  -0.49860  -0.45030
  Beta  occ. eigenvalues --   -0.42915  -0.37392  -0.34177  -0.34105  -0.32718
  Beta  occ. eigenvalues --   -0.30389  -0.27213  -0.26568  -0.26126  -0.25911
  Beta  occ. eigenvalues --   -0.25295  -0.23746  -0.22466  -0.21716  -0.20086
  Beta  occ. eigenvalues --   -0.13975  -0.11961  -0.11293  -0.10405  -0.09330
  Beta virt. eigenvalues --    0.04297   0.09121   0.10370   0.11372   0.12063
  Beta virt. eigenvalues --    0.12711   0.13266   0.13551   0.14838   0.15522
  Beta virt. eigenvalues --    0.16922   0.17508   0.17627   0.19175   0.19747

 Mulliken charges and spin densities:
               1          2
     1  C   -0.799481   0.091413
     2  C    0.193715   0.066702
     3  C    0.185414   0.124489
     4  C   -0.637649   0.089539
     5  C   -1.207731   0.057698
     6  C    1.842288   0.041741
     7  O   -0.415982   0.240557
     8  O   -0.402339   0.279125
     9  C   -0.306614   0.031762
    10  C   -0.475087  -0.003241
    11  O   -0.259253   0.003139
    12  H    0.147740  -0.006746
    13  H    0.147340  -0.009534
    14  H    0.130884  -0.008983
    15  H    0.147244   0.007159
    16  H    0.128792  -0.001018
    17  H    0.141472   0.000035
    18  H    0.148971  -0.000013
    19  H    0.290276  -0.003824
 Sum of Mulliken charges =  -1.00000   1.00000

 Dipole moment (field-independent basis, Debye):
    X=             -6.3609    Y=            -13.8727    Z=            -24.3902  Tot=             28.7714
 Quadrupole moment (field-independent basis, Debye-Ang):
   XX=            -82.3622   YY=           -124.3790   ZZ=           -220.6874
   XY=            -23.9579   XZ=            -33.9593   YZ=            -88.5739

  Exact polarizability: 129.404   8.365 114.123  -3.526  46.189 131.067
 Approx polarizability: 182.857  29.304 188.959  18.354  83.860 207.991

                      1                      2                      3
                      A                      A                      A
 Frequencies --     67.6248               116.9776               154.4597
 Red. masses --      4.1965                 6.0564                 5.2360
 Frc consts  --      0.0113                 0.0488                 0.0736
 IR Inten    --      3.3371                 4.6093                 3.7063

                      4                      5                      6
                      A                      A                      A
 Frequencies --    207.6851               261.6289               312.1358
 Red. masses --      4.0833                 1.1003                 6.2975
 Frc consts  --      0.1038                 0.0444                 0.3615
 IR Inten    --      1.0924                 0.1530                 1.4855

                      7                      8                      9
                      A                      A                      A
 Frequencies --    336.0091               370.8565               411.1939
 Red. masses --      5.3014                 4.4775                 4.8242
 Frc consts  --      0.3527                 0.3628                 0.4806
 IR Inten    --     13.2890                 1.9072                 8.6702

                     10                     11                     12
                      A                      A                      A
 Frequencies --    426.5983               455.1140               488.6334
 Red. masses --      4.3573                 4.6195                 6.1031
 Frc consts  --      0.4672                 0.5638                 0.8585
 IR Inten    --     10.6809                 3.5075                 0.3032

                     13                     14                     15
                      A                      A                      A
 Frequencies --    533.0887               588.4456               662.3554
 Red. masses --      2.9127                 3.6032                 4.3253
 Frc consts  --      0.4877                 0.7351                 1.1180
 IR Inten    --      5.3745                 4.1269                 2.4142

                     16                     17                     18
                      A                      A                      A
 Frequencies --    712.9928               751.4511               792.6017
 Red. masses --      4.1515                 2.6346                 1.1750
 Frc consts  --      1.2434                 0.8765                 0.4349
 IR Inten    --      1.4645                 9.9179                60.5642

                     19                     20                     21
                      A                      A                      A
 Frequencies --    813.9490               825.8017               876.0411
 Red. masses --      3.7830                 2.1927                 2.9147
 Frc consts  --      1.4767                 0.8810                 1.3179
 IR Inten    --     41.7814                71.1544                25.5997

                     22                     23                     24
                      A                      A                      A
 Frequencies --    887.3308               920.9564               942.5849
 Red. masses --      1.5752                 2.6107                 1.2665
 Frc consts  --      0.7307                 1.3046                 0.6630
 IR Inten    --     22.5437                15.0105                 0.4034

                     25                     26                     27
                      A                      A                      A
 Frequencies --   1012.8809              1077.1361              1104.5438
 Red. masses --      2.1983                 1.9142                 1.6386
 Frc consts  --      1.3288                 1.3085                 1.1778
 IR Inten    --      9.0783                 3.4479                11.0653

                     28                     29                     30
                      A                      A                      A
 Frequencies --   1117.4104              1154.3136              1218.0149
 Red. masses --      2.6744                 2.0458                 2.9214
 Frc consts  --      1.9675                 1.6061                 2.5536
 IR Inten    --     63.1469                15.6746                 5.9445

                     31                     32                     33
                      A                      A                      A
 Frequencies --   1257.0677              1312.1939              1337.4410
 Red. masses --      1.5111                 1.4044                 1.2095
 Frc consts  --      1.4069                 1.4248                 1.2747
 IR Inten    --      8.3545                43.0663                25.8964

                     34                     35                     36
                      A                      A                      A
 Frequencies --   1356.5982              1391.5463              1426.5982
 Red. masses --      1.6525                 1.2464                 4.1756
 Frc consts  --      1.7918                 1.4220                 5.0069
 IR Inten    --      5.6393                16.8623               212.9397

                     37                     38                     39
                      A                      A                      A
 Frequencies --   1465.4173              1485.2688              1491.5565
 Red. masses --      2.8941                 1.6288                 1.2285
 Frc consts  --      3.6617                 2.1170                 1.6103
 IR Inten    --    108.5983                28.1647                24.0764

                     40                     41                     42
                      A                      A                      A
 Frequencies --   1499.5614              1518.6126              1527.9515
 Red. masses --      1.2749                 5.2450                 4.0609
 Frc consts  --      1.6891                 7.1267                 5.5859
 IR Inten    --     37.1803                26.0964               345.8238

                     43                     44                     45
                      A                      A                      A
 Frequencies --   1643.0299              2906.5732              3025.4300
 Red. masses --      6.7550                 1.0808                 1.0340
 Frc consts  --     10.7441                 5.3795                 5.5764
 IR Inten    --      2.4524                76.2876                33.0670

                     46                     47                     48
                      A                      A                      A
 Frequencies --   3089.6814              3095.8501              3134.6219
 Red. masses --      1.1019                 1.1017                 1.0851
 Frc consts  --      6.1978                 6.2215                 6.2820
 IR Inten    --     40.0311                32.4697                20.3512

                     49                     50                     51
                      A                      A                      A
 Frequencies --   3156.3735              3162.9104              3465.5662
 Red. masses --      1.0943                 1.0886                 1.0666
 Frc consts  --      6.4233                 6.4167                 7.5473
 IR Inten    --     50.9765                 9.3355               335.7411

 - Thermochemistry -
 -------------------
 Temperature   298.150 Kelvin.  Pressure   1.00000 Atm.
 Atom     1 has atomic number  6 and mass  12.00000

 Molecular mass:   152.04734 amu.
 Principal axes and moments of inertia in atomic units:
                           1         2         3
     Eigenvalues --  1021.686402012.410642957.34437
           X           -0.34651   0.92031  -0.18156
           Y            0.50899   0.34704   0.78772
           Z            0.78795   0.18054  -0.58868
 This molecule is an asymmetric top.
 Rotational symmetry number  1.
 Warning -- assumption of classical behavior for rotation
           may cause significant error
 Rotational temperatures (Kelvin)      0.08478     0.04304     0.02929
 Rotational constants (GHZ):           1.76643     0.89681     0.61026
 Zero-point vibrational energy     378921.1 (Joules/Mol)
                                   90.56432 (Kcal/Mol)
 Warning -- explicit consideration of  14 degrees of freedom as
           vibrations may cause significant error
 Vibrational temperatures:     97.30   168.30   222.23   298.81   376.43
          (Kelvin)            449.09   483.44   533.58   591.62   613.78
                              654.81   703.03   767.00   846.64   952.98
                             1025.84  1081.17  1140.38  1171.09  1188.14
                             1260.43  1276.67  1325.05  1356.17  1457.31
                             1549.76  1589.19  1607.70  1660.80  1752.45
                             1808.64  1887.95  1924.28  1951.84  2002.12
                             2052.56  2108.41  2136.97  2146.02  2157.53
                             2184.94  2198.38  2363.95  4181.91  4352.92
                             4445.36  4454.24  4510.02  4541.32  4550.72
                             4986.18

 Zero-point correction=                           0.144323 (Hartree/Particle)
 Thermal correction to Energy=                    0.153878
 Thermal correction to Enthalpy=                  0.154822
 Thermal correction to Gibbs Free Energy=         0.108819
 Sum of electronic and zero-point Energies=           -535.403502
 Sum of electronic and thermal Energies=              -535.393947
 Sum of electronic and thermal Enthalpies=            -535.393003
 Sum of electronic and thermal Free Energies=         -535.439006

                     E (Thermal)             CV                S
                      KCal/Mol        Cal/Mol-Kelvin    Cal/Mol-Kelvin
 Total                   96.560             37.054             96.823
 Electronic               0.000              0.000              1.377
 Translational            0.889              2.981             40.967
 Rotational               0.889              2.981             30.187
 Vibrational             94.783             31.093             24.291
 Vibration     1          0.598              1.970              4.221
 Vibration     2          0.608              1.935              3.150
 Vibration     3          0.620              1.898              2.617
 Vibration     4          0.641              1.829              2.064
 Vibration     5          0.669              1.743              1.651
 Vibration     6          0.700              1.651              1.351
 Vibration     7          0.717              1.604              1.231
 Vibration     8          0.743              1.532              1.076
 Vibration     9          0.775              1.446              0.922
 Vibration    10          0.788              1.412              0.870
 Vibration    11          0.813              1.350              0.780
 Vibration    12          0.845              1.275              0.687
 Vibration    13          0.888              1.177              0.580
 Vibration    14          0.946              1.056              0.470

 Optimization completed.
    -- Stationary point found.
 Normal termination of Gaussian 16 at Wed Jan 10 17:07:17 2024.
