 Q-Chem 5.4, Q-Chem, Inc., Pleasanton, CA (2021)
 Q-Chem 5.4.0 for Intel X86 EM64T Linux

User input:
--------------------------------------------------------------
$molecule
-1 2
C                 -2.9597210000     -2.0551890000     -0.0357990000
C                 -2.3313840000     -0.6781440000     -0.0489020000
C                 -3.1883410000      0.4065900000     -0.0968780000
C                 -2.7116480000      1.7246430000     -0.1130340000
C                 -1.3587620000      2.0111430000     -0.0820110000
C                 -0.9609060000      3.4714150000     -0.1037800000
C                 -0.4269470000      0.9235390000     -0.0319180000
C                  1.0158090000      1.2032680000      0.0016040000
O                  1.4859810000      2.3708900000     -0.0113810000
C                  1.9237200000      0.0574540000      0.0518110000
C                  3.3183490000      0.2830350000      0.0846750000
C                  4.2097360000     -0.7696300000      0.1322690000
C                  3.7292100000     -2.0981790000      0.1487900000
C                  2.3703600000     -2.3379550000      0.1173070000
C                  1.4423840000     -1.2733520000      0.0684120000
C                  0.0112150000     -1.5742210000      0.0363440000
O                 -0.3743010000     -2.7724000000      0.0532850000
C                 -0.9191160000     -0.4372640000     -0.0150470000
H                 -2.6796230000     -2.6222940000      0.8535120000
H                 -2.6298450000     -2.6615100000     -0.8810570000
H                 -4.0504650000     -1.9533120000     -0.0693540000
H                 -4.2603580000      0.2306440000     -0.1227430000
H                 -3.4233690000      2.5449190000     -0.1510500000
H                 -0.3270920000      3.7081240000     -0.9600440000
H                 -0.3748090000      3.7470700000      0.7745170000
H                 -1.8647370000      4.0901200000     -0.1426000000
H                  3.6557740000      1.3127020000      0.0709280000
H                  5.2787820000     -0.5788030000      0.1570160000
H                  4.4290750000     -2.9280480000      0.1862150000
H                  1.9710290000     -3.3452560000      0.1289160000
$end

$rem
BASIS  =  6-311++G(d,p)
GUI  =  2
JOB_TYPE  =  SP
METHOD  =  B3LYP
SCF_CONVERGENCE  = 8
SOLVENT_METHOD = sm12
$end

$smx
solvent dimethylformamide
charges CM5
$end

--------------------------------------------------------------

             Standard Nuclear Orientation (Angstroms)
    I     Atom           X                Y                Z
 ----------------------------------------------------------------
    1      C      -2.9597210000    -2.0551890000    -0.0357990000
    2      C      -2.3313840000    -0.6781440000    -0.0489020000
    3      C      -3.1883410000     0.4065900000    -0.0968780000
    4      C      -2.7116480000     1.7246430000    -0.1130340000
    5      C      -1.3587620000     2.0111430000    -0.0820110000
    6      C      -0.9609060000     3.4714150000    -0.1037800000
    7      C      -0.4269470000     0.9235390000    -0.0319180000
    8      C       1.0158090000     1.2032680000     0.0016040000
    9      O       1.4859810000     2.3708900000    -0.0113810000
   10      C       1.9237200000     0.0574540000     0.0518110000
   11      C       3.3183490000     0.2830350000     0.0846750000
   12      C       4.2097360000    -0.7696300000     0.1322690000
   13      C       3.7292100000    -2.0981790000     0.1487900000
   14      C       2.3703600000    -2.3379550000     0.1173070000
   15      C       1.4423840000    -1.2733520000     0.0684120000
   16      C       0.0112150000    -1.5742210000     0.0363440000
   17      O      -0.3743010000    -2.7724000000     0.0532850000
   18      C      -0.9191160000    -0.4372640000    -0.0150470000
   19      H      -2.6796230000    -2.6222940000     0.8535120000
   20      H      -2.6298450000    -2.6615100000    -0.8810570000
   21      H      -4.0504650000    -1.9533120000    -0.0693540000
   22      H      -4.2603580000     0.2306440000    -0.1227430000
   23      H      -3.4233690000     2.5449190000    -0.1510500000
   24      H      -0.3270920000     3.7081240000    -0.9600440000
   25      H      -0.3748090000     3.7470700000     0.7745170000
   26      H      -1.8647370000     4.0901200000    -0.1426000000
   27      H       3.6557740000     1.3127020000     0.0709280000
   28      H       5.2787820000    -0.5788030000     0.1570160000
   29      H       4.4290750000    -2.9280480000     0.1862150000
   30      H       1.9710290000    -3.3452560000     0.1289160000
 ----------------------------------------------------------------

   16    -767.6567733911      4.68e-09  Convergence criterion met
 Total energy in the final basis set =     -767.7424488296

                    Orbital Energies (a.u.)
 --------------------------------------------------------------

 Alpha MOs
 -- Occupied --
-19.0733 -19.0733 -10.2262 -10.2262 -10.1881 -10.1881 -10.1832 -10.1829
-10.1814 -10.1809 -10.1771 -10.1770 -10.1766 -10.1762 -10.1736 -10.1731
-10.1619 -10.1619  -1.0029  -1.0007  -0.8658  -0.8592  -0.7909  -0.7902
 -0.7558  -0.7435  -0.7165  -0.6815  -0.6471  -0.6373  -0.6240  -0.5816
 -0.5475  -0.5389  -0.5143  -0.4801  -0.4691  -0.4652  -0.4615  -0.4359
 -0.4312  -0.4180  -0.4166  -0.4139  -0.4090  -0.4037  -0.3964  -0.3916
 -0.3752  -0.3734  -0.3671  -0.3578  -0.3496  -0.3495  -0.3392  -0.3385
 -0.2698  -0.2619  -0.2555  -0.2485  -0.2403  -0.2330  -0.1422

 Beta MOs
 -- Occupied --
-19.0673 -19.0673 -10.2248 -10.2248 -10.1881 -10.1880 -10.1825 -10.1821
-10.1810 -10.1805 -10.1770 -10.1770 -10.1758 -10.1754 -10.1730 -10.1724
-10.1619 -10.1619  -0.9927  -0.9902  -0.8633  -0.8580  -0.7890  -0.7868
 -0.7540  -0.7416  -0.7162  -0.6756  -0.6445  -0.6357  -0.6214  -0.5805
 -0.5456  -0.5364  -0.5126  -0.4790  -0.4671  -0.4635  -0.4608  -0.4308
 -0.4292  -0.4149  -0.4144  -0.4115  -0.4065  -0.3972  -0.3959  -0.3885
 -0.3743  -0.3664  -0.3532  -0.3515  -0.3489  -0.3482  -0.3368  -0.3285
 -0.2561  -0.2503  -0.2468  -0.2407  -0.2349  -0.2276

          Ground-State Mulliken Net Atomic Charges

     Atom                 Charge (a.u.)    Spin (a.u.)
  --------------------------------------------------------
      1 C                     0.792795       0.004967
      2 C                     0.503660       0.009528
      3 C                     0.705119       0.050751
      4 C                     0.697358       0.050723
      5 C                     0.506710       0.009460
      6 C                     0.792647       0.004984
      7 C                    -0.804180       0.053430
      8 C                    -2.595229       0.061659
      9 O                    -0.239771       0.223002
     10 C                    -1.021580       0.047740
     11 C                    -0.024986       0.023622
     12 C                     0.861525       0.033915
     13 C                     0.860749       0.033981
     14 C                    -0.024284       0.023423
     15 C                    -1.019690       0.047577
     16 C                    -2.588772       0.061670
     17 O                    -0.239277       0.222991
     18 C                    -0.808433       0.053647
     19 H                     0.134183       0.000048
     20 H                     0.134014       0.000043
     21 H                     0.261216      -0.000348
     22 H                     0.261186      -0.004250
     23 H                     0.260272      -0.004256
     24 H                     0.133720       0.000027
     25 H                     0.134009       0.000034
     26 H                     0.261579      -0.000351
     27 H                     0.177190      -0.001248
     28 H                     0.355419      -0.002757
     29 H                     0.355265      -0.002758
     30 H                     0.177587      -0.001254
  --------------------------------------------------------
  Sum of atomic charges =    -1.000000

                    Cartesian Multipole Moments
 -----------------------------------------------------------------
    Charge (ESU x 10^10)
                -4.8032
    Dipole Moment (Debye)
         X      -2.2585      Y       0.8139      Z      -0.0851
       Tot       2.4022
    Quadrupole Moments (Debye-Ang)
        XX    -117.8774     XY      -7.4279     YY    -135.7046
        XZ       0.0416     YZ       0.3002     ZZ    -113.3818

 Total job time:  835.60s(wall), 6339.81s(cpu)
        *  Thank you very much for using Q-Chem.  Have a nice day.  *
