 Q-Chem 5.4, Q-Chem, Inc., Pleasanton, CA (2021)
 Q-Chem 5.4.0 for Intel X86 EM64T Linux

User input:
--------------------------------------------------------------
$molecule
0 1
C                 -3.15952000    1.79781100    0.42580200
C                 -4.18254000    1.42754900   -0.57451700
C                 -4.01513800    0.33146900   -1.31441000
C                 -2.78932900   -0.49690500   -1.17524400
C                 -1.93826200   -0.34651300    0.05616000
C                 -2.04075800    0.83559400    0.72510200
O                 -3.24847600    2.85799200    1.02531100
O                 -2.47454500   -1.21331900   -2.11249900
C                 -1.12981500    1.32631400    1.81668900
C                 -0.96579500   -1.48553100    0.48051000
C                  0.49952400   -1.05011100    0.27996300
C                  0.88422700   -0.46706800   -0.93563100
C                  1.49096500   -1.27895600    1.23963900
C                  2.82037900   -0.92683700    0.99895600
C                  2.20828400   -0.11391300   -1.17811400
C                  3.18518600   -0.34032500   -0.20881900
H                 -5.01771300    2.10942000   -0.68785300
H                 -4.68880500    0.03785000   -2.11176100
H                 -1.61181800    1.24071000    2.79621400
H                 -0.94099800    2.39110100    1.66866100
H                 -0.18246600    0.79660900    1.83809600
H                  0.14094300   -0.29532600   -1.70631800
H                  1.23815600   -1.73016800    2.19095700
H                  3.56847000   -1.11206400    1.76206200
H                  2.47758200    0.33706800   -2.12689900
C                 -1.30328000   -1.84895300    1.95098100
H                 -2.36147300   -2.11125800    2.02401600
H                 -0.73096200   -2.72431200    2.26512500
H                 -1.10737200   -1.04517800    2.65783300
C                 -1.14708500   -2.81154000   -0.31179600
H                 -2.17837000   -3.17057900   -0.25842300
H                 -0.87329500   -2.71967400   -1.35791500
H                 -0.50376900   -3.56420200    0.15091300
H                  4.21685600   -0.06440900   -0.39519500
$end
$rem
MAX_SCF_CYCLES=200
BASIS  =  6-311++G(d,p)
GUI  =  2
JOB_TYPE  =  SP
METHOD  =  B3LYP
SOLVENT_METHOD = COSMO
$end
$solvent
dielectric 37.219
opticaldielectric 1.43
$end

--------------------------------------------------------------

             Standard Nuclear Orientation (Angstroms)
    I     Atom           X                Y                Z
 ----------------------------------------------------------------
    1      C       2.7292619712    -1.2547834261    -0.2236528325
    2      C       3.6370848377    -0.1461492849    -0.5857163004
    3      C       3.1606308972     1.0959877094    -0.6690456325
    4      C       1.7174186797     1.3706625876    -0.4457284363
    5      C       0.8764092921     0.3441004634     0.2629054737
    6      C       1.3274099429    -0.9406897971     0.2271537121
    7      O       3.1310031231    -2.4075238675    -0.2568414652
    8      O       1.2496000111     2.3920158910    -0.9240254614
    9      C       0.5587867105    -2.1689078016     0.6307429911
   10      C      -0.4594310546     0.7608263420     0.9448124346
   11      C      -1.6640119099     0.1800259445     0.1775932295
   12      C      -1.7271028271     0.3238064472    -1.2155869506
   13      C      -2.7457553280    -0.4276830386     0.8232125328
   14      C      -3.8487974686    -0.8874011962     0.1012603656
   15      C      -2.8246354946    -0.1344038694    -1.9381578801
   16      C      -3.8926976297    -0.7460054865    -1.2821704976
   17      H       4.6623597152    -0.4148992571    -0.8135142977
   18      H       3.7521671095     1.9442684080    -0.9951019578
   19      H       0.9030388041    -2.5447270202     1.5999563698
   20      H       0.7611097519    -2.9654499144    -0.0875338031
   21      H      -0.5116903271    -1.9941377902     0.6760213478
   22      H      -0.9120293525     0.8085133390    -1.7415520931
   23      H      -2.7397668523    -0.5558339567     1.8984111548
   24      H      -4.6724222026    -1.3583582654     0.6267331903
   25      H      -2.8463254547    -0.0114977333    -3.0154330904
   26      C      -0.3847973864     0.2877834661     2.4209279078
   27      H       0.5087324831     0.7072974919     2.8894605150
   28      H      -1.2467542519     0.6571325342     2.9804807227
   29      H      -0.3463838445    -0.7938121738     2.5338403360
   30      C      -0.6849331708     2.2974658313     1.0272903421
   31      H       0.1516084746     2.7976161897     1.5226226816
   32      H      -0.8270403761     2.7566503047     0.0542947359
   33      H      -1.5826595066     2.4685712112     1.6266779927
   34      H      -4.7478096132    -1.1050789016    -1.8434711475
 ----------------------------------------------------------------

    9    -769.9522991081      4.65e-06  Convergence criterion met
 Total energy in the final basis set =     -769.9522991081
    4    -769.9669774760      7.33e-06  Convergence criterion met
 Total energy in the final basis set =     -769.9669774760

                    Orbital Energies (a.u.)
 --------------------------------------------------------------

 Alpha MOs
 -- Occupied --
-19.1404 -19.1395 -10.2873 -10.2841 -10.2167 -10.2158 -10.2124 -10.2079
-10.2054 -10.1901 -10.1773 -10.1771 -10.1762 -10.1755 -10.1752 -10.1700
-10.1627 -10.1579  -1.0735  -1.0714  -0.8771  -0.8595  -0.8251  -0.7912
 -0.7518  -0.7418  -0.7232  -0.6909  -0.6849  -0.6398  -0.6133  -0.6063
 -0.5899  -0.5611  -0.5269  -0.5231  -0.5011  -0.4862  -0.4651  -0.4639
 -0.4560  -0.4531  -0.4449  -0.4383  -0.4311  -0.4274  -0.4191  -0.4093
 -0.4071  -0.3977  -0.3911  -0.3842  -0.3761  -0.3713  -0.3631  -0.3495
 -0.3401  -0.3360  -0.3097  -0.2902  -0.2789  -0.2733  -0.2611  -0.2509

          Ground-State Mulliken Net Atomic Charges

     Atom                 Charge (a.u.)
  ----------------------------------------
      1 C                    -0.490049
      2 C                     0.071646
      3 C                    -0.198596
      4 C                    -0.436081
      5 C                     0.869086
      6 C                     0.343128
      7 O                    -0.297773
      8 O                    -0.252438
      9 C                    -0.596821
     10 C                     0.153131
     11 C                     0.579380
     12 C                    -0.417227
     13 C                    -0.155989
     14 C                    -0.357808
     15 C                    -0.520284
     16 C                    -0.396780
     17 H                     0.259285
     18 H                     0.274039
     19 H                     0.239640
     20 H                     0.197668
     21 H                     0.139599
     22 H                     0.201563
     23 H                     0.186790
     24 H                     0.226224
     25 H                     0.224510
     26 C                    -0.544266
     27 H                     0.188558
     28 H                     0.160944
     29 H                     0.168072
     30 C                    -0.533876
     31 H                     0.175627
     32 H                     0.185076
     33 H                     0.161777
     34 H                     0.192248
  ----------------------------------------
  Sum of atomic charges =     0.000000

                    Cartesian Multipole Moments
 -----------------------------------------------------------------
    Charge (ESU x 10^10)
                 0.0000
    Dipole Moment (Debye)
         X      -0.4697      Y       0.3324      Z       2.0253
       Tot       2.1054
    Quadrupole Moments (Debye-Ang)
        XX    -100.1665     XY      13.5297     YY    -122.8570
        XZ      -0.6090     YZ       1.2799     ZZ    -101.1056

 Total job time:  81.61s(wall), 630.43s(cpu)
        *  Thank you very much for using Q-Chem.  Have a nice day.  *
