 Gaussian 16, Revision A.03,
 Gaussian 16:  ES64L-G16RevA.03 25-Dec-2016

 ----------------------------------------------
 #P UB3LYP/6-311++G(d,p) nosym opt freq SCF=YQC
 ----------------------------------------------

 -------
 Reduced
 -------
 Symbolic Z-matrix:
 Charge = -2 Multiplicity = 1

 SCF Done:  E(UB3LYP) =  -767.522925053     a.u. after    9 cycles
 SCF Done:  E(UB3LYP) =  -767.528785858     A.U. after   33 cycles
 SCF Done:  E(UB3LYP) =  -767.528785858     a.u. after    1 cycles
 SCF Done:  E(UB3LYP) =  -767.556143119     a.u. after   48 cycles
 SCF Done:  E(UB3LYP) =  -767.556681128     A.U. after   33 cycles
 SCF Done:  E(UB3LYP) =  -767.556681128     a.u. after    1 cycles
 SCF Done:  E(UB3LYP) =  -767.562009094     a.u. after   26 cycles
 SCF Done:  E(UB3LYP) =  -767.563054186     A.U. after   33 cycles
 SCF Done:  E(UB3LYP) =  -767.563054186     a.u. after    1 cycles
 SCF Done:  E(UB3LYP) =  -767.563995217     a.u. after   10 cycles
 SCF Done:  E(UB3LYP) =  -767.564278966     a.u. after    1 cycles
 SCF Done:  E(UB3LYP) =  -767.564280024     A.U. after   18 cycles
 SCF Done:  E(UB3LYP) =  -767.564274637     a.u. after    1 cycles
 SCF Done:  E(UB3LYP) =  -767.564280074     A.U. after   21 cycles
 SCF Done:  E(UB3LYP) =  -767.564277413     a.u. after    1 cycles
 SCF Done:  E(UB3LYP) =  -767.564280124     A.U. after   21 cycles
 SCF Done:  E(UB3LYP) =  -767.564272523     a.u. after    1 cycles
 SCF Done:  E(UB3LYP) =  -767.564280171     A.U. after   21 cycles
 Optimization completed.
    -- Stationary point found.
 Normal termination of Gaussian 16 at Thu Dec 21 21:51:17 2023.

 ----------------------------------------------------------------------
 #P Geom=AllCheck Guess=TCheck SCRF=Check GenChk UB3LYP/6-311++G(d,p) F
 req
 ----------------------------------------------------------------------

 Structure from the checkpoint file:  "127-an.chk"
 -------
 Reduced
 -------
 Charge = -2 Multiplicity = 1

                          Input orientation:
 ---------------------------------------------------------------------
 Center     Atomic      Atomic             Coordinates (Angstroms)
 Number     Number       Type             X           Y           Z
 ---------------------------------------------------------------------
      1          6           0       -2.956218   -2.058669   -0.035448
      2          6           0       -2.326783   -0.677873   -0.048751
      3          6           0       -3.187698    0.397509   -0.096604
      4          6           0       -2.705359    1.731201   -0.113015
      5          6           0       -1.355403    2.007969   -0.081906
      6          6           0       -0.955887    3.471826   -0.103754
      7          6           0       -0.395284    0.929843   -0.031298
      8          6           0        1.023877    1.226242    0.001203
      9          8           0        1.512611    2.422834   -0.011809
     10          6           0        1.902065    0.079101    0.050724
     11          6           0        3.306172    0.284961    0.084480
     12          6           0        4.204536   -0.761290    0.132156
     13          6           0        3.719936   -2.101199    0.148566
     14          6           0        2.359839   -2.331672    0.116692
     15          6           0        1.411879   -1.276208    0.067488
     16          6           0        0.002743   -1.597085    0.036367
     17          8           0       -0.387049   -2.829426    0.053685
     18          6           0       -0.898823   -0.462390   -0.013979
     19          1           0       -2.668954   -2.627260    0.851115
     20          1           0       -2.619006   -2.666682   -0.877051
     21          1           0       -4.051843   -1.954868   -0.069331
     22          1           0       -4.262018    0.218196   -0.122522
     23          1           0       -3.416686    2.555543   -0.151021
     24          1           0       -0.315727    3.705220   -0.956679
     25          1           0       -0.362956    3.743917    0.771538
     26          1           0       -1.864693    4.092199   -0.142517
     27          1           0        3.637930    1.318680    0.070623
     28          1           0        5.276077   -0.566297    0.157034
     29          1           0        4.419099   -2.935830    0.186073
     30          1           0        1.953623   -3.338488    0.127939
 ---------------------------------------------------------------------

 SCF Done:  E(UB3LYP) =  -767.564280171     a.u. after    1 cycles
 SCF Done:  E(UB3LYP) =  -767.564280171     A.U. after    1 cycles

 Alpha  occ. eigenvalues --  -18.76411 -18.76410  -9.92853  -9.92852  -9.92419
 Alpha  occ. eigenvalues --   -9.92418  -9.92105  -9.92061  -9.91831  -9.91831
 Alpha  occ. eigenvalues --   -9.91089  -9.91088  -9.91002  -9.90957  -9.90035
 Alpha  occ. eigenvalues --   -9.90005  -9.89256  -9.89217  -0.68493  -0.68077
 Alpha  occ. eigenvalues --   -0.59001  -0.58617  -0.52908  -0.51230  -0.48506
 Alpha  occ. eigenvalues --   -0.46908  -0.46052  -0.41168  -0.38598  -0.36547
 Alpha  occ. eigenvalues --   -0.35296  -0.30957  -0.27592  -0.27250  -0.24449
 Alpha  occ. eigenvalues --   -0.21224  -0.20130  -0.20011  -0.18999  -0.17148
 Alpha  occ. eigenvalues --   -0.16381  -0.16333  -0.15685  -0.14503  -0.14257
 Alpha  occ. eigenvalues --   -0.13026  -0.12543  -0.12070  -0.10533  -0.10310
 Alpha  occ. eigenvalues --   -0.08849  -0.08380  -0.07606  -0.06777  -0.06062
 Alpha  occ. eigenvalues --   -0.05620   0.00917   0.02104   0.02384   0.02734
 Alpha  occ. eigenvalues --    0.05595   0.06031   0.14310
 Alpha virt. eigenvalues --    0.16395   0.16446   0.17215   0.18185   0.18791
 Alpha virt. eigenvalues --    0.20408   0.20743   0.21151   0.22086   0.22199
 Alpha virt. eigenvalues --    0.22205   0.22444   0.23468   0.24146   0.25621

  Beta  occ. eigenvalues --  -18.76411 -18.76410  -9.92853  -9.92852  -9.92419
  Beta  occ. eigenvalues --   -9.92418  -9.92105  -9.92061  -9.91831  -9.91831
  Beta  occ. eigenvalues --   -9.91089  -9.91088  -9.91002  -9.90957  -9.90035
  Beta  occ. eigenvalues --   -9.90005  -9.89256  -9.89217  -0.68493  -0.68077
  Beta  occ. eigenvalues --   -0.59001  -0.58617  -0.52908  -0.51230  -0.48506
  Beta  occ. eigenvalues --   -0.46908  -0.46052  -0.41168  -0.38598  -0.36547
  Beta  occ. eigenvalues --   -0.35296  -0.30957  -0.27592  -0.27250  -0.24449
  Beta  occ. eigenvalues --   -0.21224  -0.20130  -0.20011  -0.18999  -0.17148
  Beta  occ. eigenvalues --   -0.16381  -0.16333  -0.15685  -0.14503  -0.14257
  Beta  occ. eigenvalues --   -0.13026  -0.12543  -0.12070  -0.10533  -0.10310
  Beta  occ. eigenvalues --   -0.08849  -0.08380  -0.07606  -0.06777  -0.06062
  Beta  occ. eigenvalues --   -0.05620   0.00917   0.02104   0.02384   0.02734
  Beta  occ. eigenvalues --    0.05595   0.06031   0.14310
  Beta virt. eigenvalues --    0.16395   0.16446   0.17215   0.18185   0.18791
  Beta virt. eigenvalues --    0.20408   0.20743   0.21151   0.22086   0.22199
  Beta virt. eigenvalues --    0.22205   0.22444   0.23468   0.24146   0.25621

 Mulliken charges and spin densities:
               1          2
     1  C   -0.410918   0.000000
     2  C    1.089406   0.000000
     3  C   -0.527089  -0.000000
     4  C   -0.526837   0.000000
     5  C    1.089221   0.000000
     6  C   -0.410923  -0.000000
     7  C    0.192921   0.000000
     8  C   -1.215498  -0.000000
     9  O   -0.483193  -0.000000
    10  C    0.298023  -0.000000
    11  C   -0.007196  -0.000000
    12  C   -0.513955  -0.000000
    13  C   -0.513891  -0.000000
    14  C   -0.007239   0.000000
    15  C    0.297868  -0.000000
    16  C   -1.215404   0.000000
    17  O   -0.483235   0.000000
    18  C    0.193157   0.000000
    19  H    0.151188  -0.000000
    20  H    0.151359  -0.000000
    21  H    0.049238  -0.000000
    22  H    0.023644  -0.000000
    23  H    0.023654   0.000000
    24  H    0.151262  -0.000000
    25  H    0.151332  -0.000000
    26  H    0.049228  -0.000000
    27  H    0.134000  -0.000000
    28  H    0.067946   0.000000
    29  H    0.067948  -0.000000
    30  H    0.133982   0.000000
 Sum of Mulliken charges =  -2.00000   0.00000

 Dipole moment (field-independent basis, Debye):
    X=             -3.7824    Y=              1.3666    Z=             -0.1386  Tot=              4.0241
 Quadrupole moment (field-independent basis, Debye-Ang):
   XX=           -168.5136   YY=           -169.9846   ZZ=           -120.0345
   XY=             -0.6363   XZ=             -1.3217   YZ=              1.1014

  Exact polarizability: 428.695 -51.742 304.003   8.748  -4.601 155.574
 Approx polarizability: 743.905 -87.925 531.915  16.423  -9.344 219.371

                      1                      2                      3
                      A                      A                      A
 Frequencies --     28.5641                39.3373                96.1898
 Red. masses --      4.2994                 6.4441                 3.1413
 Frc consts  --      0.0021                 0.0059                 0.0171
 IR Inten    --      0.0060                 8.2228                 4.1007

                      4                      5                      6
                      A                      A                      A
 Frequencies --    121.5071               165.4053               194.0016
 Red. masses --      4.1370                 6.5253                 1.0610
 Frc consts  --      0.0360                 0.1052                 0.0235
 IR Inten    --      0.0000                 0.6712                 0.0039

                      7                      8                      9
                      A                      A                      A
 Frequencies --    201.2928               214.1956               254.8223
 Red. masses --      1.0899                 4.3304                 4.2646
 Frc consts  --      0.0260                 0.1171                 0.1632
 IR Inten    --      0.7553                 4.8191                 0.2210

                     10                     11                     12
                      A                      A                      A
 Frequencies --    311.8843               318.3288               331.7063
 Red. masses --      3.3757                 3.4809                 5.5711
 Frc consts  --      0.1935                 0.2078                 0.3612
 IR Inten    --      0.0001                 8.2740                 0.6249

                     13                     14                     15
                      A                      A                      A
 Frequencies --    350.4731               380.7089               382.3086
 Red. masses --      6.8185                 7.7611                11.8651
 Frc consts  --      0.4935                 0.6628                 1.0218
 IR Inten    --      2.0853                 0.0005                 0.8449

                     16                     17                     18
                      A                      A                      A
 Frequencies --    401.4754               438.2121               467.1068
 Red. masses --      4.7441                 3.3129                 5.4429
 Frc consts  --      0.4505                 0.3748                 0.6997
 IR Inten    --      3.4839                 0.0576                 2.5116

                     19                     20                     21
                      A                      A                      A
 Frequencies --    479.0290               492.7585               508.6267
 Red. masses --      3.9977                 3.9896                 8.2468
 Frc consts  --      0.5405                 0.5708                 1.2570
 IR Inten    --      0.1123                 0.0001                 0.7952

                     22                     23                     24
                      A                      A                      A
 Frequencies --    557.5938               590.2663               616.2918
 Red. masses --      3.5083                 5.0347                 4.0858
 Frc consts  --      0.6427                 1.0335                 0.9143
 IR Inten    --     39.8801                23.8760                 0.0007

                     25                     26                     27
                      A                      A                      A
 Frequencies --    651.7224               691.5684               700.1764
 Red. masses --      6.4355                 1.6548                 6.3203
 Frc consts  --      1.6105                 0.4663                 1.8256
 IR Inten    --      0.3294                57.3481                 1.0222

                     28                     29                     30
                      A                      A                      A
 Frequencies --    711.4112               734.2389               751.1004
 Red. masses --      3.7883                 1.2409                 3.0997
 Frc consts  --      1.1296                 0.3941                 1.0303
 IR Inten    --      0.0038                29.9058                22.3495

                     31                     32                     33
                      A                      A                      A
 Frequencies --    752.5678               768.2550               781.0271
 Red. masses --      5.5892                 1.6588                 1.3579
 Frc consts  --      1.8651                 0.5768                 0.4880
 IR Inten    --     13.7025                 0.0022                 0.0037

                     34                     35                     36
                      A                      A                      A
 Frequencies --    823.6654               845.7442               877.3647
 Red. masses --      4.8871                 6.4210                 6.5282
 Frc consts  --      1.9534                 2.7060                 2.9608
 IR Inten    --      0.0001                 9.9354                21.2496

                     37                     38                     39
                      A                      A                      A
 Frequencies --    944.0210               952.3970               958.7717
 Red. masses --      6.2134                 1.2355                 1.3619
 Frc consts  --      3.2625                 0.6603                 0.7376
 IR Inten    --     22.7561                 0.0002                 3.2998

                     40                     41                     42
                      A                      A                      A
 Frequencies --    971.6193              1009.2749              1031.0502
 Red. masses --      1.8174                 2.0990                 1.4384
 Frc consts  --      1.0108                 1.2597                 0.9009
 IR Inten    --      1.6312               111.5386                19.5454

                     43                     44                     45
                      A                      A                      A
 Frequencies --   1044.5096              1044.9021              1072.5710
 Red. masses --      1.4914                 1.4870                 2.6045
 Frc consts  --      0.9587                 0.9566                 1.7654
 IR Inten    --      0.4058                 0.0522                14.8648

                     46                     47                     48
                      A                      A                      A
 Frequencies --   1092.8454              1107.2826              1149.8881
 Red. masses --      2.0338                 1.7834                 1.5419
 Frc consts  --      1.4311                 1.2883                 1.2012
 IR Inten    --     62.1204               335.9841                58.9493

                     49                     50                     51
                      A                      A                      A
 Frequencies --   1185.0243              1194.8631              1212.9357
 Red. masses --      2.1514                 2.9422                 3.0610
 Frc consts  --      1.7801                 2.4749                 2.6533
 IR Inten    --     89.9230                80.6146               128.9283

                     52                     53                     54
                      A                      A                      A
 Frequencies --   1231.1563              1237.4195              1262.1838
 Red. masses --      2.7860                 2.1273                 5.8200
 Frc consts  --      2.4881                 1.9192                 5.4628
 IR Inten    --     40.6430               122.8388                42.7804

                     55                     56                     57
                      A                      A                      A
 Frequencies --   1347.3600              1351.9309              1360.9715
 Red. masses --      2.6726                 8.3433                 2.6096
 Frc consts  --      2.8586                 8.9845                 2.8479
 IR Inten    --    424.5543               255.3084               499.1580

                     58                     59                     60
                      A                      A                      A
 Frequencies --   1379.8525              1400.0870              1401.9592
 Red. masses --      2.8068                 1.3141                 1.2531
 Frc consts  --      3.1486                 1.5177                 1.4511
 IR Inten    --     33.7240                16.2402                 0.6765

                     61                     62                     63
                      A                      A                      A
 Frequencies --   1440.1724              1440.2724              1443.0342
 Red. masses --      1.0549                 2.1260                 1.0488
 Frc consts  --      1.2891                 2.5984                 1.2868
 IR Inten    --      2.2082               215.1343                 2.5818

                     64                     65                     66
                      A                      A                      A
 Frequencies --   1448.8823              1465.2031              1471.1839
 Red. masses --      3.3966                 2.1830                 2.8359
 Frc consts  --      4.2011                 2.7612                 3.6164
 IR Inten    --      2.7134                 0.3734                 0.8288

                     67                     68                     69
                      A                      A                      A
 Frequencies --   1480.3482              1480.7236              1542.8246
 Red. masses --      1.9412                 1.5518                 5.9946
 Frc consts  --      2.5064                 2.0046                 8.4071
 IR Inten    --    266.0167                 1.8401               129.6107

                     70                     71                     72
                      A                      A                      A
 Frequencies --   1573.6607              1582.9437              1590.4535
 Red. masses --      4.3580                 4.8374                 7.9360
 Frc consts  --      6.3586                 7.1416                11.8275
 IR Inten    --     16.3906                12.3671                 0.1306

                     73                     74                     75
                      A                      A                      A
 Frequencies --   2951.5923              2952.8050              3068.9959
 Red. masses --      1.0570                 1.0570                 1.0759
 Frc consts  --      5.4257                 5.4298                 5.9707
 IR Inten    --    171.5190               274.0930                19.3845

                     76                     77                     78
                      A                      A                      A
 Frequencies --   3069.5447              3080.3227              3080.6565
 Red. masses --      1.0759                 1.0992                 1.0828
 Frc consts  --      5.9729                 6.1449                 6.0546
 IR Inten    --     17.2062                 0.1526                74.6260

                     79                     80                     81
                      A                      A                      A
 Frequencies --   3081.9296              3082.3132              3106.3738
 Red. masses --      1.0991                 1.0823                 1.0917
 Frc consts  --      6.1510                 6.0584                 6.2064
 IR Inten    --     21.0408                38.6797               255.9759

                     82                     83                     84
                      A                      A                      A
 Frequencies --   3107.2676              3156.0538              3158.5105
 Red. masses --      1.0906                 1.0899                 1.0909
 Frc consts  --      6.2038                 6.3963                 6.4122
 IR Inten    --     49.2473                25.2229                57.2131

 - Thermochemistry -
 -------------------
 Temperature   298.150 Kelvin.  Pressure   1.00000 Atm.
 Atom     1 has atomic number  6 and mass  12.00000

 Molecular mass:   236.08373 amu.
 Principal axes and moments of inertia in atomic units:
                           1         2         3
     Eigenvalues --  2661.305954664.840577304.62030
           X            0.94000   0.34006  -0.02743
           Y           -0.33953   0.94033   0.02231
           Z            0.03338  -0.01166   0.99937
 This molecule is an asymmetric top.
 Rotational symmetry number  1.
 Warning -- assumption of classical behavior for rotation
           may cause significant error
 Rotational temperatures (Kelvin)      0.03255     0.01857     0.01186
 Rotational constants (GHZ):           0.67814     0.38688     0.24707
 Zero-point vibrational energy     597127.2 (Joules/Mol)
                                  142.71683 (Kcal/Mol)
 Warning -- explicit consideration of  24 degrees of freedom as
           vibrations may cause significant error
 Vibrational temperatures:     41.10    56.60   138.40   174.82   237.98
          (Kelvin)            279.13   289.62   308.18   366.63   448.73
                              458.00   477.25   504.25   547.76   550.06
                              577.63   630.49   672.06   689.22   708.97
                              731.80   802.25   849.26   886.71   937.68
                              995.01  1007.40  1023.56  1056.41  1080.67
                             1082.78  1105.35  1123.72  1185.07  1216.84
                             1262.33  1358.24  1370.29  1379.46  1397.94
                             1452.12  1483.45  1502.82  1503.38  1543.19
                             1572.36  1593.13  1654.43  1704.99  1719.14
                             1745.14  1771.36  1780.37  1816.00  1938.55
                             1945.13  1958.13  1985.30  2014.41  2017.11
                             2072.09  2072.23  2076.20  2084.62  2108.10
                             2116.71  2129.89  2130.43  2219.78  2264.15
                             2277.50  2288.31  4246.68  4248.43  4415.60
                             4416.39  4431.90  4432.38  4434.21  4434.76
                             4469.38  4470.67  4540.86  4544.39

 Zero-point correction=                           0.227434 (Hartree/Particle)
 Thermal correction to Energy=                    0.242160
 Thermal correction to Enthalpy=                  0.243104
 Thermal correction to Gibbs Free Energy=         0.185541
 Sum of electronic and zero-point Energies=           -767.336846
 Sum of electronic and thermal Energies=              -767.322120
 Sum of electronic and thermal Enthalpies=            -767.321176
 Sum of electronic and thermal Free Energies=         -767.378740

                     E (Thermal)             CV                S
                      KCal/Mol        Cal/Mol-Kelvin    Cal/Mol-Kelvin
 Total                  151.958             59.305            121.152
 Electronic               0.000              0.000              0.000
 Translational            0.889              2.981             42.279
 Rotational               0.889              2.981             32.872
 Vibrational            150.180             53.344             46.002
 Vibration     1          0.593              1.984              5.927
 Vibration     2          0.594              1.981              5.292
 Vibration     3          0.603              1.952              3.530
 Vibration     4          0.609              1.931              3.076
 Vibration     5          0.624              1.885              2.487
 Vibration     6          0.635              1.848              2.189
 Vibration     7          0.638              1.838              2.121
 Vibration     8          0.644              1.819              2.008
 Vibration     9          0.665              1.755              1.697
 Vibration    10          0.700              1.651              1.352
 Vibration    11          0.705              1.639              1.319
 Vibration    12          0.714              1.612              1.252
 Vibration    13          0.727              1.574              1.164
 Vibration    14          0.750              1.511              1.036
 Vibration    15          0.752              1.508              1.030
 Vibration    16          0.767              1.467              0.957
 Vibration    17          0.798              1.387              0.832
 Vibration    18          0.824              1.323              0.746
 Vibration    19          0.835              1.297              0.713
 Vibration    20          0.848              1.266              0.676
 Vibration    21          0.864              1.231              0.637
 Vibration    22          0.913              1.123              0.529
 Vibration    23          0.948              1.053              0.467
 Vibration    24          0.976              0.997              0.422

 Optimization completed.
    -- Stationary point found.
 Normal termination of Gaussian 16 at Thu Dec 21 22:37:14 2023.
