 Q-Chem 5.4, Q-Chem, Inc., Pleasanton, CA (2021)
 Q-Chem 5.4.0 for Intel X86 EM64T Linux

User input:
--------------------------------------------------------------
$molecule
-1 2
C                  5.7529790000     -5.7076820000      0.4541040000
C                  5.8532890000     -5.8847270000     -0.9144900000
C                  5.1313530000     -5.0454490000     -1.7863270000
C                  4.9361030000     -4.6961520000      0.9977710000
C                  4.2098620000     -3.8520170000      0.1201470000
C                  4.3240920000     -4.0470970000     -1.2707530000
C                  4.8498280000     -4.5321310000      2.4568700000
C                  3.9884970000     -3.4720250000      2.9442090000
C                  3.2836420000     -2.6391250000      2.0811880000
C                  3.3452010000     -2.7846550000      0.6418860000
O                  5.5013730000     -5.2874720000      3.2319060000
O                  2.6908620000     -2.0343320000     -0.1365700000
H                  6.4873520000     -6.6693090000     -1.3176270000
C                  2.3849900000     -1.5343960000      2.5901470000
H                  5.2093430000     -5.1833240000     -2.8610610000
C                  3.9076440000     -3.3131440000      4.4453070000
C                  0.9036940000     -1.9503370000      2.6835730000
C                 -0.0144180000     -0.8148680000      3.1492110000
C                 -1.4923410000     -1.2132660000      3.2358550000
H                  6.2965310000     -6.3376110000      1.1490040000
H                  3.7560330000     -3.3865340000     -1.9159640000
H                  2.4534680000     -0.6941860000      1.8920280000
H                  2.7228180000     -1.1828680000      3.5706260000
H                  4.4365940000     -4.1409200000      4.9182920000
H                  2.8725610000     -3.3008890000      4.8039250000
H                  4.3743070000     -2.3777870000      4.7811750000
H                  0.8056680000     -2.8034840000      3.3670020000
H                  0.5857560000     -2.2981270000      1.6956170000
H                  0.0904940000      0.0341400000      2.4609460000
H                  0.3195600000     -0.4536040000      4.1320950000
H                 -1.5979160000     -2.0641280000      3.9221220000
H                 -1.8245660000     -1.5737570000      2.2537590000
C                 -2.4145640000     -0.0779320000      3.6955000000
C                 -3.8922850000     -0.4772660000      3.7806150000
C                 -4.8144700000      0.6584520000      4.2389650000
C                 -6.2918200000      0.2587160000      4.3237480000
C                 -7.2145690000      1.3938480000      4.7820850000
C                 -8.6883460000      0.9841560000      4.8633890000
H                 -2.3095170000      0.7722670000      3.0086170000
H                 -2.0813900000      0.2836670000      4.6775840000
H                 -3.9976700000     -1.3274750000      4.4674030000
H                 -4.2251760000     -0.8388900000      2.7989240000
H                 -4.7093690000      1.5084200000      3.5518760000
H                 -4.4815140000      1.0203290000      5.2207840000
H                 -6.3981290000     -0.5913150000      5.0107570000
H                 -6.6258980000     -0.1027470000      3.3421990000
H                 -7.1095450000      2.2429590000      4.0954910000
H                 -6.8818010000      1.7548700000      5.7631250000
H                 -9.0599380000      0.6508630000      3.8889480000
H                 -9.3192010000      1.8152600000      5.1927450000
H                 -8.8306420000      0.1591090000      5.5689420000
$end
$rem
MAX_SCF_CYCLES=200
BASIS  =  6-311++G(d,p)
GUI  =  2
JOB_TYPE  =  SP
THRESH = 14
SCF_CONVERGENCE = 8
SCF_ALGORITHM = RCA_DIIS
scf_guess = GWH
METHOD  =  B3LYP
SOLVENT_METHOD = PCM
$end
$pcm
theory = CPCM
$end
$solvent
dielectric 37.219
opticaldielectric 1.43
$end

--------------------------------------------------------------

             Standard Nuclear Orientation (Angstroms)
    I     Atom           X                Y                Z
 ----------------------------------------------------------------
    1      C       5.7529790000    -5.7076820000     0.4541040000
    2      C       5.8532890000    -5.8847270000    -0.9144900000
    3      C       5.1313530000    -5.0454490000    -1.7863270000
    4      C       4.9361030000    -4.6961520000     0.9977710000
    5      C       4.2098620000    -3.8520170000     0.1201470000
    6      C       4.3240920000    -4.0470970000    -1.2707530000
    7      C       4.8498280000    -4.5321310000     2.4568700000
    8      C       3.9884970000    -3.4720250000     2.9442090000
    9      C       3.2836420000    -2.6391250000     2.0811880000
   10      C       3.3452010000    -2.7846550000     0.6418860000
   11      O       5.5013730000    -5.2874720000     3.2319060000
   12      O       2.6908620000    -2.0343320000    -0.1365700000
   13      H       6.4873520000    -6.6693090000    -1.3176270000
   14      C       2.3849900000    -1.5343960000     2.5901470000
   15      H       5.2093430000    -5.1833240000    -2.8610610000
   16      C       3.9076440000    -3.3131440000     4.4453070000
   17      C       0.9036940000    -1.9503370000     2.6835730000
   18      C      -0.0144180000    -0.8148680000     3.1492110000
   19      C      -1.4923410000    -1.2132660000     3.2358550000
   20      H       6.2965310000    -6.3376110000     1.1490040000
   21      H       3.7560330000    -3.3865340000    -1.9159640000
   22      H       2.4534680000    -0.6941860000     1.8920280000
   23      H       2.7228180000    -1.1828680000     3.5706260000
   24      H       4.4365940000    -4.1409200000     4.9182920000
   25      H       2.8725610000    -3.3008890000     4.8039250000
   26      H       4.3743070000    -2.3777870000     4.7811750000
   27      H       0.8056680000    -2.8034840000     3.3670020000
   28      H       0.5857560000    -2.2981270000     1.6956170000
   29      H       0.0904940000     0.0341400000     2.4609460000
   30      H       0.3195600000    -0.4536040000     4.1320950000
   31      H      -1.5979160000    -2.0641280000     3.9221220000
   32      H      -1.8245660000    -1.5737570000     2.2537590000
   33      C      -2.4145640000    -0.0779320000     3.6955000000
   34      C      -3.8922850000    -0.4772660000     3.7806150000
   35      C      -4.8144700000     0.6584520000     4.2389650000
   36      C      -6.2918200000     0.2587160000     4.3237480000
   37      C      -7.2145690000     1.3938480000     4.7820850000
   38      C      -8.6883460000     0.9841560000     4.8633890000
   39      H      -2.3095170000     0.7722670000     3.0086170000
   40      H      -2.0813900000     0.2836670000     4.6775840000
   41      H      -3.9976700000    -1.3274750000     4.4674030000
   42      H      -4.2251760000    -0.8388900000     2.7989240000
   43      H      -4.7093690000     1.5084200000     3.5518760000
   44      H      -4.4815140000     1.0203290000     5.2207840000
   45      H      -6.3981290000    -0.5913150000     5.0107570000
   46      H      -6.6258980000    -0.1027470000     3.3421990000
   47      H      -7.1095450000     2.2429590000     4.0954910000
   48      H      -6.8818010000     1.7548700000     5.7631250000
   49      H      -9.0599380000     0.6508630000     3.8889480000
   50      H      -9.3192010000     1.8152600000     5.1927450000
   51      H      -8.8306420000     0.1591090000     5.5689420000
 ----------------------------------------------------------------

  107    -967.9850265650      8.86E-09 Convergence criterion met
 Total energy in the final basis set = -967.98502656

                    Orbital Energies (a.u.)
 --------------------------------------------------------------

 Alpha MOs
 -- Occupied --
-19.0729 -19.0722 -10.2168 -10.2158 -10.1699 -10.1695 -10.1689 -10.1684
-10.1668 -10.1668 -10.1660 -10.1624 -10.1573 -10.1547 -10.1545 -10.1543
-10.1540 -10.1537 -10.1536 -10.1533 -10.1530 -10.1511 -10.1492  -0.9979
 -0.9951  -0.8547  -0.8174  -0.8054  -0.7891  -0.7670  -0.7508  -0.7469
 -0.7323  -0.7040  -0.6779  -0.6556  -0.6417  -0.6093  -0.5928  -0.5802
 -0.5721  -0.5670  -0.5660  -0.5475  -0.5119  -0.4865  -0.4792  -0.4660
 -0.4614  -0.4490  -0.4381  -0.4309  -0.4246  -0.4226  -0.4202  -0.4135
 -0.4113  -0.4067  -0.4029  -0.3943  -0.3879  -0.3816  -0.3794  -0.3758
 -0.3705  -0.3638  -0.3565  -0.3525  -0.3466  -0.3436  -0.3355  -0.3339
 -0.3289  -0.3273  -0.3212  -0.3176  -0.3170  -0.3143  -0.3133  -0.2954
 -0.2653  -0.2544  -0.2444  -0.2369  -0.2320  -0.1484

 Beta MOs
 -- Occupied --
-19.0669 -19.0663 -10.2150 -10.2140 -10.1696 -10.1691 -10.1684 -10.1679
-10.1668 -10.1667 -10.1647 -10.1611 -10.1573 -10.1547 -10.1545 -10.1543
-10.1540 -10.1537 -10.1535 -10.1533 -10.1531 -10.1511 -10.1493  -0.9873
 -0.9844  -0.8527  -0.8143  -0.8048  -0.7885  -0.7660  -0.7494  -0.7451
 -0.7311  -0.7020  -0.6766  -0.6509  -0.6390  -0.6085  -0.5917  -0.5784
 -0.5718  -0.5664  -0.5657  -0.5448  -0.5099  -0.4842  -0.4791  -0.4652
 -0.4593  -0.4484  -0.4375  -0.4291  -0.4221  -0.4195  -0.4191  -0.4112
 -0.4074  -0.4045  -0.4005  -0.3884  -0.3852  -0.3811  -0.3787  -0.3743
 -0.3631  -0.3579  -0.3537  -0.3463  -0.3422  -0.3373  -0.3346  -0.3309
 -0.3279  -0.3262  -0.3208  -0.3172  -0.3169  -0.3143  -0.3130  -0.2946
 -0.2478  -0.2441  -0.2388  -0.2279  -0.2261

          Ground-State Mulliken Net Atomic Charges

     Atom                 Charge (a.u.)    Spin (a.u.)
  --------------------------------------------------------
      1 C                     0.173019       0.034128
      2 C                    -0.461002       0.026233
      3 C                    -0.472310       0.027433
      4 C                     0.222458       0.010033
      5 C                    -0.208310       0.018182
      6 C                     0.079471       0.036820
      7 C                    -0.792074       0.104433
      8 C                     0.973272       0.090574
      9 C                     1.030660       0.084618
     10 C                    -0.837879       0.109671
     11 O                    -0.505023       0.221652
     12 O                    -0.488399       0.220643
     13 H                     0.193654      -0.002299
     14 C                    -0.487144       0.014971
     15 H                     0.192123      -0.002180
     16 C                    -0.560793      -0.002638
     17 C                    -0.972579       0.000491
     18 C                    -0.276306       0.005194
     19 C                    -0.010537      -0.003850
     20 H                     0.172819      -0.002278
     21 H                     0.172734      -0.002556
     22 H                     0.206360       0.003176
     23 H                     0.185368       0.000638
     24 H                     0.174945      -0.001587
     25 H                     0.170488       0.004365
     26 H                     0.184786       0.006067
     27 H                     0.136379      -0.000572
     28 H                     0.185309      -0.000607
     29 H                     0.125602       0.000191
     30 H                     0.117608      -0.000474
     31 H                     0.133885       0.000110
     32 H                     0.130525      -0.000162
     33 C                     0.066599      -0.000499
     34 C                    -0.013408      -0.000104
     35 C                    -0.247802       0.000154
     36 C                    -0.459347       0.000024
     37 C                    -0.292853       0.000011
     38 C                    -0.711745      -0.000005
     39 H                     0.134903      -0.000001
     40 H                     0.135307       0.000000
     41 H                     0.134099      -0.000005
     42 H                     0.134506       0.000004
     43 H                     0.131179       0.000003
     44 H                     0.131143      -0.000002
     45 H                     0.128530       0.000001
     46 H                     0.128371      -0.000000
     47 H                     0.135216      -0.000001
     48 H                     0.135165       0.000000
     49 H                     0.144769      -0.000000
     50 H                     0.151597      -0.000001
     51 H                     0.144661       0.000000
  --------------------------------------------------------
  Sum of atomic charges =    -1.000000

                    Cartesian Multipole Moments
 -----------------------------------------------------------------
    Charge (ESU x 10^10)
                -4.8032
    Dipole Moment (Debye)
         X     -20.0427      Y      18.1032      Z      -6.6835
       Tot      27.8227
    Quadrupole Moments (Debye-Ang)
        XX    -244.3992     XY      84.7264     YY    -228.8898
        XZ     -40.7876     YZ      40.6400     ZZ    -165.9618

 Total job time:  4234.16s(wall), 26481.16s(cpu)
        *  Thank you very much for using Q-Chem.  Have a nice day.  *
