 Q-Chem 5.4, Q-Chem, Inc., Pleasanton, CA (2021)
 Q-Chem 5.4.0 for Intel X86 EM64T Linux

User input:
--------------------------------------------------------------
$molecule
0 1
C                 17.2276580000      1.4626860000      0.1105210000
C                 16.5444550000      0.2724940000      0.7159110000
C                 16.0720350000      0.3317980000      1.9776640000
C                 16.1515450000      1.6036200000      2.7531060000
C                 16.7931470000      2.8139320000      2.1253200000
C                 17.2880360000      2.7402330000      0.8605810000
O                 17.7524020000      1.3752830000     -0.9918370000
O                 15.6911480000      1.6796160000      3.8765710000
C                 17.5146620000      4.3166420000     -0.9355160000
C                 17.1186290000      5.1846570000      2.5642500000
C                 16.4697340000     -0.9593310000     -0.1433740000
H                 18.1751230000      5.1530700000     -1.1604660000
H                 16.4873890000      4.6819420000     -0.8248180000
H                 17.5693210000      3.5740980000     -1.7297480000
H                 16.9160770000      5.7936650000      3.4437400000
H                 16.4733390000      5.5004890000      1.7412640000
H                 18.1626590000      5.2732750000      2.2697050000
C                 15.4063250000     -0.8308170000      2.6833400000
C                 13.9071150000     -0.8314280000      2.4796210000
C                 13.1261150000     -1.8337540000      2.0538260000
C                 11.6298190000     -1.6231270000      1.9320890000
C                 11.1170050000     -1.5628470000      0.4708600000
C                  9.6211090000     -1.4266290000      0.3987890000
C                  8.8914740000     -0.4075360000     -0.0770870000
C                  7.3778960000     -0.4736400000     -0.0380060000
C                  6.7230660000      0.5205740000      0.9533090000
C                  5.2212330000      0.4549990000      0.9159350000
C                  4.3700220000      0.1130170000      1.8935980000
C                  2.8765580000      0.1177600000      1.6372560000
C                 13.6160590000     -3.2160170000      1.6983150000
C                  9.4702750000      0.8470630000     -0.6846730000
C                  4.7885970000     -0.2933320000      3.2859470000
C                  2.1052860000      1.2243390000      2.4002610000
C                  0.6228650000      1.1555370000      2.1576840000
C                 -0.1703640000      2.0411700000      1.5381210000
C                 -1.6521700000      1.7599900000      1.3885920000
C                 -2.0982100000      1.4593160000     -0.0648660000
C                 -3.5835470000      1.2509690000     -0.1727230000
C                 -4.2553200000      0.1404450000     -0.5087270000
C                 -5.7706440000      0.1483760000     -0.5375910000
C                 -6.4317860000     -0.6848900000      0.5895920000
C                 -7.9317240000     -0.6968510000      0.4831930000
C                 -8.8390470000     -0.1800210000      1.3241120000
C                -10.3173730000     -0.2909320000      1.0088000000
C                -10.9890040000      1.0541160000      0.6322010000
C                -12.4653360000      0.9045480000      0.3884700000
C                -13.1504340000      1.0684100000     -0.7522310000
C                  0.3012840000      3.3543730000      0.9625780000
C                 -3.6067050000     -1.1687490000     -0.8875420000
C                 -8.5029930000      0.5226600000      2.6169590000
C                -12.5347260000      1.4830740000     -2.0664450000
C                -14.6494310000      0.8458110000     -0.7776180000
C                -15.0896910000     -0.4203560000     -1.5546530000
C                -16.5855020000     -0.5641330000     -1.6109770000
C                -17.3571170000     -1.5274140000     -1.0874470000
C                -16.8340090000     -2.7048980000     -0.3005560000
C                -18.8609830000     -1.4786470000     -1.2661930000
C                -19.4301760000     -2.6031720000     -2.1667330000
C                -20.9284610000     -2.5408330000     -2.2778900000
C                -21.6828040000     -2.3446500000     -3.3685210000
C                -21.1332600000     -2.1373940000     -4.7594170000
C                -23.1936630000     -2.3213760000     -3.2568050000
H                 15.6108690000     -0.7326980000      3.7538320000
H                 15.8547850000     -1.7652300000      2.3469910000
H                 13.4249540000      0.1076830000      2.7421600000
H                 11.3469210000     -0.6956330000      2.4374610000
H                 11.1057910000     -2.4357260000      2.4525800000
H                 11.4095130000     -2.4826930000     -0.0502360000
H                 11.6220550000     -0.7422730000     -0.0433450000
H                  9.0741320000     -2.2785350000      0.8035230000
H                  7.0617710000     -1.4866260000      0.2269840000
H                  6.9802110000     -0.2747680000     -1.0425250000
H                  7.0335620000      1.5406010000      0.6954490000
H                  7.1108920000      0.3266480000      1.9558630000
H                  4.7859060000      0.7134000000     -0.0498400000
H                  2.4566140000     -0.8567710000      1.9213080000
H                  2.6881420000      0.2388700000      0.5666320000
H                 14.6973070000     -3.3251050000      1.7795450000
H                 13.3290310000     -3.4910490000      0.6780560000
H                 13.1577230000     -3.9593240000      2.3611080000
H                 10.5584490000      0.8333190000     -0.7374580000
H                  9.1787030000      1.7349760000     -0.1137440000
H                  9.0860560000      0.9896580000     -1.7015760000
H                  5.8678080000     -0.3995280000      3.3919570000
H                  4.3283040000     -1.2504310000      3.5570960000
H                  4.4542900000      0.4362290000      4.0316430000
H                  2.5160970000      2.1961850000      2.1175320000
H                  2.2886930000      1.1112100000      3.4756200000
H                  0.1491700000      0.2486710000      2.5347350000
H                 -2.2243780000      2.6225520000      1.7562380000
H                 -1.9300780000      0.9102390000      2.0186900000
H                 -1.5413510000      0.5933880000     -0.4296320000
H                 -1.8163740000      2.3022920000     -0.7074080000
H                 -4.1780030000      2.1319820000      0.0710190000
H                 -6.1175930000     -0.2389960000     -1.5051590000
H                 -6.1337980000      1.1775900000     -0.4655780000
H                 -6.0984120000     -0.2954140000      1.5540390000
H                 -6.0691630000     -1.7182750000      0.5304750000
H                 -8.3130890000     -1.1864620000     -0.4133650000
H                -10.8435420000     -0.7111380000      1.8766470000
H                -10.4651370000     -0.9941690000      0.1841860000
H                -10.4761090000      1.4695750000     -0.2380590000
H                -10.8408850000      1.7696540000      1.4500440000
H                -13.0371450000      0.6103960000      1.2690710000
H                  1.3652460000      3.5307420000      1.1172820000
H                 -0.2474720000      4.1880430000      1.4165440000
H                  0.1112570000      3.4062810000     -0.1147380000
H                 -2.5181870000     -1.1224890000     -0.8845490000
H                 -3.9276020000     -1.4767200000     -1.8897440000
H                 -3.9049030000     -1.9713350000     -0.2046420000
H                 -7.4332820000      0.5513490000      2.8217120000
H                 -8.9937490000      0.0230150000      3.4605830000
H                 -8.8661010000      1.5558720000      2.6127960000
H                -11.4610990000      1.6559270000     -1.9993550000
H                -13.0019690000      2.4053590000     -2.4315900000
H                -12.6991900000      0.7238260000     -2.8384080000
H                -15.1390190000      1.7189030000     -1.2299060000
H                -15.0273710000      0.7727120000      0.2461950000
H                -14.6167390000     -1.2942850000     -1.1011630000
H                -14.7071310000     -0.3619880000     -2.5810240000
H                -17.0932820000      0.2407110000     -2.1432000000
H                -15.7685310000     -2.6320180000     -0.0844400000
H                -16.9987130000     -3.6470520000     -0.8347860000
H                -17.3654880000     -2.7901150000      0.6542740000
H                -19.1486570000     -0.5130520000     -1.6919660000
H                -19.3454480000     -1.5440370000     -0.2822990000
H                -19.1525790000     -3.5759960000     -1.7425140000
H                -18.9502660000     -2.5482270000     -3.1465430000
H                -21.4530650000     -2.6636180000     -1.3298760000
H                -20.0498900000     -2.0220240000     -4.7761240000
H                -21.5738830000     -1.2420730000     -5.2128010000
H                -21.3856510000     -2.9772820000     -5.4162190000
H                -23.4788340000     -2.3117130000     -2.2000840000
C                -23.9013710000     -3.5113520000     -3.9523710000
H                -23.5798810000     -1.3911710000     -3.6935820000
C                -25.3870210000     -3.5035820000     -3.7199930000
C                -26.3754320000     -3.3712520000     -4.6147510000
C                -27.8205390000     -3.3806930000     -4.1779440000
C                -26.1784180000     -3.2083030000     -6.1011340000
H                -23.4795710000     -4.4398450000     -3.5461920000
H                -23.6704430000     -3.5087070000     -5.0193470000
H                -25.6779430000     -3.6095580000     -2.6747590000
H                -27.9172040000     -3.5017230000     -3.0971500000
H                -28.3721540000     -4.1948520000     -4.6632980000
H                -28.3235110000     -2.4491190000     -4.4639190000
H                -25.1304740000     -3.1847780000     -6.3986820000
H                -26.6487980000     -2.2815600000     -6.4502550000
H                -26.6646120000     -4.0269520000     -6.6450010000
O                 17.9866400000      3.7763830000      0.3116040000
O                 16.8016820000      3.8460360000      2.9732950000
H                 17.1985820000     -1.7079350000      0.1869990000
H                 16.7012520000     -0.7140660000     -1.1784500000
H                 15.4792950000     -1.4144670000     -0.0890400000
$end

$rem
BASIS  =  6-311++G(d,p)
GUI  =  2
JOB_TYPE  =  SP
METHOD  =  B3LYP
SCF_CONVERGENCE  = 8
SOLVENT_METHOD = sm12
$end

$smx
solvent dimethylformamide
charges CM5
$end

--------------------------------------------------------------

             Standard Nuclear Orientation (Angstroms)
    I     Atom           X                Y                Z
 ----------------------------------------------------------------
    1      C      17.2276580000     1.4626860000     0.1105210000
    2      C      16.5444550000     0.2724940000     0.7159110000
    3      C      16.0720350000     0.3317980000     1.9776640000
    4      C      16.1515450000     1.6036200000     2.7531060000
    5      C      16.7931470000     2.8139320000     2.1253200000
    6      C      17.2880360000     2.7402330000     0.8605810000
    7      O      17.7524020000     1.3752830000    -0.9918370000
    8      O      15.6911480000     1.6796160000     3.8765710000
    9      C      17.5146620000     4.3166420000    -0.9355160000
   10      C      17.1186290000     5.1846570000     2.5642500000
   11      C      16.4697340000    -0.9593310000    -0.1433740000
   12      H      18.1751230000     5.1530700000    -1.1604660000
   13      H      16.4873890000     4.6819420000    -0.8248180000
   14      H      17.5693210000     3.5740980000    -1.7297480000
   15      H      16.9160770000     5.7936650000     3.4437400000
   16      H      16.4733390000     5.5004890000     1.7412640000
   17      H      18.1626590000     5.2732750000     2.2697050000
   18      C      15.4063250000    -0.8308170000     2.6833400000
   19      C      13.9071150000    -0.8314280000     2.4796210000
   20      C      13.1261150000    -1.8337540000     2.0538260000
   21      C      11.6298190000    -1.6231270000     1.9320890000
   22      C      11.1170050000    -1.5628470000     0.4708600000
   23      C       9.6211090000    -1.4266290000     0.3987890000
   24      C       8.8914740000    -0.4075360000    -0.0770870000
   25      C       7.3778960000    -0.4736400000    -0.0380060000
   26      C       6.7230660000     0.5205740000     0.9533090000
   27      C       5.2212330000     0.4549990000     0.9159350000
   28      C       4.3700220000     0.1130170000     1.8935980000
   29      C       2.8765580000     0.1177600000     1.6372560000
   30      C      13.6160590000    -3.2160170000     1.6983150000
   31      C       9.4702750000     0.8470630000    -0.6846730000
   32      C       4.7885970000    -0.2933320000     3.2859470000
   33      C       2.1052860000     1.2243390000     2.4002610000
   34      C       0.6228650000     1.1555370000     2.1576840000
   35      C      -0.1703640000     2.0411700000     1.5381210000
   36      C      -1.6521700000     1.7599900000     1.3885920000
   37      C      -2.0982100000     1.4593160000    -0.0648660000
   38      C      -3.5835470000     1.2509690000    -0.1727230000
   39      C      -4.2553200000     0.1404450000    -0.5087270000
   40      C      -5.7706440000     0.1483760000    -0.5375910000
   41      C      -6.4317860000    -0.6848900000     0.5895920000
   42      C      -7.9317240000    -0.6968510000     0.4831930000
   43      C      -8.8390470000    -0.1800210000     1.3241120000
   44      C     -10.3173730000    -0.2909320000     1.0088000000
   45      C     -10.9890040000     1.0541160000     0.6322010000
   46      C     -12.4653360000     0.9045480000     0.3884700000
   47      C     -13.1504340000     1.0684100000    -0.7522310000
   48      C       0.3012840000     3.3543730000     0.9625780000
   49      C      -3.6067050000    -1.1687490000    -0.8875420000
   50      C      -8.5029930000     0.5226600000     2.6169590000
   51      C     -12.5347260000     1.4830740000    -2.0664450000
   52      C     -14.6494310000     0.8458110000    -0.7776180000
   53      C     -15.0896910000    -0.4203560000    -1.5546530000
   54      C     -16.5855020000    -0.5641330000    -1.6109770000
   55      C     -17.3571170000    -1.5274140000    -1.0874470000
   56      C     -16.8340090000    -2.7048980000    -0.3005560000
   57      C     -18.8609830000    -1.4786470000    -1.2661930000
   58      C     -19.4301760000    -2.6031720000    -2.1667330000
   59      C     -20.9284610000    -2.5408330000    -2.2778900000
   60      C     -21.6828040000    -2.3446500000    -3.3685210000
   61      C     -21.1332600000    -2.1373940000    -4.7594170000
   62      C     -23.1936630000    -2.3213760000    -3.2568050000
   63      H      15.6108690000    -0.7326980000     3.7538320000
   64      H      15.8547850000    -1.7652300000     2.3469910000
   65      H      13.4249540000     0.1076830000     2.7421600000
   66      H      11.3469210000    -0.6956330000     2.4374610000
   67      H      11.1057910000    -2.4357260000     2.4525800000
   68      H      11.4095130000    -2.4826930000    -0.0502360000
   69      H      11.6220550000    -0.7422730000    -0.0433450000
   70      H       9.0741320000    -2.2785350000     0.8035230000
   71      H       7.0617710000    -1.4866260000     0.2269840000
   72      H       6.9802110000    -0.2747680000    -1.0425250000
   73      H       7.0335620000     1.5406010000     0.6954490000
   74      H       7.1108920000     0.3266480000     1.9558630000
   75      H       4.7859060000     0.7134000000    -0.0498400000
   76      H       2.4566140000    -0.8567710000     1.9213080000
   77      H       2.6881420000     0.2388700000     0.5666320000
   78      H      14.6973070000    -3.3251050000     1.7795450000
   79      H      13.3290310000    -3.4910490000     0.6780560000
   80      H      13.1577230000    -3.9593240000     2.3611080000
   81      H      10.5584490000     0.8333190000    -0.7374580000
   82      H       9.1787030000     1.7349760000    -0.1137440000
   83      H       9.0860560000     0.9896580000    -1.7015760000
   84      H       5.8678080000    -0.3995280000     3.3919570000
   85      H       4.3283040000    -1.2504310000     3.5570960000
   86      H       4.4542900000     0.4362290000     4.0316430000
   87      H       2.5160970000     2.1961850000     2.1175320000
   88      H       2.2886930000     1.1112100000     3.4756200000
   89      H       0.1491700000     0.2486710000     2.5347350000
   90      H      -2.2243780000     2.6225520000     1.7562380000
   91      H      -1.9300780000     0.9102390000     2.0186900000
   92      H      -1.5413510000     0.5933880000    -0.4296320000
   93      H      -1.8163740000     2.3022920000    -0.7074080000
   94      H      -4.1780030000     2.1319820000     0.0710190000
   95      H      -6.1175930000    -0.2389960000    -1.5051590000
   96      H      -6.1337980000     1.1775900000    -0.4655780000
   97      H      -6.0984120000    -0.2954140000     1.5540390000
   98      H      -6.0691630000    -1.7182750000     0.5304750000
   99      H      -8.3130890000    -1.1864620000    -0.4133650000
  100      H     -10.8435420000    -0.7111380000     1.8766470000
  101      H     -10.4651370000    -0.9941690000     0.1841860000
  102      H     -10.4761090000     1.4695750000    -0.2380590000
  103      H     -10.8408850000     1.7696540000     1.4500440000
  104      H     -13.0371450000     0.6103960000     1.2690710000
  105      H       1.3652460000     3.5307420000     1.1172820000
  106      H      -0.2474720000     4.1880430000     1.4165440000
  107      H       0.1112570000     3.4062810000    -0.1147380000
  108      H      -2.5181870000    -1.1224890000    -0.8845490000
  109      H      -3.9276020000    -1.4767200000    -1.8897440000
  110      H      -3.9049030000    -1.9713350000    -0.2046420000
  111      H      -7.4332820000     0.5513490000     2.8217120000
  112      H      -8.9937490000     0.0230150000     3.4605830000
  113      H      -8.8661010000     1.5558720000     2.6127960000
  114      H     -11.4610990000     1.6559270000    -1.9993550000
  115      H     -13.0019690000     2.4053590000    -2.4315900000
  116      H     -12.6991900000     0.7238260000    -2.8384080000
  117      H     -15.1390190000     1.7189030000    -1.2299060000
  118      H     -15.0273710000     0.7727120000     0.2461950000
  119      H     -14.6167390000    -1.2942850000    -1.1011630000
  120      H     -14.7071310000    -0.3619880000    -2.5810240000
  121      H     -17.0932820000     0.2407110000    -2.1432000000
  122      H     -15.7685310000    -2.6320180000    -0.0844400000
  123      H     -16.9987130000    -3.6470520000    -0.8347860000
  124      H     -17.3654880000    -2.7901150000     0.6542740000
  125      H     -19.1486570000    -0.5130520000    -1.6919660000
  126      H     -19.3454480000    -1.5440370000    -0.2822990000
  127      H     -19.1525790000    -3.5759960000    -1.7425140000
  128      H     -18.9502660000    -2.5482270000    -3.1465430000
  129      H     -21.4530650000    -2.6636180000    -1.3298760000
  130      H     -20.0498900000    -2.0220240000    -4.7761240000
  131      H     -21.5738830000    -1.2420730000    -5.2128010000
  132      H     -21.3856510000    -2.9772820000    -5.4162190000
  133      H     -23.4788340000    -2.3117130000    -2.2000840000
  134      C     -23.9013710000    -3.5113520000    -3.9523710000
  135      H     -23.5798810000    -1.3911710000    -3.6935820000
  136      C     -25.3870210000    -3.5035820000    -3.7199930000
  137      C     -26.3754320000    -3.3712520000    -4.6147510000
  138      C     -27.8205390000    -3.3806930000    -4.1779440000
  139      C     -26.1784180000    -3.2083030000    -6.1011340000
  140      H     -23.4795710000    -4.4398450000    -3.5461920000
  141      H     -23.6704430000    -3.5087070000    -5.0193470000
  142      H     -25.6779430000    -3.6095580000    -2.6747590000
  143      H     -27.9172040000    -3.5017230000    -3.0971500000
  144      H     -28.3721540000    -4.1948520000    -4.6632980000
  145      H     -28.3235110000    -2.4491190000    -4.4639190000
  146      H     -25.1304740000    -3.1847780000    -6.3986820000
  147      H     -26.6487980000    -2.2815600000    -6.4502550000
  148      H     -26.6646120000    -4.0269520000    -6.6450010000
  149      O      17.9866400000     3.7763830000     0.3116040000
  150      O      16.8016820000     3.8460360000     2.9732950000
  151      H      17.1985820000    -1.7079350000     0.1869990000
  152      H      16.7012520000    -0.7140660000    -1.1784500000
  153      H      15.4792950000    -1.4144670000    -0.0890400000
 ----------------------------------------------------------------

   14   -2603.9129353969      6.75e-09  Convergence criterion met
 Total energy in the final basis set =    -2603.9548743801

                    Orbital Energies (a.u.)
 --------------------------------------------------------------

 Alpha MOs
 -- Occupied --
-19.1725 -19.1537 -19.1330 -19.1285 -10.2808 -10.2773 -10.2628 -10.2473
-10.2215 -10.2150 -10.2102 -10.2066 -10.1816 -10.1797 -10.1793 -10.1771
-10.1767 -10.1767 -10.1767 -10.1766 -10.1766 -10.1766 -10.1765 -10.1716
-10.1714 -10.1711 -10.1708 -10.1708 -10.1708 -10.1708 -10.1708 -10.1707
-10.1706 -10.1701 -10.1700 -10.1699 -10.1699 -10.1699 -10.1699 -10.1698
-10.1697 -10.1695 -10.1689 -10.1647 -10.1641 -10.1640 -10.1637 -10.1635
-10.1634 -10.1634 -10.1634 -10.1633 -10.1633 -10.1633 -10.1632 -10.1632
-10.1632 -10.1632 -10.1631 -10.1631 -10.1631 -10.1629 -10.1625  -1.0978
 -1.0754  -1.0607  -1.0496  -0.8627  -0.8347  -0.8337  -0.8321  -0.8297
 -0.8266  -0.8230  -0.8189  -0.8145  -0.8100  -0.8063  -0.8032  -0.7812
 -0.7762  -0.7696  -0.7624  -0.7550  -0.7476  -0.7408  -0.7386  -0.7335
 -0.7277  -0.7238  -0.7165  -0.6943  -0.6913  -0.6909  -0.6905  -0.6897
 -0.6885  -0.6869  -0.6845  -0.6811  -0.6765  -0.6712  -0.6639  -0.6556
 -0.6473  -0.6380  -0.6280  -0.6181  -0.6090  -0.6010  -0.5943  -0.5941
 -0.5890  -0.5862  -0.5843  -0.5528  -0.5289  -0.5274  -0.5266  -0.5253
 -0.5243  -0.5230  -0.5208  -0.5184  -0.5165  -0.5151  -0.5141  -0.5104
 -0.4917  -0.4829  -0.4826  -0.4817  -0.4816  -0.4806  -0.4797  -0.4777
 -0.4747  -0.4706  -0.4692  -0.4657  -0.4594  -0.4588  -0.4524  -0.4523
 -0.4494  -0.4473  -0.4461  -0.4439  -0.4407  -0.4393  -0.4376  -0.4370
 -0.4356  -0.4331  -0.4329  -0.4319  -0.4251  -0.4231  -0.4213  -0.4198
 -0.4183  -0.4167  -0.4159  -0.4142  -0.4119  -0.4113  -0.4108  -0.4101
 -0.4081  -0.4054  -0.4051  -0.4044  -0.4027  -0.4007  -0.3999  -0.3966
 -0.3942  -0.3926  -0.3863  -0.3859  -0.3791  -0.3764  -0.3761  -0.3761
 -0.3756  -0.3752  -0.3744  -0.3737  -0.3737  -0.3726  -0.3725  -0.3719
 -0.3708  -0.3697  -0.3683  -0.3673  -0.3665  -0.3658  -0.3638  -0.3621
 -0.3611  -0.3591  -0.3577  -0.3533  -0.3528  -0.3484  -0.3479  -0.3448
 -0.3411  -0.3406  -0.3392  -0.3380  -0.3369  -0.3337  -0.3335  -0.3315
 -0.3311  -0.3303  -0.3271  -0.3227  -0.3179  -0.3139  -0.3116  -0.3115
 -0.2848  -0.2799  -0.2703  -0.2555  -0.2543  -0.2512  -0.2476  -0.2441
 -0.2410  -0.2396  -0.2358  -0.2321  -0.2290  -0.2260

          Ground-State Mulliken Net Atomic Charges

     Atom                 Charge (a.u.)
  ----------------------------------------
      1 C                    -0.995720
      2 C                     0.527806
      3 C                     1.182654
      4 C                    -1.457865
      5 C                    -0.253692
      6 C                     0.137802
      7 O                    -0.296371
      8 O                    -0.281007
      9 C                    -0.183827
     10 C                    -0.146524
     11 C                    -0.171552
     12 H                     0.221674
     13 H                     0.175034
     14 H                     0.128437
     15 H                     0.244162
     16 H                     0.220517
     17 H                     0.194339
     18 C                     0.384400
     19 C                    -0.998540
     20 C                     0.472828
     21 C                    -0.444107
     22 C                     0.024977
     23 C                    -0.543716
     24 C                     0.202069
     25 C                    -0.436547
     26 C                    -0.213199
     27 C                    -0.509442
     28 C                     0.296986
     29 C                    -0.219502
     30 C                    -0.279890
     31 C                    -0.543928
     32 C                    -0.481697
     33 C                    -0.257354
     34 C                    -0.534593
     35 C                     0.224672
     36 C                    -0.220791
     37 C                    -0.171419
     38 C                    -0.478905
     39 C                     0.172876
     40 C                    -0.233217
     41 C                    -0.165475
     42 C                    -0.565684
     43 C                     0.233364
     44 C                    -0.217662
     45 C                    -0.123844
     46 C                    -0.523211
     47 C                     0.272789
     48 C                    -0.483310
     49 C                    -0.503001
     50 C                    -0.492418
     51 C                    -0.496413
     52 C                    -0.390948
     53 C                    -0.198688
     54 C                    -0.521318
     55 C                     0.377963
     56 C                    -0.495046
     57 C                    -0.337759
     58 C                    -0.244387
     59 C                    -0.299095
     60 C                     0.362235
     61 C                    -0.498064
     62 C                    -0.624553
     63 H                     0.168940
     64 H                     0.271747
     65 H                     0.153896
     66 H                     0.129467
     67 H                     0.143354
     68 H                     0.129181
     69 H                     0.057464
     70 H                     0.192102
     71 H                     0.146444
     72 H                     0.137629
     73 H                     0.126325
     74 H                     0.092944
     75 H                     0.196028
     76 H                     0.150636
     77 H                     0.147413
     78 H                     0.172621
     79 H                     0.191366
     80 H                     0.171725
     81 H                     0.161815
     82 H                     0.183962
     83 H                     0.173551
     84 H                     0.153511
     85 H                     0.174263
     86 H                     0.189033
     87 H                     0.099013
     88 H                     0.127237
     89 H                     0.175472
     90 H                     0.133966
     91 H                     0.164949
     92 H                     0.094623
     93 H                     0.123298
     94 H                     0.183887
     95 H                     0.135751
     96 H                     0.157448
     97 H                     0.087429
     98 H                     0.124087
     99 H                     0.178448
    100 H                     0.132206
    101 H                     0.161229
    102 H                     0.092446
    103 H                     0.121813
    104 H                     0.191747
    105 H                     0.152343
    106 H                     0.175506
    107 H                     0.183886
    108 H                     0.155804
    109 H                     0.175795
    110 H                     0.183857
    111 H                     0.157875
    112 H                     0.175606
    113 H                     0.184211
    114 H                     0.158353
    115 H                     0.174252
    116 H                     0.185071
    117 H                     0.139164
    118 H                     0.154688
    119 H                     0.097984
    120 H                     0.128313
    121 H                     0.197162
    122 H                     0.154112
    123 H                     0.191236
    124 H                     0.174583
    125 H                     0.141176
    126 H                     0.155364
    127 H                     0.137681
    128 H                     0.101394
    129 H                     0.201696
    130 H                     0.146842
    131 H                     0.169412
    132 H                     0.198627
    133 H                     0.150400
    134 C                    -0.236981
    135 H                     0.157050
    136 C                    -0.289322
    137 C                     0.049652
    138 C                    -0.438865
    139 C                    -0.444957
    140 H                     0.162272
    141 H                     0.065773
    142 H                     0.148105
    143 H                     0.182504
    144 H                     0.163013
    145 H                     0.171205
    146 H                     0.169343
    147 H                     0.166801
    148 H                     0.165212
    149 O                    -0.183684
    150 O                    -0.209083
    151 H                     0.241612
    152 H                     0.168813
    153 H                     0.265376
  ----------------------------------------
  Sum of atomic charges =     0.000000

                    Cartesian Multipole Moments
 -----------------------------------------------------------------
    Charge (ESU x 10^10)
                 0.0000
    Dipole Moment (Debye)
         X      -1.0048      Y       0.7882      Z      -2.2817
       Tot       2.6148
    Quadrupole Moments (Debye-Ang)
        XX    -421.1505     XY      17.8308     YY    -371.3626
        XZ      -8.3808     YZ      -7.3587     ZZ    -406.4859

 Total job time:  39730.09s(wall), 97937.89s(cpu)
        *  Thank you very much for using Q-Chem.  Have a nice day.  *
