 Gaussian 16, Revision A.03,
 Gaussian 16:  ES64L-G16RevA.03 25-Dec-2016

 ----------------------------------------------------------------------
 #P UB3LYP/6-311++G(d,p) nosym opt freq SCRF=(PCM,Solvent=n,n-DiMethylF
 ormamide)
 ----------------------------------------------------------------------

 -------
 Radical
 -------
 Symbolic Z-matrix:
 Charge = -1 Multiplicity = 2

 SCF Done:  E(UB3LYP) =  -770.143823506     A.U. after   18 cycles
 SCF Done:  E(UB3LYP) =  -770.144139318     A.U. after   15 cycles
 SCF Done:  E(UB3LYP) =  -770.144184817     A.U. after   12 cycles
 SCF Done:  E(UB3LYP) =  -770.144187379     A.U. after   12 cycles
 SCF Done:  E(UB3LYP) =  -770.144188382     A.U. after   10 cycles
 SCF Done:  E(UB3LYP) =  -770.144188778     A.U. after   10 cycles
 SCF Done:  E(UB3LYP) =  -770.144188957     A.U. after   10 cycles
 SCF Done:  E(UB3LYP) =  -770.144189060     A.U. after    9 cycles
 Optimization completed.
    -- Stationary point found.
 Normal termination of Gaussian 16 at Sun Feb 11 16:07:57 2024.

 ----------------------------------------------------------------------
 #P Geom=AllCheck Guess=TCheck SCRF=Check GenChk UB3LYP/6-311++G(d,p) F
 req
 ----------------------------------------------------------------------

 Structure from the checkpoint file:  "332-rad.chk"
 -------
 Radical
 -------
 Charge = -1 Multiplicity = 2

                          Input orientation:
 ---------------------------------------------------------------------
 Center     Atomic      Atomic             Coordinates (Angstroms)
 Number     Number       Type             X           Y           Z
 ---------------------------------------------------------------------
      1          6           0        3.449340    2.735528    0.325068
      2          6           0        2.771327    1.399412    0.187967
      3          6           0        1.402010    1.290027    0.130215
      4          6           0        0.722043    0.041490    0.021448
      5          6           0        1.549393   -1.118380   -0.034373
      6          6           0        2.922842   -1.067332    0.008006
      7          6           0        3.758933   -2.315617   -0.076012
      8          6           0        3.606110    0.210573    0.127392
      9          8           0        4.869945    0.285665    0.175914
     10          6           0       -0.721530   -0.043151   -0.028381
     11          6           0       -1.412529   -1.278521    0.143309
     12          6           0       -2.782859   -1.386085    0.108618
     13          6           0       -3.474951   -2.705957    0.315474
     14          6           0       -3.605896   -0.210046   -0.122415
     15          8           0       -4.870051   -0.283897   -0.163027
     16          6           0       -2.910804    1.053836   -0.304893
     17          6           0       -1.537869    1.104569   -0.250374
     18          6           0       -3.733903    2.287096   -0.561308
     19          1           0        4.050107    2.783921    1.239306
     20          1           0        2.718708    3.546880    0.349722
     21          1           0        4.139633    2.916020   -0.505339
     22          1           0        0.822027    2.203176    0.198816
     23          1           0        1.086332   -2.092433   -0.142575
     24          1           0        3.130659   -3.203633   -0.173202
     25          1           0        4.441645   -2.279511   -0.931317
     26          1           0        4.387129   -2.433082    0.813063
     27          1           0       -0.842726   -2.179816    0.338199
     28          1           0       -4.156627   -2.666653    1.171499
     29          1           0       -4.087590   -2.972295   -0.552165
     30          1           0       -2.752215   -3.506753    0.486084
     31          1           0       -1.064331    2.066063   -0.411996
     32          1           0       -3.096546    3.162536   -0.703210
     33          1           0       -4.361365    2.167196   -1.450441
     34          1           0       -4.416390    2.489175    0.270925
 ---------------------------------------------------------------------

 SCF Done:  E(UB3LYP) =  -770.144189060     A.U. after    1 cycles

 Alpha  occ. eigenvalues --  -19.07369 -19.07368 -10.21835 -10.21832 -10.18163
 Alpha  occ. eigenvalues --  -10.18126 -10.16996 -10.16991 -10.16989 -10.16987
 Alpha  occ. eigenvalues --  -10.16652 -10.16651 -10.16649 -10.16647 -10.15761
 Alpha  occ. eigenvalues --  -10.15759 -10.15754 -10.15754  -0.99425  -0.99421
 Alpha  occ. eigenvalues --   -0.86001  -0.83267  -0.78110  -0.77772  -0.76737
 Alpha  occ. eigenvalues --   -0.71888  -0.68578  -0.67904  -0.66864  -0.65583
 Alpha  occ. eigenvalues --   -0.59730  -0.57981  -0.55785  -0.54927  -0.49716
 Alpha  occ. eigenvalues --   -0.49287  -0.45725  -0.44791  -0.44338  -0.42985
 Alpha  occ. eigenvalues --   -0.42689  -0.41107  -0.41036  -0.40597  -0.40588
 Alpha  occ. eigenvalues --   -0.40444  -0.39626  -0.39547  -0.39325  -0.37511
 Alpha  occ. eigenvalues --   -0.37023  -0.36397  -0.36150  -0.36035  -0.35059
 Alpha  occ. eigenvalues --   -0.34989  -0.34114  -0.32943  -0.30434  -0.24851
 Alpha  occ. eigenvalues --   -0.24242  -0.23811  -0.23473  -0.21827  -0.16363
 Alpha virt. eigenvalues --   -0.02125  -0.01372  -0.00687   0.00160   0.00535
 Alpha virt. eigenvalues --    0.00930   0.01551   0.02045   0.02667   0.03195
 Alpha virt. eigenvalues --    0.03296   0.03564   0.04348   0.04489   0.05168

  Beta  occ. eigenvalues --  -19.06901 -19.06900 -10.21765 -10.21762 -10.17981
  Beta  occ. eigenvalues --  -10.17943 -10.16884 -10.16880 -10.16877 -10.16875
  Beta  occ. eigenvalues --  -10.16643 -10.16642 -10.16640 -10.16638 -10.15768
  Beta  occ. eigenvalues --  -10.15767 -10.15762 -10.15761  -0.98606  -0.98602
  Beta  occ. eigenvalues --   -0.85607  -0.82902  -0.77965  -0.77624  -0.76317
  Beta  occ. eigenvalues --   -0.71630  -0.68509  -0.67727  -0.66819  -0.65058
  Beta  occ. eigenvalues --   -0.59486  -0.57753  -0.55533  -0.54688  -0.49547
  Beta  occ. eigenvalues --   -0.49163  -0.45569  -0.44478  -0.44141  -0.42395
  Beta  occ. eigenvalues --   -0.42129  -0.41057  -0.40923  -0.40479  -0.40470
  Beta  occ. eigenvalues --   -0.40205  -0.39447  -0.39420  -0.39282  -0.37468
  Beta  occ. eigenvalues --   -0.36474  -0.36194  -0.35941  -0.34941  -0.34924
  Beta  occ. eigenvalues --   -0.33990  -0.33283  -0.32751  -0.28812  -0.24501
  Beta  occ. eigenvalues --   -0.23845  -0.23369  -0.23042  -0.19308
  Beta virt. eigenvalues --   -0.11159  -0.00881  -0.00667  -0.00594   0.00183
  Beta virt. eigenvalues --    0.00539   0.01556   0.01751   0.02071   0.02811
  Beta virt. eigenvalues --    0.03249   0.03346   0.03617   0.04364   0.05217

 Mulliken charges and spin densities:
               1          2
     1  C   -0.302430  -0.000981
     2  C    0.537071   0.075221
     3  C   -0.552871  -0.011759
     4  C    1.229065   0.173425
     5  C   -0.556133  -0.011684
     6  C    0.545980   0.075505
     7  C   -0.300604  -0.001002
     8  C   -1.695327   0.013672
     9  O   -0.474515   0.175284
    10  C    1.224784   0.173370
    11  C   -0.551143  -0.011735
    12  C    0.540281   0.075645
    13  C   -0.303110  -0.000976
    14  C   -1.693442   0.013571
    15  O   -0.474350   0.175352
    16  C    0.545324   0.075457
    17  C   -0.552081  -0.011713
    18  C   -0.300890  -0.001016
    19  H    0.166072   0.003753
    20  H    0.149761  -0.000248
    21  H    0.166780   0.004034
    22  H    0.051296  -0.001451
    23  H    0.050660  -0.001456
    24  H    0.150264  -0.000246
    25  H    0.165238   0.003629
    26  H    0.167723   0.004156
    27  H    0.050600  -0.001455
    28  H    0.165365   0.003652
    29  H    0.167865   0.004157
    30  H    0.149865  -0.000245
    31  H    0.049675  -0.001457
    32  H    0.150335  -0.000241
    33  H    0.164696   0.003554
    34  H    0.168195   0.004228
 Sum of Mulliken charges =  -1.00000   1.00000

 Dipole moment (field-independent basis, Debye):
    X=             -0.0031    Y=             -0.0040    Z=             -0.0259  Tot=              0.0264
 Quadrupole moment (field-independent basis, Debye-Ang):
   XX=           -225.8926   YY=           -103.0900   ZZ=           -114.0569
   XY=             -7.1915   XZ=             -3.8701   YZ=             -0.7546

  Exact polarizability:1076.310  45.834 295.602  31.713  -4.038 168.616
 Approx polarizability:1005.794  40.766 312.527  28.529  -3.913 192.423

                      1                      2                      3
                      A                      A                      A
 Frequencies --     29.5309                52.7274                88.7287
 Red. masses --      3.4303                 6.1407                 4.1435
 Frc consts  --      0.0018                 0.0101                 0.0192
 IR Inten    --      0.0005                 9.1796                 2.2625

                      4                      5                      6
                      A                      A                      A
 Frequencies --    109.5535               119.2455               134.9679
 Red. masses --      3.7787                 3.2201                 1.0896
 Frc consts  --      0.0267                 0.0270                 0.0117
 IR Inten    --      0.4906                19.0197                 1.6116

                      7                      8                      9
                      A                      A                      A
 Frequencies --    143.5839               153.1229               163.0742
 Red. masses --      1.0601                 1.1097                 1.1018
 Frc consts  --      0.0129                 0.0153                 0.0173
 IR Inten    --      0.7976                 1.4548                 1.7830

                     10                     11                     12
                      A                      A                      A
 Frequencies --    188.8642               227.8039               230.0454
 Red. masses --      3.2560                 3.4881                 2.8587
 Frc consts  --      0.0684                 0.1067                 0.0891
 IR Inten    --      0.1315                 0.0155                 0.0036

                     13                     14                     15
                      A                      A                      A
 Frequencies --    250.3708               259.7503               277.5661
 Red. masses --      2.8269                 3.3935                 2.6214
 Frc consts  --      0.1044                 0.1349                 0.1190
 IR Inten    --      0.0190                 0.4753                31.4640

                     16                     17                     18
                      A                      A                      A
 Frequencies --    307.2443               310.5210               325.9608
 Red. masses --      4.3386                 4.7389                 4.4562
 Frc consts  --      0.2413                 0.2692                 0.2790
 IR Inten    --      0.6067                 1.0993                26.5319

                     19                     20                     21
                      A                      A                      A
 Frequencies --    347.1082               364.8070               468.6642
 Red. masses --      6.4398                 4.6740                 3.0902
 Frc consts  --      0.4571                 0.3665                 0.3999
 IR Inten    --      0.4527                 0.4760                 0.0235

                     22                     23                     24
                      A                      A                      A
 Frequencies --    475.3106               478.8425               501.2825
 Red. masses --      3.2687                 5.9951                 4.4167
 Frc consts  --      0.4351                 0.8099                 0.6539
 IR Inten    --     15.6556               416.5192                 6.3182

                     25                     26                     27
                      A                      A                      A
 Frequencies --    518.5114               528.2857               570.6946
 Red. masses --      4.7928                 5.5773                 3.6782
 Frc consts  --      0.7592                 0.9171                 0.7058
 IR Inten    --      0.0154                 0.0064                 0.5526

                     28                     29                     30
                      A                      A                      A
 Frequencies --    605.0916               624.9983               645.1802
 Red. masses --      4.7727                 3.4143                 3.1665
 Frc consts  --      1.0296                 0.7858                 0.7766
 IR Inten    --      6.2322                 0.0047                 0.3409

                     31                     32                     33
                      A                      A                      A
 Frequencies --    680.1067               770.9117               773.4164
 Red. masses --      5.8054                 5.4843                 5.6277
 Frc consts  --      1.5821                 1.9203                 1.9834
 IR Inten    --     94.3916                16.8324                 0.7417

                     34                     35                     36
                      A                      A                      A
 Frequencies --    788.2958               852.5889               881.3926
 Red. masses --      4.2847                 4.9678                 1.3637
 Frc consts  --      1.5687                 2.1276                 0.6242
 IR Inten    --      0.0011                30.2535                 0.0138

                     37                     38                     39
                      A                      A                      A
 Frequencies --    887.9449               898.0117               900.2269
 Red. masses --      1.3010                 1.3674                 1.5525
 Frc consts  --      0.6044                 0.6497                 0.7413
 IR Inten    --      2.3195               100.9735                 6.7831

                     40                     41                     42
                      A                      A                      A
 Frequencies --    947.3094               955.5417               956.3835
 Red. masses --      3.4323                 3.2464                 3.9367
 Frc consts  --      1.8147                 1.7464                 2.1215
 IR Inten    --     37.3845                 0.3015                 0.0092

                     43                     44                     45
                      A                      A                      A
 Frequencies --    983.9259              1028.5535              1042.3823
 Red. masses --      1.8025                 1.7964                 1.7612
 Frc consts  --      1.0281                 1.1197                 1.1275
 IR Inten    --    150.1693                 0.0112                 0.0398

                     46                     47                     48
                      A                      A                      A
 Frequencies --   1045.0441              1050.2247              1051.2969
 Red. masses --      1.7475                 1.5134                 1.5031
 Frc consts  --      1.1245                 0.9835                 0.9788
 IR Inten    --      0.2783                 1.2925                 1.7816

                     49                     50                     51
                      A                      A                      A
 Frequencies --   1052.0088              1052.7770              1085.1869
 Red. masses --      1.5139                 1.5066                 1.7468
 Frc consts  --      0.9871                 0.9838                 1.2120
 IR Inten    --      1.9733                 3.1851               588.5832

                     52                     53                     54
                      A                      A                      A
 Frequencies --   1198.5489              1235.7324              1243.2457
 Red. masses --      2.1206                 4.3420                 1.9768
 Frc consts  --      1.7948                 3.9065                 1.8002
 IR Inten    --      0.0061              1033.3547                 0.1754

                     55                     56                     57
                      A                      A                      A
 Frequencies --   1256.4363              1308.3271              1327.7343
 Red. masses --      6.2058                 1.4589                 2.7185
 Frc consts  --      5.7720                 1.4713                 2.8235
 IR Inten    --      2.4754                 8.2850                 0.1111

                     58                     59                     60
                      A                      A                      A
 Frequencies --   1342.5378              1378.6065              1401.6915
 Red. masses --      2.8331                 1.9916                 1.3064
 Frc consts  --      3.0086                 2.2301                 1.5123
 IR Inten    --      0.0023                 0.2979                55.8237

                     61                     62                     63
                      A                      A                      A
 Frequencies --   1401.9914              1403.0791              1403.5211
 Red. masses --      1.3030                 1.2949                 1.2941
 Frc consts  --      1.5090                 1.5019                 1.5020
 IR Inten    --     10.4026                 8.5144                15.7173

                     64                     65                     66
                      A                      A                      A
 Frequencies --   1430.6612              1440.6556              1458.6358
 Red. masses --      2.9244                 2.4441                 1.0461
 Frc consts  --      3.5267                 2.9888                 1.3113
 IR Inten    --      8.6119                 0.0576                12.3784

                     67                     68                     69
                      A                      A                      A
 Frequencies --   1458.7237              1460.6077              1460.9535
 Red. masses --      1.0525                 1.0488                 1.0523
 Frc consts  --      1.3195                 1.3183                 1.3233
 IR Inten    --     10.7698                20.2717                 7.6682

                     70                     71                     72
                      A                      A                      A
 Frequencies --   1464.5335              1469.3940              1480.4640
 Red. masses --      1.4122                 1.9885                 1.4459
 Frc consts  --      1.7847                 2.5296                 1.8671
 IR Inten    --      4.5963              2917.1241                 0.2021

                     73                     74                     75
                      A                      A                      A
 Frequencies --   1487.9065              1493.3919              1501.0793
 Red. masses --      1.2830                 1.8757                 3.2392
 Frc consts  --      1.6736                 2.4647                 4.3003
 IR Inten    --     16.4486              3426.9214                 3.1874

                     76                     77                     78
                      A                      A                      A
 Frequencies --   1535.6652              1536.3053              1550.6847
 Red. masses --      4.1365                 3.9682                 4.2319
 Frc consts  --      5.7474                 5.5182                 5.9956
 IR Inten    --      0.0776                 0.0407                 0.8816

                     79                     80                     81
                      A                      A                      A
 Frequencies --   1629.1112              1641.1609              3015.0396
 Red. masses --      4.9506                 5.7306                 1.0365
 Frc consts  --      7.7412                 9.0939                 5.5515
 IR Inten    --      0.0026               540.5145               157.8419

                     82                     83                     84
                      A                      A                      A
 Frequencies --   3015.4816              3015.9182              3016.6193
 Red. masses --      1.0365                 1.0365                 1.0365
 Frc consts  --      5.5529                 5.5546                 5.5575
 IR Inten    --    170.9461               182.7357                24.0016

                     85                     86                     87
                      A                      A                      A
 Frequencies --   3057.1676              3057.7480              3058.4608
 Red. masses --      1.0992                 1.0993                 1.0989
 Frc consts  --      6.0529                 6.0557                 6.0566
 IR Inten    --     38.0157                38.7452                34.2793

                     88                     89                     90
                      A                      A                      A
 Frequencies --   3058.6480              3095.3338              3095.3707
 Red. masses --      1.0991                 1.1012                 1.1012
 Frc consts  --      6.0580                 6.2164                 6.2165
 IR Inten    --     36.5736                12.4047                51.7271

                     91                     92                     93
                      A                      A                      A
 Frequencies --   3095.6010              3095.6667              3160.2500
 Red. masses --      1.1013                 1.1012                 1.0898
 Frc consts  --      6.2178                 6.2176                 6.4130
 IR Inten    --     32.2933                15.0755                 5.4584

                     94                     95                     96
                      A                      A                      A
 Frequencies --   3161.5463              3177.5440              3180.0952
 Red. masses --      1.0896                 1.0863                 1.0873
 Frc consts  --      6.4170                 6.4624                 6.4784
 IR Inten    --     19.5187                77.8637                 1.0374

 - Thermochemistry -
 -------------------
 Temperature   298.150 Kelvin.  Pressure   1.00000 Atm.
 Atom     1 has atomic number  6 and mass  12.00000

 Molecular mass:   240.11503 amu.
 Principal axes and moments of inertia in atomic units:
                           1         2         3
     Eigenvalues --  2069.947318607.68670**********
           X            0.99771  -0.05654  -0.03711
           Y            0.05820   0.99728   0.04526
           Z            0.03445  -0.04731   0.99829
 This molecule is an asymmetric top.
 Rotational symmetry number  1.
 Warning -- assumption of classical behavior for rotation
           may cause significant error
 Rotational temperatures (Kelvin)      0.04184     0.01006     0.00819
 Rotational constants (GHZ):           0.87188     0.20967     0.17073
 Zero-point vibrational energy     717417.5 (Joules/Mol)
                                  171.46691 (Kcal/Mol)
 Warning -- explicit consideration of  28 degrees of freedom as
           vibrations may cause significant error
 Vibrational temperatures:     42.49    75.86   127.66   157.62   171.57
          (Kelvin)            194.19   206.59   220.31   234.63   271.73
                              327.76   330.98   360.23   373.72   399.36
                              442.06   446.77   468.98   499.41   524.88
                              674.30   683.87   688.95   721.23   746.02
                              760.09   821.10   870.59   899.23   928.27
                              978.52  1109.17  1112.77  1134.18  1226.69
                             1268.13  1277.55  1292.04  1295.23  1362.97
                             1374.81  1376.02  1415.65  1479.86  1499.76
                             1503.59  1511.04  1512.58  1513.61  1514.71
                             1561.34  1724.44  1777.94  1788.75  1807.73
                             1882.39  1910.31  1931.61  1983.51  2016.72
                             2017.15  2018.72  2019.35  2058.40  2072.78
                             2098.65  2098.78  2101.49  2101.99  2107.14
                             2114.13  2130.06  2140.77  2148.66  2159.72
                             2209.48  2210.40  2231.09  2343.93  2361.26
                             4337.97  4338.61  4339.23  4340.24  4398.58
                             4399.42  4400.44  4400.71  4453.49  4453.55
                             4453.88  4453.97  4546.89  4548.76  4571.78
                             4575.45

 Zero-point correction=                           0.273250 (Hartree/Particle)
 Thermal correction to Energy=                    0.290758
 Thermal correction to Enthalpy=                  0.291702
 Thermal correction to Gibbs Free Energy=         0.227527
 Sum of electronic and zero-point Energies=           -769.870939
 Sum of electronic and thermal Energies=              -769.853431
 Sum of electronic and thermal Enthalpies=            -769.852487
 Sum of electronic and thermal Free Energies=         -769.916663

                     E (Thermal)             CV                S
                      KCal/Mol        Cal/Mol-Kelvin    Cal/Mol-Kelvin
 Total                  182.454             66.516            135.069
 Electronic               0.000              0.000              1.377
 Translational            0.889              2.981             42.329
 Rotational               0.889              2.981             33.598
 Vibrational            180.676             60.554             57.765
 Vibration     1          0.593              1.984              5.861
 Vibration     2          0.596              1.977              4.712
 Vibration     3          0.602              1.957              3.688
 Vibration     4          0.606              1.942              3.277
 Vibration     5          0.609              1.933              3.113
 Vibration     6          0.613              1.918              2.874
 Vibration     7          0.616              1.910              2.756
 Vibration     8          0.619              1.899              2.633
 Vibration     9          0.623              1.888              2.514
 Vibration    10          0.633              1.855              2.239
 Vibration    11          0.651              1.799              1.896
 Vibration    12          0.652              1.795              1.879
 Vibration    13          0.663              1.762              1.728
 Vibration    14          0.668              1.746              1.663
 Vibration    15          0.679              1.715              1.549
 Vibration    16          0.697              1.660              1.377
 Vibration    17          0.699              1.654              1.360
 Vibration    18          0.710              1.624              1.280
 Vibration    19          0.725              1.581              1.179
 Vibration    20          0.738              1.545              1.102
 Vibration    21          0.826              1.320              0.741
 Vibration    22          0.832              1.305              0.723
 Vibration    23          0.835              1.297              0.713
 Vibration    24          0.857              1.247              0.655
 Vibration    25          0.874              1.209              0.613
 Vibration    26          0.883              1.187              0.591
 Vibration    27          0.927              1.095              0.503
 Vibration    28          0.964              1.021              0.441

                           ! Non-Optimized Parameters !
 Normal termination of Gaussian 16 at Sun Feb 11 17:37:38 2024.
