 Q-Chem 5.4, Q-Chem, Inc., Pleasanton, CA (2021)
 Q-Chem 5.4.0 for Intel X86 EM64T Linux

User input:
--------------------------------------------------------------
$molecule
-2 1
O                 -0.0509080000     -1.5602180000     -2.3937620000
C                 -0.0275170000     -0.8456580000     -1.3298680000
C                  1.2062980000     -0.4614150000     -0.6723400000
C                  2.4280500000     -0.8836960000     -1.2144810000
C                  3.6652980000     -0.5625890000     -0.6510710000
C                  4.9116990000     -0.9912530000     -1.2015410000
C                  6.1131980000     -0.6599110000     -0.6255140000
C                  6.1392510000      0.1403470000      0.5660080000
C                  4.9629080000      0.5726880000      1.1265320000
C                  3.6917540000      0.2509630000      0.5595490000
C                  2.4789830000      0.6759960000      1.1067750000
C                  1.2328740000      0.3584590000      0.5483190000
C                  0.0276040000      0.8461110000      1.1895200000
O                  0.0507270000      1.5605250000      2.2538300000
C                 -1.2061640000      0.4616150000      0.5322250000
C                 -2.4281460000      0.8832270000      1.0748890000
C                 -3.6652500000      0.5622070000      0.5113630000
C                 -4.9119540000      0.9906480000      1.0618960000
C                 -6.1131620000      0.6593650000      0.4855310000
C                 -6.1392500000     -0.1407180000     -0.7061430000
C                 -4.9626300000     -0.5724070000     -1.2668360000
C                 -3.6918010000     -0.2503750000     -0.6997060000
C                 -2.4787980000     -0.6750480000     -1.2472570000
C                 -1.2330690000     -0.3578400000     -0.6884190000
H                  2.3768940000     -1.4878790000     -2.1161130000
H                  4.8884940000     -1.5977750000     -2.1045640000
H                  7.0464610000     -1.0006950000     -1.0665510000
H                  7.0922070000      0.4011070000      1.0194370000
H                  4.9794210000      1.1794840000      2.0295150000
H                  2.4671530000      1.2828050000      2.0080180000
H                 -2.3769000000      1.4871050000      1.9767000000
H                 -4.8889130000      1.5967520000      1.9651820000
H                 -7.0466130000      0.9993160000      0.9269100000
H                 -7.0921900000     -0.4009360000     -1.1598410000
H                 -4.9789490000     -1.1787620000     -2.1701040000
H                 -2.4670620000     -1.2815450000     -2.1486880000
$end

$rem
BASIS  =  6-311++G(d,p)
GUI  =  2
JOB_TYPE  =  SP
METHOD  =  B3LYP
SCF_CONVERGENCE  = 8
SOLVENT_METHOD = sm12
$end

$smx
solvent dimethylformamide
charges CM5
$end

--------------------------------------------------------------

             Standard Nuclear Orientation (Angstroms)
    I     Atom           X                Y                Z
 ----------------------------------------------------------------
    1      O      -0.0509080000    -1.5602180000    -2.3937620000
    2      C      -0.0275170000    -0.8456580000    -1.3298680000
    3      C       1.2062980000    -0.4614150000    -0.6723400000
    4      C       2.4280500000    -0.8836960000    -1.2144810000
    5      C       3.6652980000    -0.5625890000    -0.6510710000
    6      C       4.9116990000    -0.9912530000    -1.2015410000
    7      C       6.1131980000    -0.6599110000    -0.6255140000
    8      C       6.1392510000     0.1403470000     0.5660080000
    9      C       4.9629080000     0.5726880000     1.1265320000
   10      C       3.6917540000     0.2509630000     0.5595490000
   11      C       2.4789830000     0.6759960000     1.1067750000
   12      C       1.2328740000     0.3584590000     0.5483190000
   13      C       0.0276040000     0.8461110000     1.1895200000
   14      O       0.0507270000     1.5605250000     2.2538300000
   15      C      -1.2061640000     0.4616150000     0.5322250000
   16      C      -2.4281460000     0.8832270000     1.0748890000
   17      C      -3.6652500000     0.5622070000     0.5113630000
   18      C      -4.9119540000     0.9906480000     1.0618960000
   19      C      -6.1131620000     0.6593650000     0.4855310000
   20      C      -6.1392500000    -0.1407180000    -0.7061430000
   21      C      -4.9626300000    -0.5724070000    -1.2668360000
   22      C      -3.6918010000    -0.2503750000    -0.6997060000
   23      C      -2.4787980000    -0.6750480000    -1.2472570000
   24      C      -1.2330690000    -0.3578400000    -0.6884190000
   25      H       2.3768940000    -1.4878790000    -2.1161130000
   26      H       4.8884940000    -1.5977750000    -2.1045640000
   27      H       7.0464610000    -1.0006950000    -1.0665510000
   28      H       7.0922070000     0.4011070000     1.0194370000
   29      H       4.9794210000     1.1794840000     2.0295150000
   30      H       2.4671530000     1.2828050000     2.0080180000
   31      H      -2.3769000000     1.4871050000     1.9767000000
   32      H      -4.8889130000     1.5967520000     1.9651820000
   33      H      -7.0466130000     0.9993160000     0.9269100000
   34      H      -7.0921900000    -0.4009360000    -1.1598410000
   35      H      -4.9789490000    -1.1787620000    -2.1701040000
   36      H      -2.4670620000    -1.2815450000    -2.1486880000
 ----------------------------------------------------------------

   17    -996.2747864639      8.98e-09  Convergence criterion met
 Total energy in the final basis set =     -996.5507813128

                    Orbital Energies (a.u.)
 --------------------------------------------------------------

 Alpha MOs
 -- Occupied --
-19.0330 -19.0327 -10.1906 -10.1904 -10.1840 -10.1840 -10.1839 -10.1839
-10.1816 -10.1816 -10.1812 -10.1811 -10.1808 -10.1808 -10.1805 -10.1805
-10.1679 -10.1679 -10.1678 -10.1678 -10.1584 -10.1584 -10.1581 -10.1581
 -0.9523  -0.9493  -0.8710  -0.8706  -0.8237  -0.8139  -0.7763  -0.7756
 -0.7619  -0.7293  -0.7243  -0.7213  -0.6576  -0.6512  -0.6177  -0.6152
 -0.5965  -0.5881  -0.5648  -0.5400  -0.5204  -0.5148  -0.5118  -0.4755
 -0.4648  -0.4591  -0.4485  -0.4476  -0.4350  -0.4327  -0.4188  -0.4159
 -0.4064  -0.4014  -0.3992  -0.3927  -0.3889  -0.3740  -0.3738  -0.3680
 -0.3614  -0.3503  -0.3401  -0.3351  -0.3291  -0.3236  -0.3144  -0.2951
 -0.2944  -0.2868  -0.2370  -0.2363  -0.2225  -0.2167  -0.2116  -0.2058
 -0.1123

          Ground-State Mulliken Net Atomic Charges

     Atom                 Charge (a.u.)
  ----------------------------------------
      1 O                    -0.343602
      2 C                    -1.961167
      3 C                    -1.637357
      4 C                    -1.320455
      5 C                    -0.445724
      6 C                     1.541519
      7 C                     1.771750
      8 C                     1.771966
      9 C                     1.544473
     10 C                    -0.456753
     11 C                    -1.323185
     12 C                    -1.648527
     13 C                    -1.962632
     14 O                    -0.344880
     15 C                    -1.645942
     16 C                    -1.326372
     17 C                    -0.454562
     18 C                     1.542508
     19 C                     1.773025
     20 C                     1.772647
     21 C                     1.543978
     22 C                    -0.446012
     23 C                    -1.317647
     24 C                    -1.640355
     25 H                    -0.002344
     26 H                     0.354617
     27 H                     0.401447
     28 H                     0.401316
     29 H                     0.354624
     30 H                    -0.003157
     31 H                    -0.003025
     32 H                     0.354941
     33 H                     0.401373
     34 H                     0.401501
     35 H                     0.354372
     36 H                    -0.002360
  ----------------------------------------
  Sum of atomic charges =    -2.000000

                    Cartesian Multipole Moments
 -----------------------------------------------------------------
    Charge (ESU x 10^10)
                -9.6064
    Dipole Moment (Debye)
         X      -0.0080      Y      -0.0095      Z       0.6596
       Tot       0.6597
    Quadrupole Moments (Debye-Ang)
        XX    -206.4525     XY       1.7519     YY    -167.7023
        XZ      -0.8981     YZ     -16.7986     ZZ    -181.4260

 Total job time:  1474.76s(wall), 11353.55s(cpu)
        *  Thank you very much for using Q-Chem.  Have a nice day.  *
