 Gaussian 16, Revision A.03,
 Gaussian 16:  ES64L-G16RevA.03 25-Dec-2016

 ----------------------------------------------------------------------
 #P UB3LYP/genecp nosym opt freq SCRF=(PCM,Solvent=n,n-DiMethylFormamid
 e)
 ----------------------------------------------------------------------

 -------
 Radical
 -------
 Symbolic Z-matrix:
 Charge = -1 Multiplicity = 2

 SCF Done:  E(UB3LYP) =  -1133.41081836     A.U. after   21 cycles
 SCF Done:  E(UB3LYP) =  -1133.41095585     A.U. after   15 cycles
 SCF Done:  E(UB3LYP) =  -1133.41098250     A.U. after   13 cycles
 SCF Done:  E(UB3LYP) =  -1133.41096051     A.U. after   14 cycles
 SCF Done:  E(UB3LYP) =  -1133.41107213     A.U. after   14 cycles
 SCF Done:  E(UB3LYP) =  -1133.41107305     A.U. after   11 cycles
 Optimization completed.
    -- Stationary point found.
 Normal termination of Gaussian 16 at Sat Feb 10 10:48:49 2024.

 ------------------------------------------------------------------
 #P Geom=AllCheck Guess=TCheck SCRF=Check GenChk UB3LYP/GenECP Freq
 ------------------------------------------------------------------

 Structure from the checkpoint file:  "016-rad.chk"
 -------
 Radical
 -------
 Charge = -1 Multiplicity = 2

                          Input orientation:
 ---------------------------------------------------------------------
 Center     Atomic      Atomic             Coordinates (Angstroms)
 Number     Number       Type             X           Y           Z
 ---------------------------------------------------------------------
      1          6           0       -1.755148    1.455801    1.045510
      2          6           0       -2.953643    0.684238    0.806860
      3          6           0       -3.000243   -0.538999    0.196655
      4          6           0       -1.746808   -1.150917   -0.265606
      5          6           0       -0.522835   -0.379782   -0.033864
      6          6           0       -0.517682    0.849298    0.581307
      7          8           0       -1.706873   -2.273434   -0.831994
      8          8           0       -1.802918    2.578578    1.619654
      9         53           0        1.220445    2.005143    0.932624
     10         53           0        1.236842   -1.332318   -0.731362
     11          1           0       -3.858023    1.162331    1.160415
     12          6           0       -4.330081   -1.287444   -0.015067
     13          6           0       -5.534271   -0.492972    0.527401
     14          6           0       -4.295029   -2.644996    0.728164
     15          6           0       -4.569961   -1.520342   -1.526636
     16          1           0       -5.648907    0.472480    0.026773
     17          1           0       -5.458985   -0.315432    1.603793
     18          1           0       -6.448036   -1.066999    0.350713
     19          1           0       -4.160798   -2.491793    1.803561
     20          1           0       -3.484842   -3.274122    0.362576
     21          1           0       -5.242770   -3.172940    0.580699
     22          1           0       -4.630278   -0.565605   -2.058401
     23          1           0       -5.518576   -2.046619   -1.674440
     24          1           0       -3.769842   -2.113537   -1.966656
 ---------------------------------------------------------------------

 SCF Done:  E(UB3LYP) =  -1133.41107305     A.U. after    1 cycles

 Alpha  occ. eigenvalues --  -19.08564 -19.08475 -10.23676 -10.23440 -10.21779
 Alpha  occ. eigenvalues --  -10.21623 -10.18724 -10.18179 -10.16652 -10.15300
 Alpha  occ. eigenvalues --  -10.14840 -10.14831  -6.83946  -6.83864  -4.86366
 Alpha  occ. eigenvalues --   -4.86285  -4.85276  -4.85197  -4.85170  -4.85084
 Alpha  occ. eigenvalues --   -1.91184  -1.91102  -1.90836  -1.90757  -1.90755
 Alpha  occ. eigenvalues --   -1.90671  -1.89813  -1.89811  -1.89731  -1.89728
 Alpha  occ. eigenvalues --   -1.01254  -1.00825  -0.84554  -0.81569  -0.75746
 Alpha  occ. eigenvalues --   -0.71930  -0.68539  -0.67864  -0.67806  -0.66877
 Alpha  occ. eigenvalues --   -0.59586  -0.57118  -0.52866  -0.49441  -0.46973
 Alpha  occ. eigenvalues --   -0.44137  -0.43707  -0.42514  -0.42328  -0.42250
 Alpha  occ. eigenvalues --   -0.39721  -0.39440  -0.37993  -0.37383  -0.36704
 Alpha  occ. eigenvalues --   -0.35870  -0.35107  -0.33560  -0.33120  -0.32317
 Alpha  occ. eigenvalues --   -0.31723  -0.27854  -0.27601  -0.27048  -0.25765
 Alpha  occ. eigenvalues --   -0.24974  -0.23786  -0.22970  -0.16955
 Alpha virt. eigenvalues --   -0.05210  -0.02012  -0.00331  -0.00158   0.01347
 Alpha virt. eigenvalues --    0.01592   0.01770   0.02479   0.03719   0.04122
 Alpha virt. eigenvalues --    0.04178   0.04283   0.05792   0.06377   0.07092

  Beta  occ. eigenvalues --  -19.07883 -19.07790 -10.23540 -10.23306 -10.21626
  Beta  occ. eigenvalues --  -10.21478 -10.18729 -10.18084 -10.16582 -10.15301
  Beta  occ. eigenvalues --  -10.14834 -10.14825  -6.83944  -6.83862  -4.86370
  Beta  occ. eigenvalues --   -4.86288  -4.85267  -4.85189  -4.85170  -4.85084
  Beta  occ. eigenvalues --   -1.91186  -1.91104  -1.90832  -1.90759  -1.90754
  Beta  occ. eigenvalues --   -1.90674  -1.89807  -1.89805  -1.89725  -1.89723
  Beta  occ. eigenvalues --   -1.00070  -0.99625  -0.84058  -0.81359  -0.75546
  Beta  occ. eigenvalues --   -0.71511  -0.68420  -0.67844  -0.67644  -0.66308
  Beta  occ. eigenvalues --   -0.59251  -0.56730  -0.52643  -0.49228  -0.46743
  Beta  occ. eigenvalues --   -0.43778  -0.43499  -0.42463  -0.41670  -0.40895
  Beta  occ. eigenvalues --   -0.39423  -0.38251  -0.37829  -0.36575  -0.36299
  Beta  occ. eigenvalues --   -0.35040  -0.34957  -0.33379  -0.33008  -0.32271
  Beta  occ. eigenvalues --   -0.30335  -0.27815  -0.26731  -0.25466  -0.25256
  Beta  occ. eigenvalues --   -0.24376  -0.23219  -0.22665
  Beta virt. eigenvalues --   -0.09900  -0.05087  -0.00573  -0.00285   0.00019
  Beta virt. eigenvalues --    0.01623   0.01787   0.02004   0.03728   0.04141
  Beta virt. eigenvalues --    0.04149   0.04200   0.04349   0.05850   0.06405

 Mulliken charges and spin densities:
               1          2
     1  C   -1.183731   0.077253
     2  C   -0.237106   0.054148
     3  C    1.207851   0.100280
     4  C   -1.065120   0.070109
     5  C    0.130245   0.099073
     6  C    0.849014   0.115775
     7  O   -0.340686   0.252798
     8  O   -0.415726   0.244790
     9  I   -0.109246   0.000936
    10  I   -0.111226   0.000553
    11  H    0.199576  -0.005348
    12  C    0.569416  -0.029150
    13  C   -0.494054   0.001099
    14  C   -0.685210   0.009421
    15  C   -0.684180   0.009389
    16  H    0.134508  -0.000277
    17  H    0.134229  -0.000268
    18  H    0.173898   0.000097
    19  H    0.135365   0.000527
    20  H    0.176349  -0.001051
    21  H    0.152283   0.000189
    22  H    0.135159   0.000545
    23  H    0.152139   0.000169
    24  H    0.176253  -0.001057
 Sum of Mulliken charges =  -1.00000   1.00000

 Dipole moment (field-independent basis, Debye):
    X=              4.2360    Y=             -1.8023    Z=             -1.8959  Tot=              4.9786
 Quadrupole moment (field-independent basis, Debye-Ang):
   XX=           -134.9104   YY=           -160.9722   ZZ=           -139.4543
   XY=              3.5289   XZ=              2.6873   YZ=            -15.6530

  Exact polarizability: 343.391  19.281 354.259  -8.734  75.889 237.304
 Approx polarizability: 352.567  11.539 408.085 -10.690  91.443 270.114

                      1                      2                      3
                      A                      A                      A
 Frequencies --     41.1913                43.2042                80.5573
 Red. masses --      5.5684                 5.0287                 5.4029
 Frc consts  --      0.0056                 0.0055                 0.0207
 IR Inten    --      0.6209                 8.3175                 0.2222

                      4                      5                      6
                      A                      A                      A
 Frequencies --     97.9820               122.6787               153.5693
 Red. masses --     61.0300                 7.6111                 4.6292
 Frc consts  --      0.3452                 0.0675                 0.0643
 IR Inten    --      1.8501                 3.0468                 9.5322

                      7                      8                      9
                      A                      A                      A
 Frequencies --    181.8296               207.7033               221.1059
 Red. masses --      7.2539                 2.9381                 1.5632
 Frc consts  --      0.1413                 0.0747                 0.0450
 IR Inten    --      0.3138                 0.0150                 1.4279

                     10                     11                     12
                      A                      A                      A
 Frequencies --    225.5322               248.8419               257.8621
 Red. masses --      2.8658                 1.9603                 2.7194
 Frc consts  --      0.0859                 0.0715                 0.1065
 IR Inten    --      2.5204                 4.1578                 0.1127

                     13                     14                     15
                      A                      A                      A
 Frequencies --    285.9199               296.3723               335.4273
 Red. masses --      3.4346                 2.9811                 1.0437
 Frc consts  --      0.1654                 0.1543                 0.0692
 IR Inten    --      0.0441                 2.5867                 0.1279

                     16                     17                     18
                      A                      A                      A
 Frequencies --    343.2374               373.8367               412.0622
 Red. masses --      4.7317                 2.8347                 2.6479
 Frc consts  --      0.3284                 0.2334                 0.2649
 IR Inten    --     20.8579                 0.2481                 0.7736

                     19                     20                     21
                      A                      A                      A
 Frequencies --    425.8090               479.8115               486.4270
 Red. masses --      4.7769                 6.8668                 5.2679
 Frc consts  --      0.5103                 0.9314                 0.7344
 IR Inten    --      0.0406                 0.1066                41.9866

                     22                     23                     24
                      A                      A                      A
 Frequencies --    538.1070               565.7664               672.4978
 Red. masses --      4.5350                 4.2307                 6.4907
 Frc consts  --      0.7737                 0.7979                 1.7295
 IR Inten    --      0.0568                 5.5060                 7.1653

                     25                     26                     27
                      A                      A                      A
 Frequencies --    687.5908               723.2726               763.4498
 Red. masses --      5.9760                 7.6013                 8.1704
 Frc consts  --      1.6647                 2.3428                 2.8058
 IR Inten    --      4.4563                43.6674                11.0889

                     28                     29                     30
                      A                      A                      A
 Frequencies --    818.7573               836.2214               889.5274
 Red. masses --      3.5054                 6.8747                 1.5157
 Frc consts  --      1.3845                 2.8324                 0.7066
 IR Inten    --     74.5223               150.4106                31.3715

                     31                     32                     33
                      A                      A                      A
 Frequencies --    928.8280               930.9222               956.7256
 Red. masses --      1.7592                 1.7490                 4.6458
 Frc consts  --      0.8942                 0.8930                 2.5054
 IR Inten    --      2.3141                 5.7135                 4.5972

                     34                     35                     36
                      A                      A                      A
 Frequencies --    958.0332              1033.5125              1043.7778
 Red. masses --      1.2130                 1.7135                 1.3803
 Frc consts  --      0.6560                 1.0784                 0.8860
 IR Inten    --      0.2883               111.3762                 0.0965

                     37                     38                     39
                      A                      A                      A
 Frequencies --   1072.5191              1133.9525              1214.4136
 Red. masses --      2.6301                 7.3776                 2.7312
 Frc consts  --      1.7825                 5.5893                 2.3732
 IR Inten    --    226.7143                17.6381                 7.7249

                     40                     41                     42
                      A                      A                      A
 Frequencies --   1221.0483              1259.4877              1288.0094
 Red. masses --      2.5821                 2.8931                 1.8514
 Frc consts  --      2.2683                 2.7040                 1.8096
 IR Inten    --     16.8202                59.1231                53.0649

                     43                     44                     45
                      A                      A                      A
 Frequencies --   1359.2149              1377.6357              1387.0519
 Red. masses --      3.8328                 1.2088                 1.3262
 Frc consts  --      4.1719                 1.3517                 1.5033
 IR Inten    --     98.7697                12.2227                10.8734

                     46                     47                     48
                      A                      A                      A
 Frequencies --   1412.3687              1444.5678              1471.0365
 Red. masses --      1.2430                 7.6358                 1.0471
 Frc consts  --      1.4609                 9.3882                 1.3350
 IR Inten    --     20.6580                 7.2799                 0.1265

                     49                     50                     51
                      A                      A                      A
 Frequencies --   1481.3620              1488.4351              1489.3482
 Red. masses --      1.3325                 1.0616                 1.0541
 Frc consts  --      1.7228                 1.3857                 1.3776
 IR Inten    --    331.8820                 2.3460                 0.7993

                     52                     53                     54
                      A                      A                      A
 Frequencies --   1497.7444              1501.2778              1513.1500
 Red. masses --      4.3437                 1.0511                 3.1713
 Frc consts  --      5.7409                 1.3957                 4.2781
 IR Inten    --    494.9226                10.7181               159.4409

                     55                     56                     57
                      A                      A                      A
 Frequencies --   1518.0253              1607.6521              3014.5846
 Red. masses --      1.2536                 7.0544                 1.0383
 Frc consts  --      1.7020                10.7422                 5.5594
 IR Inten    --     78.6057               121.7430                76.4308

                     58                     59                     60
                      A                      A                      A
 Frequencies --   3016.1666              3023.9855              3070.0432
 Red. masses --      1.0367                 1.0372                 1.1020
 Frc consts  --      5.5568                 5.5883                 6.1195
 IR Inten    --     41.2226                84.7848                28.3158

                     61                     62                     63
                      A                      A                      A
 Frequencies --   3071.4860              3084.5890              3086.1702
 Red. masses --      1.1013                 1.1011                 1.1022
 Frc consts  --      6.1215                 6.1729                 6.1854
 IR Inten    --     62.2514               111.4559                62.9117

                     64                     65                     66
                      A                      A                      A
 Frequencies --   3126.4709              3128.6191              3193.8981
 Red. masses --      1.0978                 1.0972                 1.0885
 Frc consts  --      6.3223                 6.3276                 6.5419
 IR Inten    --      0.7740                32.4070                14.1100

 - Thermochemistry -
 -------------------
 Temperature   298.150 Kelvin.  Pressure   1.00000 Atm.
 Atom     1 has atomic number  6 and mass  12.00000

 Molecular mass:   415.86888 amu.
 Principal axes and moments of inertia in atomic units:
                           1         2         3
     Eigenvalues --  4449.352258234.02054**********
           X            0.89928  -0.42286   0.11173
           Y            0.42585   0.78828  -0.44415
           Z            0.09974   0.44699   0.88896
 This molecule is an asymmetric top.
 Rotational symmetry number  1.
 Warning -- assumption of classical behavior for rotation
           may cause significant error
 Rotational temperatures (Kelvin)      0.01947     0.01052     0.00705
 Rotational constants (GHZ):           0.40562     0.21918     0.14695
 Zero-point vibrational energy     455910.4 (Joules/Mol)
                                  108.96520 (Kcal/Mol)
 Warning -- explicit consideration of  23 degrees of freedom as
           vibrations may cause significant error
 Vibrational temperatures:     59.27    62.16   115.90   140.97   176.51
          (Kelvin)            220.95   261.61   298.84   318.12   324.49
                              358.03   371.01   411.37   426.41   482.61
                              493.84   537.87   592.87   612.64   690.34
                              699.86   774.22   814.01   967.57   989.29
                             1040.63  1098.43  1178.01  1203.14  1279.83
                             1336.38  1339.39  1376.51  1378.40  1486.99
                             1501.76  1543.12  1631.50  1747.27  1756.82
                             1812.12  1853.16  1955.61  1982.11  1995.66
                             2032.08  2078.41  2116.49  2131.35  2141.53
                             2142.84  2154.92  2160.00  2177.09  2184.10
                             2313.05  4337.31  4339.59  4350.84  4417.11
                             4419.18  4438.04  4440.31  4498.29  4501.39
                             4595.31

 Zero-point correction=                           0.173647 (Hartree/Particle)
 Thermal correction to Energy=                    0.188621
 Thermal correction to Enthalpy=                  0.189565
 Thermal correction to Gibbs Free Energy=         0.128597
 Sum of electronic and zero-point Energies=          -1133.237426
 Sum of electronic and thermal Energies=             -1133.222452
 Sum of electronic and thermal Enthalpies=           -1133.221508
 Sum of electronic and thermal Free Energies=        -1133.282476

                     E (Thermal)             CV                S
                      KCal/Mol        Cal/Mol-Kelvin    Cal/Mol-Kelvin
 Total                  118.361             54.164            128.317
 Electronic               0.000              0.000              1.377
 Translational            0.889              2.981             43.966
 Rotational               0.889              2.981             34.464
 Vibrational            116.584             48.203             48.510
 Vibration     1          0.594              1.981              5.201
 Vibration     2          0.595              1.980              5.106
 Vibration     3          0.600              1.962              3.877
 Vibration     4          0.603              1.951              3.494
 Vibration     5          0.610              1.930              3.058
 Vibration     6          0.619              1.899              2.628
 Vibration     7          0.630              1.864              2.310
 Vibration     8          0.641              1.829              2.064
 Vibration     9          0.648              1.809              1.950
 Vibration    10          0.650              1.802              1.914
 Vibration    11          0.662              1.765              1.739
 Vibration    12          0.667              1.749              1.676
 Vibration    13          0.684              1.700              1.498
 Vibration    14          0.690              1.680              1.437
 Vibration    15          0.717              1.605              1.234
 Vibration    16          0.722              1.589              1.197
 Vibration    17          0.745              1.526              1.064
 Vibration    18          0.776              1.444              0.919
 Vibration    19          0.788              1.414              0.872
 Vibration    20          0.836              1.295              0.711
 Vibration    21          0.842              1.280              0.693
 Vibration    22          0.893              1.166              0.569
 Vibration    23          0.922              1.105              0.512

 Optimization completed.
    -- Stationary point found.
 Normal termination of Gaussian 16 at Sat Feb 10 11:30:59 2024.
