 Q-Chem 5.4, Q-Chem, Inc., Pleasanton, CA (2021)
 Q-Chem 5.4.0 for Intel X86 EM64T Linux

User input:
--------------------------------------------------------------
$molecule
-2 1
C                 -2.0407750000      0.3599920000      1.5683910000
C                 -2.8862200000      1.1780360000      0.7211270000
C                 -2.4739620000      1.4806080000     -0.5817300000
C                 -1.2699020000      1.0759750000     -1.2350390000
C                 -0.4245560000      0.2577570000     -0.3878480000
C                 -0.8367950000     -0.0447850000      0.9150230000
O                 -0.9447370000      1.3886510000     -2.4429970000
O                 -2.3660380000      0.0471320000      2.7762740000
Br                 0.3180900000     -1.1697280000      2.0893360000
Br                -3.6289550000      2.6053710000     -1.7561080000
C                  0.8916860000     -0.2334050000     -0.9805830000
C                  1.8319130000      0.9360250000     -1.3405870000
C                  0.6658610000     -1.1559880000     -2.1966950000
C                 -4.2025510000      1.6690540000      1.3137870000
C                 -3.9768960000      2.5914060000      2.5301070000
C                 -5.1428220000      0.4995480000      1.6734320000
H                  1.3945480000     -0.8267790000     -0.2153740000
H                  2.0713770000      1.5192560000     -0.4446330000
H                  1.3400560000      1.5880300000     -2.0659550000
H                  2.7762070000      0.5610230000     -1.7649730000
H                  0.0886700000     -2.0388070000     -1.9005180000
H                  1.6270520000     -1.5003630000     -2.6089060000
H                  0.1125960000     -0.6136200000     -2.9667160000
H                 -4.7053180000      2.2625700000      0.5486250000
H                 -4.9381440000      2.9356920000      2.9422580000
H                 -3.3996730000      3.4742880000      2.2341790000
H                 -3.4237330000      2.0488910000      3.3000970000
H                 -6.0871750000      0.8744650000      2.0977640000
H                 -4.6510590000     -0.1525990000      2.3987340000
H                 -5.3821660000     -0.0835040000      0.7773280000
$end
$rem
MAX_SCF_CYCLES=200
BASIS  =  6-311++G(d,p)
GUI  =  2
JOB_TYPE  =  SP
METHOD  =  B3LYP
SOLVENT_METHOD = PCM
$end
$pcm
theory = CPCM
$end
$solvent
dielectric 37.219
opticaldielectric 1.43
$end

--------------------------------------------------------------

             Standard Nuclear Orientation (Angstroms)
    I     Atom           X                Y                Z
 ----------------------------------------------------------------
    1      C      -2.0407750000     0.3599920000     1.5683910000
    2      C      -2.8862200000     1.1780360000     0.7211270000
    3      C      -2.4739620000     1.4806080000    -0.5817300000
    4      C      -1.2699020000     1.0759750000    -1.2350390000
    5      C      -0.4245560000     0.2577570000    -0.3878480000
    6      C      -0.8367950000    -0.0447850000     0.9150230000
    7      O      -0.9447370000     1.3886510000    -2.4429970000
    8      O      -2.3660380000     0.0471320000     2.7762740000
    9      Br      0.3180900000    -1.1697280000     2.0893360000
   10      Br     -3.6289550000     2.6053710000    -1.7561080000
   11      C       0.8916860000    -0.2334050000    -0.9805830000
   12      C       1.8319130000     0.9360250000    -1.3405870000
   13      C       0.6658610000    -1.1559880000    -2.1966950000
   14      C      -4.2025510000     1.6690540000     1.3137870000
   15      C      -3.9768960000     2.5914060000     2.5301070000
   16      C      -5.1428220000     0.4995480000     1.6734320000
   17      H       1.3945480000    -0.8267790000    -0.2153740000
   18      H       2.0713770000     1.5192560000    -0.4446330000
   19      H       1.3400560000     1.5880300000    -2.0659550000
   20      H       2.7762070000     0.5610230000    -1.7649730000
   21      H       0.0886700000    -2.0388070000    -1.9005180000
   22      H       1.6270520000    -1.5003630000    -2.6089060000
   23      H       0.1125960000    -0.6136200000    -2.9667160000
   24      H      -4.7053180000     2.2625700000     0.5486250000
   25      H      -4.9381440000     2.9356920000     2.9422580000
   26      H      -3.3996730000     3.4742880000     2.2341790000
   27      H      -3.4237330000     2.0488910000     3.3000970000
   28      H      -6.0871750000     0.8744650000     2.0977640000
   29      H      -4.6510590000    -0.1525990000     2.3987340000
   30      H      -5.3821660000    -0.0835040000     0.7773280000
 ----------------------------------------------------------------

    9   -5764.8628230244      7.37e-06  Convergence criterion met
 Total energy in the final basis set =    -5764.8628230244

                    Orbital Energies (a.u.)
 --------------------------------------------------------------

 Alpha MOs
 -- Occupied --
********-482.8002 -62.4531 -62.4531 -56.2732 -56.2732 -56.2700 -56.2700
-56.2697 -56.2697 -19.0200 -19.0199 -10.1850 -10.1850 -10.1828 -10.1827
-10.1545 -10.1545 -10.1459 -10.1459 -10.1356 -10.1356 -10.1356 -10.1356
 -8.6617  -8.6617  -6.4918  -6.4918  -6.4812  -6.4812  -6.4804  -6.4804
 -2.6031  -2.6031  -2.5999  -2.5999  -2.5993  -2.5993  -2.5911  -2.5911
 -2.5911  -2.5911  -0.9431  -0.9391  -0.8162  -0.7954  -0.7641  -0.7599
 -0.7360  -0.6777  -0.6620  -0.6619  -0.6455  -0.5988  -0.5506  -0.5316
 -0.5059  -0.4765  -0.4344  -0.4212  -0.4204  -0.4066  -0.3998  -0.3883
 -0.3836  -0.3746  -0.3717  -0.3696  -0.3623  -0.3523  -0.3296  -0.3253
 -0.3249  -0.3227  -0.3202  -0.3182  -0.3129  -0.3101  -0.2858  -0.2792
 -0.2653  -0.2564  -0.2289  -0.2066  -0.1995  -0.1989  -0.1265

          Ground-State Mulliken Net Atomic Charges

     Atom                 Charge (a.u.)
  ----------------------------------------
      1 C                    -1.074476
      2 C                     1.086609
      3 C                    -0.138145
      4 C                    -1.074389
      5 C                     1.085986
      6 C                    -0.137847
      7 O                    -0.592961
      8 O                    -0.592953
      9 Br                   -0.289606
     10 Br                   -0.289567
     11 C                     0.431071
     12 C                    -0.727349
     13 C                    -0.727293
     14 C                     0.430502
     15 C                    -0.727108
     16 C                    -0.727361
     17 H                     0.152576
     18 H                     0.122041
     19 H                     0.181271
     20 H                     0.136766
     21 H                     0.122532
     22 H                     0.136584
     23 H                     0.180681
     24 H                     0.152541
     25 H                     0.136586
     26 H                     0.122521
     27 H                     0.180700
     28 H                     0.136750
     29 H                     0.181282
     30 H                     0.122054
  ----------------------------------------
  Sum of atomic charges =    -2.000000

                    Cartesian Multipole Moments
 -----------------------------------------------------------------
    Charge (ESU x 10^10)
                -9.6064
    Dipole Moment (Debye)
         X      15.9023      Y      -6.8963      Z      -1.6008
       Tot      17.4070
    Quadrupole Moments (Debye-Ang)
        XX    -174.3274     XY      16.9338     YY    -151.3488
        XZ       7.1425     YZ      19.4633     ZZ    -191.6683

 Total job time:  59.77s(wall), 433.67s(cpu)
        *  Thank you very much for using Q-Chem.  Have a nice day.  *
