 Gaussian 16, Revision A.03,
 Gaussian 16:  ES64L-G16RevA.03 25-Dec-2016

 ----------------------------------------------------------------
 #P UB3LYP/6-311++G(d,p) SCRF=(PCM,Solvent=n,n-DiMethylFormamide)
 ----------------------------------------------------------------

 ------------------
 Radical PCM in DMF
 ------------------
 Symbolic Z-matrix:
 Charge = -1 Multiplicity = 2

                         Standard orientation:
 ---------------------------------------------------------------------
 Center     Atomic      Atomic             Coordinates (Angstroms)
 Number     Number       Type             X           Y           Z
 ---------------------------------------------------------------------
      1          6           0        0.647834    1.450789   -0.086982
      2          6           0        2.102980    1.321924   -0.091516
      3          6           0        2.753431    0.128288   -0.027687
      4          6           0        2.039903   -1.134957    0.052845
      5          6           0        0.604616   -1.027160    0.069148
      6          6           0       -0.078982    0.180083    0.028519
      7          8           0        0.108321    2.572005   -0.211593
      8          8           0        2.640529   -2.247333    0.109080
      9          1           0        2.648472    2.258763   -0.164234
     10          1           0        3.839176    0.075759   -0.038386
     11          1           0        0.053305   -1.957113    0.138108
     12          6           0       -1.551159    0.186103    0.130232
     13          8           0       -2.265624    1.062511    0.563274
     14          8           0       -2.101264   -1.002018   -0.321029
     15          6           0       -3.514558   -1.107739   -0.177067
     16          1           0       -3.779286   -2.089616   -0.571003
     17          1           0       -4.028595   -0.323825   -0.739391
     18          1           0       -3.813160   -1.029271    0.872103
 ---------------------------------------------------------------------

 SCF Done:  E(UB3LYP) =  -609.671212921     A.U. after   19 cycles

 The electronic state is 2-A.
 Alpha  occ. eigenvalues --  -19.16163 -19.11357 -19.08597 -19.08576 -10.30255
 Alpha  occ. eigenvalues --  -10.23590 -10.22663 -10.21721 -10.18531 -10.17739
 Alpha  occ. eigenvalues --  -10.17356 -10.17221  -1.10250  -1.02027  -1.01088
 Alpha  occ. eigenvalues --   -1.00495  -0.83526  -0.77338  -0.71750  -0.69223
 Alpha  occ. eigenvalues --   -0.62965  -0.59061  -0.55304  -0.51162  -0.48793
 Alpha  occ. eigenvalues --   -0.48019  -0.47036  -0.46569  -0.44340  -0.42190
 Alpha  occ. eigenvalues --   -0.41416  -0.41270  -0.39619  -0.38929  -0.38068
 Alpha  occ. eigenvalues --   -0.36951  -0.35844  -0.30766  -0.29278  -0.29042
 Alpha  occ. eigenvalues --   -0.27001  -0.25047  -0.24108  -0.17332
 Alpha virt. eigenvalues --   -0.04720  -0.00144   0.00798   0.00908   0.01808
 Alpha virt. eigenvalues --    0.02813   0.03515   0.03791   0.04568   0.05093
 Alpha virt. eigenvalues --    0.05891   0.06124   0.06361   0.07925   0.08227

  Beta  occ. eigenvalues --  -19.16158 -19.11309 -19.07961 -19.07824 -10.30252
  Beta  occ. eigenvalues --  -10.23510 -10.22549 -10.21721 -10.18424 -10.17501
  Beta  occ. eigenvalues --  -10.17316 -10.17115  -1.10210  -1.01886  -1.00105
  Beta  occ. eigenvalues --   -0.99138  -0.82910  -0.77103  -0.71528  -0.68267
  Beta  occ. eigenvalues --   -0.62609  -0.58737  -0.55145  -0.50891  -0.48601
  Beta  occ. eigenvalues --   -0.47920  -0.46679  -0.46460  -0.44084  -0.41718
  Beta  occ. eigenvalues --   -0.40670  -0.40546  -0.38848  -0.38219  -0.36755
  Beta  occ. eigenvalues --   -0.35814  -0.35353  -0.30628  -0.29100  -0.26137
  Beta  occ. eigenvalues --   -0.25727  -0.24356  -0.23555
  Beta virt. eigenvalues --   -0.10163  -0.03424  -0.00117   0.00814   0.01842
  Beta virt. eigenvalues --    0.02288   0.02838   0.03582   0.03885   0.05125
  Beta virt. eigenvalues --    0.05367   0.05948   0.06375   0.06839   0.07971

 Mulliken charges and spin densities:
               1          2
     1  C   -0.969727   0.029649
     2  C    0.062853   0.085002
     3  C    0.106367   0.029153
     4  C   -0.461705   0.118333
     5  C   -0.289339   0.152636
     6  C    1.069540   0.071596
     7  O   -0.457672   0.222294
     8  O   -0.488719   0.271538
     9  H    0.194733  -0.007177
    10  H    0.198000  -0.003106
    11  H    0.204201  -0.012575
    12  C    0.026553   0.026425
    13  O   -0.325926   0.016636
    14  O   -0.135035  -0.000249
    15  C   -0.246995  -0.000379
    16  H    0.158419   0.000041
    17  H    0.174503   0.000240
    18  H    0.179950  -0.000055
 Sum of Mulliken charges =  -1.00000   1.00000

 Dipole moment (field-independent basis, Debye):
    X=             -4.2892    Y=             -2.2442    Z=             -0.4888  Tot=              4.8654
 Quadrupole moment (field-independent basis, Debye-Ang):
   XX=            -83.0974   YY=           -103.7288   ZZ=            -72.9437
   XY=             24.2586   XZ=              1.4973   YZ=             -0.2889

 Normal termination of Gaussian 16 at Wed Jan 24 22:50:26 2024.
