 Q-Chem 5.4, Q-Chem, Inc., Pleasanton, CA (2021)
 Q-Chem 5.4.0 for Intel X86 EM64T Linux

User input:
--------------------------------------------------------------
$molecule
-1 2
C                 -1.8202550000      0.3084300000     -1.0859560000
C                 -1.1799730000      0.1390590000      0.3133970000
C                 -1.8796680000     -1.0457810000      1.0070480000
C                 -1.4491370000      1.4052780000      1.1625620000
C                  0.3378960000     -0.0839540000      0.1715880000
C                  0.9479750000     -1.2214140000      0.6260650000
C                  2.3642560000     -1.5116100000      0.5336760000
O                  2.8487460000     -2.5803220000      0.9751390000
C                  3.1560380000     -0.4696280000     -0.1057390000
C                  2.5762520000      0.6840450000     -0.5729150000
Br                 3.6040960000      2.0692330000     -1.4183430000
C                  1.1431690000      0.9622680000     -0.4720650000
O                  0.6510440000      2.0299010000     -0.9116800000
Br                 5.0368370000     -0.8247380000     -0.2432900000
H                 -2.9009650000      0.4688800000     -0.9882570000
H                 -1.6655130000     -0.5924330000     -1.6887340000
H                 -1.3816790000      1.1573580000     -1.6088130000
H                 -1.7601220000     -1.9768310000      0.4455360000
H                 -2.9519710000     -0.8365870000      1.0819010000
H                 -1.5002520000     -1.2084120000      2.0199820000
H                 -1.0293260000      1.2882790000      2.1670120000
H                 -2.5292370000      1.5676150000      1.2638820000
H                 -1.0010130000      2.2823180000      0.6973890000
H                  0.3827990000     -2.0109540000      1.1049260000
$end

$rem
BASIS  =  6-311++G(d,p)
GUI  =  2
JOB_TYPE  =  SP
METHOD  =  B3LYP
SCF_CONVERGENCE  = 8
SOLVENT_METHOD = sm12
$end

$smx
solvent dimethylformamide
charges CM5
$end

--------------------------------------------------------------

             Standard Nuclear Orientation (Angstroms)
    I     Atom           X                Y                Z
 ----------------------------------------------------------------
    1      C      -1.8202550000     0.3084300000    -1.0859560000
    2      C      -1.1799730000     0.1390590000     0.3133970000
    3      C      -1.8796680000    -1.0457810000     1.0070480000
    4      C      -1.4491370000     1.4052780000     1.1625620000
    5      C       0.3378960000    -0.0839540000     0.1715880000
    6      C       0.9479750000    -1.2214140000     0.6260650000
    7      C       2.3642560000    -1.5116100000     0.5336760000
    8      O       2.8487460000    -2.5803220000     0.9751390000
    9      C       3.1560380000    -0.4696280000    -0.1057390000
   10      C       2.5762520000     0.6840450000    -0.5729150000
   11      Br      3.6040960000     2.0692330000    -1.4183430000
   12      C       1.1431690000     0.9622680000    -0.4720650000
   13      O       0.6510440000     2.0299010000    -0.9116800000
   14      Br      5.0368370000    -0.8247380000    -0.2432900000
   15      H      -2.9009650000     0.4688800000    -0.9882570000
   16      H      -1.6655130000    -0.5924330000    -1.6887340000
   17      H      -1.3816790000     1.1573580000    -1.6088130000
   18      H      -1.7601220000    -1.9768310000     0.4455360000
   19      H      -2.9519710000    -0.8365870000     1.0819010000
   20      H      -1.5002520000    -1.2084120000     2.0199820000
   21      H      -1.0293260000     1.2882790000     2.1670120000
   22      H      -2.5292370000     1.5676150000     1.2638820000
   23      H      -1.0010130000     2.2823180000     0.6973890000
   24      H       0.3827990000    -2.0109540000     1.1049260000
 ----------------------------------------------------------------

   18   -5686.0252192309      6.86e-09  Convergence criterion met
 Total energy in the final basis set =    -5686.1007354477

                    Orbital Energies (a.u.)
 --------------------------------------------------------------

 Alpha MOs
 -- Occupied --
********-482.8222 -62.4759 -62.4748 -56.2964 -56.2953 -56.2927 -56.2922
-56.2916 -56.2912 -19.0823 -19.0822 -10.2358 -10.2332 -10.2273 -10.2259
-10.1964 -10.1849 -10.1713 -10.1642 -10.1598 -10.1598  -8.6845  -8.6834
 -6.5159  -6.5148  -6.5035  -6.5024  -6.5022  -6.5011  -2.6268  -2.6257
 -2.6234  -2.6225  -2.6224  -2.6215  -2.6126  -2.6125  -2.6115  -2.6114
 -1.0119  -1.0080  -0.8589  -0.8345  -0.7872  -0.7843  -0.7159  -0.6942
 -0.6893  -0.6806  -0.6056  -0.5788  -0.5362  -0.4997  -0.4765  -0.4504
 -0.4454  -0.4355  -0.4284  -0.4272  -0.4069  -0.3992  -0.3936  -0.3799
 -0.3798  -0.3722  -0.3679  -0.3461  -0.3420  -0.3327  -0.3309  -0.2957
 -0.2952  -0.2800  -0.2686  -0.2483  -0.2443  -0.2399  -0.1678

 Beta MOs
 -- Occupied --
********-482.8222 -62.4759 -62.4748 -56.2964 -56.2953 -56.2926 -56.2922
-56.2916 -56.2912 -19.0752 -19.0749 -10.2346 -10.2323 -10.2260 -10.2245
-10.1965 -10.1839 -10.1704 -10.1642 -10.1598 -10.1598  -8.6845  -8.6834
 -6.5159  -6.5149  -6.5034  -6.5023  -6.5022  -6.5011  -2.6268  -2.6257
 -2.6234  -2.6225  -2.6223  -2.6215  -2.6125  -2.6125  -2.6115  -2.6114
 -0.9998  -0.9955  -0.8541  -0.8335  -0.7857  -0.7819  -0.7140  -0.6924
 -0.6891  -0.6727  -0.6022  -0.5751  -0.5341  -0.4977  -0.4744  -0.4474
 -0.4440  -0.4348  -0.4239  -0.4154  -0.4014  -0.3912  -0.3908  -0.3790
 -0.3722  -0.3700  -0.3532  -0.3447  -0.3406  -0.3322  -0.3197  -0.2948
 -0.2915  -0.2678  -0.2531  -0.2416  -0.2368  -0.2342

          Ground-State Mulliken Net Atomic Charges

     Atom                 Charge (a.u.)    Spin (a.u.)
  --------------------------------------------------------
      1 C                    -0.525428       0.011711
      2 C                     1.256621      -0.031679
      3 C                     0.230208       0.001164
      4 C                    -0.525140       0.011745
      5 C                     0.556848       0.101961
      6 C                    -0.950816       0.053474
      7 C                    -1.736509       0.067059
      8 O                    -0.299297       0.263228
      9 C                     0.995486       0.117873
     10 C                    -0.260035       0.067055
     11 Br                    0.017982       0.006637
     12 C                    -1.209878       0.067776
     13 O                    -0.198558       0.262360
     14 Br                    0.043080       0.009506
     15 H                     0.256548       0.000330
     16 H                     0.095567       0.000569
     17 H                     0.095860      -0.001636
     18 H                     0.132735      -0.000312
     19 H                     0.311212       0.000131
     20 H                     0.132732      -0.000302
     21 H                     0.095776       0.000556
     22 H                     0.256696       0.000334
     23 H                     0.095808      -0.001623
     24 H                     0.132503      -0.007917
  --------------------------------------------------------
  Sum of atomic charges =    -1.000000

                    Cartesian Multipole Moments
 -----------------------------------------------------------------
    Charge (ESU x 10^10)
                -4.8032
    Dipole Moment (Debye)
         X     -11.5870      Y       0.6420      Z       0.7036
       Tot      11.6261
    Quadrupole Moments (Debye-Ang)
        XX    -154.3465     XY      11.6391     YY    -139.8623
        XZ      -1.2391     YZ      10.6305     ZZ    -119.2417

 Total job time:  585.29s(wall), 4383.29s(cpu)
        *  Thank you very much for using Q-Chem.  Have a nice day.  *
