 Q-Chem 5.4, Q-Chem, Inc., Pleasanton, CA (2021)
 Q-Chem 5.4.0 for Intel X86 EM64T Linux

User input:
--------------------------------------------------------------
$molecule
0 1
Cl                -2.6534890000     -1.7599770000     -0.0109680000
C                 -1.2613270000     -0.7350280000     -0.0074700000
C                 -1.3594490000      0.5983880000     -0.0387160000
C                 -0.1638620000      1.4670400000     -0.0354430000
O                 -0.2721440000      2.6745540000     -0.0640700000
C                  1.1797990000      0.7962300000      0.0045820000
C                  1.2817800000     -0.5493760000      0.0361660000
Cl                 2.7917480000     -1.3764770000      0.0827690000
C                  0.0678830000     -1.4343060000      0.0328660000
O                  0.1571960000     -2.6369240000      0.0610980000
Cl                 2.5440610000      1.8442170000      0.0070890000
H                 -2.3121960000      1.1116590000     -0.0679020000
$end
$rem
MAX_SCF_CYCLES=200
BASIS  =  6-311++G(d,p)
GUI  =  2
JOB_TYPE  =  SP
METHOD  =  B3LYP
SOLVENT_METHOD = COSMO
$end
$solvent
dielectric 37.219
opticaldielectric 1.43
$end

--------------------------------------------------------------

             Standard Nuclear Orientation (Angstroms)
    I     Atom           X                Y                Z
 ----------------------------------------------------------------
    1      Cl      3.4227999343     0.1751576587    -0.0000172051
    2      C       1.7040121577     0.3606739675     0.0000110466
    3      C       1.1181711625     1.5629188663     0.0000104405
    4      C      -0.3521010372     1.7122337779     0.0000209976
    5      O      -0.8658373915     2.8107370842    -0.0000128437
    6      C      -1.1760750127     0.4560173049     0.0000075021
    7      C      -0.5874383964    -0.7587090489     0.0000113532
    8      Cl     -1.4765484269    -2.2337529865    -0.0000122113
    9      C       0.9068469734    -0.9128815304     0.0000430953
   10      O       1.4345159141    -1.9976070255     0.0000079769
   11      Cl     -2.8823353948     0.6754924749    -0.0000049138
   12      H       1.6835028218     2.4861880052    -0.0000040614
 ----------------------------------------------------------------

   10   -1760.4150726252      2.75e-06  Convergence criterion met
 Total energy in the final basis set =    -1760.4150726252
    5   -1760.4272904630      5.58e-06  Convergence criterion met
 Total energy in the final basis set =    -1760.4272904630

                    Orbital Energies (a.u.)
 --------------------------------------------------------------

 Alpha MOs
 -- Occupied --
********-101.5890-101.5859 -19.1687 -19.1626 -10.3229 -10.3153 -10.2897
-10.2885 -10.2867 -10.2304  -9.5038  -9.5035  -9.5003  -7.2685  -7.2684
 -7.2650  -7.2589  -7.2586  -7.2577  -7.2572  -7.2554  -7.2544  -1.1074
 -1.0978  -0.9447  -0.9188  -0.8896  -0.8420  -0.7731  -0.7232  -0.6453
 -0.6274  -0.5700  -0.5293  -0.5066  -0.4883  -0.4861  -0.4773  -0.4677
 -0.4500  -0.4467  -0.4132  -0.3851  -0.3673  -0.3597  -0.3477  -0.3378
 -0.3203  -0.3110  -0.3093  -0.2856

          Ground-State Mulliken Net Atomic Charges

     Atom                 Charge (a.u.)
  ----------------------------------------
      1 Cl                    0.326759
      2 C                     1.113660
      3 C                    -0.230383
      4 C                    -1.088655
      5 O                    -0.239171
      6 C                     0.415047
      7 C                     0.669409
      8 Cl                    0.405190
      9 C                    -1.897728
     10 O                    -0.173366
     11 Cl                    0.419701
     12 H                     0.279537
  ----------------------------------------
  Sum of atomic charges =     0.000000

                    Cartesian Multipole Moments
 -----------------------------------------------------------------
    Charge (ESU x 10^10)
                 0.0000
    Dipole Moment (Debye)
         X       0.6585      Y       0.9482      Z       0.0007
       Tot       1.1544
    Quadrupole Moments (Debye-Ang)
        XX     -83.4635     XY      10.8150     YY     -94.7364
        XZ       0.0003     YZ       0.0001     ZZ     -80.5321

 Total job time:  22.07s(wall), 102.07s(cpu)
        *  Thank you very much for using Q-Chem.  Have a nice day.  *
