 Gaussian 16, Revision A.03,
 Gaussian 16:  ES64L-G16RevA.03 25-Dec-2016

 ----------------------------------------------------------------
 #P UB3LYP/6-311++G(d,p) SCRF=(PCM,Solvent=n,n-DiMethylFormamide)
 ----------------------------------------------------------------

 ------------------
 Radical PCM in DMF
 ------------------
 Symbolic Z-matrix:
 Charge = -1 Multiplicity = 2

                         Standard orientation:
 ---------------------------------------------------------------------
 Center     Atomic      Atomic             Coordinates (Angstroms)
 Number     Number       Type             X           Y           Z
 ---------------------------------------------------------------------
      1          8           0        0.142967    2.958064   -0.000058
      2          6           0       -0.228942    1.757653    0.000057
      3          6           0       -1.614114    1.374269    0.000014
      4          6           0       -1.997853    0.055359   -0.000018
      5          8           0       -3.307124   -0.320238    0.000036
      6          6           0       -1.069405   -1.052581   -0.000072
      7          8           0       -1.542488   -2.236623    0.000010
      8          6           0        0.340231   -0.715073   -0.000040
      9          6           0        1.321122   -1.731144   -0.000032
     10          6           0        2.667664   -1.417720    0.000014
     11          6           0        3.079345   -0.069883    0.000022
     12          6           0        2.130305    0.940051    0.000025
     13          6           0        0.756075    0.648753    0.000016
     14          1           0       -2.358619    2.162909    0.000011
     15          1           0        0.981263   -2.760753   -0.000023
     16          1           0        3.409896   -2.210978    0.000041
     17          1           0        4.137357    0.175050    0.000043
     18          1           0        2.416279    1.986007    0.000007
     19          1           0       -3.239579   -1.299963    0.000096
 ---------------------------------------------------------------------

 SCF Done:  E(UB3LYP) =  -610.671073106     A.U. after   20 cycles

 The electronic state is 2-A.
 Alpha  occ. eigenvalues --  -19.14740 -19.08831 -19.07630 -10.22776 -10.22772
 Alpha  occ. eigenvalues --  -10.22302 -10.17733 -10.17470 -10.17456 -10.17338
 Alpha  occ. eigenvalues --  -10.17243 -10.17122 -10.15714  -1.06709  -1.00179
 Alpha  occ. eigenvalues --   -0.99819  -0.86005  -0.80254  -0.75274  -0.73912
 Alpha  occ. eigenvalues --   -0.67673  -0.62542  -0.60979  -0.57129  -0.53829
 Alpha  occ. eigenvalues --   -0.51091  -0.48718  -0.45899  -0.45714  -0.43542
 Alpha  occ. eigenvalues --   -0.42882  -0.41960  -0.40937  -0.39844  -0.38973
 Alpha  occ. eigenvalues --   -0.37955  -0.37075  -0.35082  -0.34482  -0.33904
 Alpha  occ. eigenvalues --   -0.26987  -0.26146  -0.25917  -0.24221  -0.23762
 Alpha  occ. eigenvalues --   -0.15422
 Alpha virt. eigenvalues --   -0.03445  -0.01190  -0.00241   0.00848   0.01447
 Alpha virt. eigenvalues --    0.02759   0.03140   0.04566   0.05022   0.05129
 Alpha virt. eigenvalues --    0.05477   0.06876   0.06896   0.07604   0.08219

  Beta  occ. eigenvalues --  -19.14682 -19.08175 -19.07110 -10.22663 -10.22640
  Beta  occ. eigenvalues --  -10.22010 -10.17732 -10.17461 -10.17358 -10.17250
  Beta  occ. eigenvalues --  -10.17186 -10.17149 -10.15643  -1.06473  -0.99274
  Beta  occ. eigenvalues --   -0.98701  -0.85779  -0.79796  -0.75056  -0.73732
  Beta  occ. eigenvalues --   -0.66701  -0.62361  -0.60669  -0.56909  -0.53654
  Beta  occ. eigenvalues --   -0.50854  -0.48343  -0.45797  -0.45598  -0.42773
  Beta  occ. eigenvalues --   -0.42115  -0.41582  -0.40568  -0.39598  -0.37921
  Beta  occ. eigenvalues --   -0.37747  -0.35309  -0.34929  -0.33763  -0.32868
  Beta  occ. eigenvalues --   -0.25557  -0.25240  -0.24932  -0.23723  -0.22864
  Beta virt. eigenvalues --   -0.08800  -0.02688  -0.00213  -0.00076   0.00866
  Beta virt. eigenvalues --    0.01463   0.02770   0.03153   0.04931   0.05066
  Beta virt. eigenvalues --    0.05486   0.06351   0.06892   0.07327   0.07853

 Mulliken charges and spin densities:
               1          2
     1  O   -0.490987   0.186238
     2  C   -0.410570   0.058004
     3  C    0.381995   0.060173
     4  C   -0.217362   0.091833
     5  O   -0.293983   0.018774
     6  C   -0.668003   0.168861
     7  O   -0.514618   0.240925
     8  C    0.261175  -0.017790
     9  C    0.161458   0.081932
    10  C   -0.385122  -0.009131
    11  C   -0.389617   0.074474
    12  C    0.204950  -0.007285
    13  C    0.184767   0.072611
    14  H    0.190663  -0.006442
    15  H    0.165661  -0.004509
    16  H    0.186625  -0.000223
    17  H    0.184123  -0.005082
    18  H    0.160698  -0.000071
    19  H    0.288149  -0.003291
 Sum of Mulliken charges =  -1.00000   1.00000

 Dipole moment (field-independent basis, Debye):
    X=              4.3759    Y=             -3.2035    Z=              0.0002  Tot=              5.4232
 Quadrupole moment (field-independent basis, Debye-Ang):
   XX=            -85.8986   YY=           -108.5188   ZZ=            -80.5263
   XY=             -6.3738   XZ=              0.0000   YZ=              0.0003

 Normal termination of Gaussian 16 at Sun Jan 21 08:37:30 2024.
