 Q-Chem 5.4, Q-Chem, Inc., Pleasanton, CA (2021)
 Q-Chem 5.4.0 for Intel X86 EM64T Linux

User input:
--------------------------------------------------------------
$molecule
-1 2
C                 -3.2558050000      3.6698290000      0.0845780000
C                 -4.4825390000      3.0360720000      0.0899170000
C                 -4.5575230000      1.6250480000      0.0661730000
C                 -2.0553310000      2.9312090000      0.0555570000
C                 -2.1206920000      1.5046150000      0.0313070000
C                 -3.3848250000      0.8905490000      0.0374680000
C                 -0.7810460000      3.6486140000      0.0510500000
C                  0.4224880000      2.8185310000      0.0202420000
C                  0.3572870000      1.3919290000     -0.0039650000
C                 -0.9172690000      0.6703250000      0.0004840000
C                  1.6854320000      3.4450000000      0.0143210000
C                  2.8491820000      2.7024160000     -0.0144780000
C                  2.7949930000      1.2904460000     -0.0386060000
C                  1.5600760000      0.6655660000     -0.0329370000
O                 -0.7235580000      4.9070520000      0.0723590000
O                 -0.9745230000     -0.5829630000     -0.0208360000
H                 -3.4125130000     -0.1931220000      0.0188130000
H                  1.4885980000     -0.4161070000     -0.0509950000
H                 -3.1968730000      4.7510900000      0.1026770000
H                  1.7255820000      4.5271160000      0.0328780000
O                  4.0355690000      3.4167910000     -0.0181410000
C                  5.2502650000      2.6986200000     -0.0426860000
O                 -5.5987880000      3.8552090000      0.1195960000
H                  3.6974080000      0.6928420000     -0.0613480000
H                  6.0438010000      3.4473930000     -0.0391270000
H                  5.3450620000      2.0823380000     -0.9460330000
H                  5.3639530000      2.0536070000      0.8381280000
C                 -6.8740240000      3.2505230000      0.1188070000
H                 -5.5107590000      1.1119210000      0.0700840000
H                 -7.5959150000      4.0682980000      0.1409740000
H                 -7.0278650000      2.6146610000      1.0001970000
H                 -7.0429590000      2.6493710000     -0.7838970000
$end

$rem
BASIS  =  6-311++G(d,p)
GUI  =  2
JOB_TYPE  =  SP
METHOD  =  B3LYP
SCF_CONVERGENCE  = 8
SOLVENT_METHOD = sm12
$end

$smx
solvent dimethylformamide
charges CM5
$end

--------------------------------------------------------------

             Standard Nuclear Orientation (Angstroms)
    I     Atom           X                Y                Z
 ----------------------------------------------------------------
    1      C      -3.2558050000     3.6698290000     0.0845780000
    2      C      -4.4825390000     3.0360720000     0.0899170000
    3      C      -4.5575230000     1.6250480000     0.0661730000
    4      C      -2.0553310000     2.9312090000     0.0555570000
    5      C      -2.1206920000     1.5046150000     0.0313070000
    6      C      -3.3848250000     0.8905490000     0.0374680000
    7      C      -0.7810460000     3.6486140000     0.0510500000
    8      C       0.4224880000     2.8185310000     0.0202420000
    9      C       0.3572870000     1.3919290000    -0.0039650000
   10      C      -0.9172690000     0.6703250000     0.0004840000
   11      C       1.6854320000     3.4450000000     0.0143210000
   12      C       2.8491820000     2.7024160000    -0.0144780000
   13      C       2.7949930000     1.2904460000    -0.0386060000
   14      C       1.5600760000     0.6655660000    -0.0329370000
   15      O      -0.7235580000     4.9070520000     0.0723590000
   16      O      -0.9745230000    -0.5829630000    -0.0208360000
   17      H      -3.4125130000    -0.1931220000     0.0188130000
   18      H       1.4885980000    -0.4161070000    -0.0509950000
   19      H      -3.1968730000     4.7510900000     0.1026770000
   20      H       1.7255820000     4.5271160000     0.0328780000
   21      O       4.0355690000     3.4167910000    -0.0181410000
   22      C       5.2502650000     2.6986200000    -0.0426860000
   23      O      -5.5987880000     3.8552090000     0.1195960000
   24      H       3.6974080000     0.6928420000    -0.0613480000
   25      H       6.0438010000     3.4473930000    -0.0391270000
   26      H       5.3450620000     2.0823380000    -0.9460330000
   27      H       5.3639530000     2.0536070000     0.8381280000
   28      C      -6.8740240000     3.2505230000     0.1188070000
   29      H      -5.5107590000     1.1119210000     0.0700840000
   30      H      -7.5959150000     4.0682980000     0.1409740000
   31      H      -7.0278650000     2.6146610000     1.0001970000
   32      H      -7.0429590000     2.6493710000    -0.7838970000
 ----------------------------------------------------------------

   17    -918.1185678375      6.53e-09  Convergence criterion met
 Total energy in the final basis set =     -918.2128510765

                    Orbital Energies (a.u.)
 --------------------------------------------------------------

 Alpha MOs
 -- Occupied --
-19.1544 -19.1544 -19.0750 -19.0705 -10.2385 -10.2384 -10.2269 -10.2185
-10.2184 -10.2176 -10.1806 -10.1805 -10.1798 -10.1798 -10.1782 -10.1782
-10.1718 -10.1718 -10.1684 -10.1684  -1.0666  -1.0666  -1.0016  -0.9948
 -0.8640  -0.8557  -0.7893  -0.7633  -0.7631  -0.7464  -0.7078  -0.6960
 -0.6612  -0.6392  -0.6099  -0.5987  -0.5645  -0.5431  -0.5430  -0.5031
 -0.5001  -0.4907  -0.4732  -0.4670  -0.4667  -0.4485  -0.4371  -0.4337
 -0.4292  -0.4227  -0.4199  -0.4081  -0.4011  -0.3972  -0.3816  -0.3805
 -0.3780  -0.3620  -0.3619  -0.3545  -0.3321  -0.3289  -0.3223  -0.3096
 -0.2653  -0.2624  -0.2434  -0.2399  -0.2348  -0.2291  -0.1381

 Beta MOs
 -- Occupied --
-19.1542 -19.1541 -19.0703 -19.0639 -10.2382 -10.2382 -10.2257 -10.2185
-10.2184 -10.2155 -10.1807 -10.1807 -10.1794 -10.1794 -10.1774 -10.1774
-10.1711 -10.1711 -10.1679 -10.1678  -1.0662  -1.0661  -0.9934  -0.9833
 -0.8615  -0.8547  -0.7856  -0.7620  -0.7610  -0.7449  -0.7055  -0.6954
 -0.6556  -0.6373  -0.6078  -0.5979  -0.5624  -0.5423  -0.5413  -0.5016
 -0.4992  -0.4888  -0.4723  -0.4662  -0.4659  -0.4472  -0.4352  -0.4333
 -0.4278  -0.4194  -0.4115  -0.4038  -0.4003  -0.3937  -0.3798  -0.3790
 -0.3606  -0.3600  -0.3526  -0.3504  -0.3317  -0.3280  -0.3205  -0.2998
 -0.2576  -0.2472  -0.2385  -0.2292  -0.2288  -0.2251

          Ground-State Mulliken Net Atomic Charges

     Atom                 Charge (a.u.)    Spin (a.u.)
  --------------------------------------------------------
      1 C                    -0.629483       0.066832
      2 C                     1.169773       0.007247
      3 C                     2.377224       0.036832
      4 C                    -1.459434       0.061458
      5 C                    -1.606932       0.027836
      6 C                     0.034533       0.005748
      7 C                    -1.640936       0.111708
      8 C                    -1.455789       0.061664
      9 C                    -1.607665       0.027799
     10 C                    -1.717430       0.055934
     11 C                    -0.633587       0.066875
     12 C                     1.157618       0.007287
     13 C                     2.376655       0.036983
     14 C                     0.033793       0.005644
     15 O                    -0.334373       0.248842
     16 O                    -0.288087       0.176290
     17 H                     0.180847      -0.000503
     18 H                     0.180634      -0.000504
     19 H                     0.125086      -0.005010
     20 H                     0.125005      -0.005008
     21 O                    -0.111789       0.005000
     22 C                     0.266174       0.000640
     23 O                    -0.112715       0.005008
     24 H                     0.429934      -0.003007
     25 H                     0.313038       0.000011
     26 H                     0.204375       0.000184
     27 H                     0.204383       0.000184
     28 C                     0.267326       0.000641
     29 H                     0.430013      -0.002995
     30 H                     0.313012       0.000011
     31 H                     0.204411       0.000185
     32 H                     0.204384       0.000184
  --------------------------------------------------------
  Sum of atomic charges =    -1.000000

                    Cartesian Multipole Moments
 -----------------------------------------------------------------
    Charge (ESU x 10^10)
                -4.8032
    Dipole Moment (Debye)
         X       3.9575      Y     -12.8711      Z      -0.1698
       Tot      13.4668
    Quadrupole Moments (Debye-Ang)
        XX     -96.7685     XY       7.7335     YY    -190.8626
        XZ      -0.2189     YZ      -1.0019     ZZ    -123.3015

 Total job time:  998.79s(wall), 7531.80s(cpu)
        *  Thank you very much for using Q-Chem.  Have a nice day.  *
