 Q-Chem 5.4, Q-Chem, Inc., Pleasanton, CA (2021)
 Q-Chem 5.4.0 for Intel X86 EM64T Linux

User input:
--------------------------------------------------------------
$molecule
0 1
C                 -0.2466350000     -0.4117830000      2.1660550000
C                 -0.6516940000     -1.0479170000      0.8876050000
C                 -0.2826770000     -0.5271680000     -0.2892180000
C                  0.5354380000      0.7076230000     -0.3718070000
C                  0.9398910000      1.3587210000      0.9108280000
C                  0.5886310000      0.8112050000      2.0859820000
O                 -0.5860720000     -0.8767740000      3.2413190000
O                  0.8791730000      1.1624390000     -1.4504050000
H                 -1.2504810000     -1.9481620000      0.9699150000
H                 -0.5534250000     -0.9730800000     -1.2400100000
C                  1.8352250000      2.5869210000      0.8604930000
C                  1.2822000000      3.9543300000      0.4075150000
C                 -0.2331020000      3.9387490000      0.1450340000
C                  1.6022200000      4.9601700000      1.5369050000
C                  2.0413820000      4.3592160000     -0.8767550000
O                  2.9817560000      2.4593230000      1.2271390000
H                 -0.4969090000      3.2918540000     -0.6935820000
H                 -0.5660030000      4.9491650000     -0.1070440000
H                 -0.7976680000      3.6198140000      1.0258660000
H                  1.0658830000      4.7126780000      2.4581800000
H                  1.2945000000      5.9633830000      1.2298350000
H                  2.6708180000      4.9730820000      1.7544050000
H                  1.8455200000      3.6556880000     -1.6881140000
H                  3.1171000000      4.3885870000     -0.6936600000
H                  1.7152460000      5.3542770000     -1.1929860000
H                  0.8953030000      1.2362800000      3.0358450000
$end
$rem
MAX_SCF_CYCLES=200
BASIS  =  6-311++G(d,p)
GUI  =  2
JOB_TYPE  =  SP
METHOD  =  B3LYP
SOLVENT_METHOD = COSMO
$end
$solvent
dielectric 37.219
opticaldielectric 1.43
$end

--------------------------------------------------------------

             Standard Nuclear Orientation (Angstroms)
    I     Atom           X                Y                Z
 ----------------------------------------------------------------
    1      C       2.7140234331    -0.8489577410    -0.1293107624
    2      C       3.1473164876     0.5661441234    -0.2429659617
    3      C       2.2760683115     1.5694600519    -0.0800266977
    4      C       0.8434208787     1.3168363323     0.2107386705
    5      C       0.3977853456    -0.1053260797     0.3180998530
    6      C       1.2863310498    -1.1033446661     0.1817557500
    7      O       3.5011449303    -1.7676630480    -0.2843819853
    8      O       0.0631606486     2.2404297166     0.3736933379
    9      H       4.1976603654     0.7290345843    -0.4574567628
   10      H       2.5626165159     2.6133000957    -0.1466263070
   11      C      -1.0498484223    -0.3957422133     0.6823068917
   12      C      -2.1847009785    -0.1775365375    -0.3401064548
   13      C      -1.6759888117     0.2327647170    -1.7322788601
   14      C      -2.9544126968    -1.5141924282    -0.4427883847
   15      C      -3.1182894818     0.9150011192     0.2294665346
   16      O      -1.2709029090    -0.8414934379     1.7857943781
   17      H      -1.1851456878     1.2075553046    -1.7181223102
   18      H      -2.5235646907     0.3059428946    -2.4189861998
   19      H      -0.9824023406    -0.5037874891    -2.1479084663
   20      H      -2.3265038395    -2.3074948580    -0.8599921900
   21      H      -3.8171291942    -1.3885058855    -1.1025936929
   22      H      -3.3075689018    -1.8354838582     0.5377355402
   23      H      -2.5949907264     1.8679766294     0.3275128821
   24      H      -3.4966905804     0.6231576088     1.2108918370
   25      H      -3.9689846435     1.0531100456    -0.4441481891
   26      H       1.0052516726    -2.1456309855     0.2895045422
 ----------------------------------------------------------------

    9    -652.2130334242      5.34e-06  Convergence criterion met
 Total energy in the final basis set =     -652.2130334242
    5    -652.2296910704      4.62e-06  Convergence criterion met
 Total energy in the final basis set =     -652.2296910704

                    Orbital Energies (a.u.)
 --------------------------------------------------------------

 Alpha MOs
 -- Occupied --
-19.1544 -19.1524 -19.1448 -10.3013 -10.2963 -10.2910 -10.2318 -10.2227
-10.2175 -10.2165 -10.2039 -10.1642 -10.1631 -10.1630  -1.0875  -1.0818
 -1.0795  -0.8760  -0.8306  -0.8067  -0.7258  -0.6941  -0.6928  -0.6736
 -0.6333  -0.6108  -0.5441  -0.5363  -0.5155  -0.4955  -0.4885  -0.4773
 -0.4609  -0.4574  -0.4546  -0.4429  -0.4355  -0.4312  -0.4197  -0.4171
 -0.3903  -0.3853  -0.3790  -0.3716  -0.3406  -0.3387  -0.3212  -0.3103
 -0.3027  -0.2998  -0.2712

          Ground-State Mulliken Net Atomic Charges

     Atom                 Charge (a.u.)
  ----------------------------------------
      1 C                    -0.475110
      2 C                     0.217740
      3 C                    -0.034798
      4 C                    -0.855129
      5 C                     1.297015
      6 C                     0.043610
      7 O                    -0.293066
      8 O                    -0.236087
      9 H                     0.272103
     10 H                     0.272067
     11 C                    -0.633479
     12 C                     0.612867
     13 C                    -0.671165
     14 C                    -0.551163
     15 C                    -0.564716
     16 O                    -0.243776
     17 H                     0.153893
     18 H                     0.179563
     19 H                     0.158057
     20 H                     0.164742
     21 H                     0.171626
     22 H                     0.183535
     23 H                     0.181673
     24 H                     0.171418
     25 H                     0.173798
     26 H                     0.304780
  ----------------------------------------
  Sum of atomic charges =     0.000000

                    Cartesian Multipole Moments
 -----------------------------------------------------------------
    Charge (ESU x 10^10)
                -0.0000
    Dipole Moment (Debye)
         X       0.0820      Y       1.4754      Z      -3.4464
       Tot       3.7499
    Quadrupole Moments (Debye-Ang)
        XX     -81.9830     XY      13.6203     YY     -90.2206
        XZ       5.8926     YZ       0.2557     ZZ     -88.7493

 Total job time:  39.46s(wall), 298.45s(cpu)
        *  Thank you very much for using Q-Chem.  Have a nice day.  *
