 Gaussian 16, Revision A.03,
 Gaussian 16:  ES64L-G16RevA.03 25-Dec-2016

 ----------------------------------------------------------------------
 #P UB3LYP/6-311++G(d,p) nosym opt freq SCRF=(PCM,Solvent=n,n-DiMethylF
 ormamide)
 ----------------------------------------------------------------------

 -------
 Reduced
 -------
 Symbolic Z-matrix:
 Charge = -2 Multiplicity = 1

 SCF Done:  E(UB3LYP) =  -1608.41961776     A.U. after   18 cycles
 SCF Done:  E(UB3LYP) =  -1608.42030264     A.U. after   14 cycles
 SCF Done:  E(UB3LYP) =  -1608.42039326     A.U. after   14 cycles
 SCF Done:  E(UB3LYP) =  -1608.42043125     A.U. after   13 cycles
 SCF Done:  E(UB3LYP) =  -1608.42047989     A.U. after   13 cycles
 SCF Done:  E(UB3LYP) =  -1608.42048294     A.U. after   12 cycles
 SCF Done:  E(UB3LYP) =  -1608.42048320     A.U. after   11 cycles
 Optimization completed.
    -- Stationary point found.
 Normal termination of Gaussian 16 at Sat Feb 10 17:43:43 2024.

 ----------------------------------------------------------------------
 #P Geom=AllCheck Guess=TCheck SCRF=Check GenChk UB3LYP/6-311++G(d,p) F
 req
 ----------------------------------------------------------------------

 Structure from the checkpoint file:  "122-an.chk"
 -------
 Reduced
 -------
 Charge = -2 Multiplicity = 1

                          Input orientation:
 ---------------------------------------------------------------------
 Center     Atomic      Atomic             Coordinates (Angstroms)
 Number     Number       Type             X           Y           Z
 ---------------------------------------------------------------------
      1         17           0       -2.503061    2.893534    1.558151
      2          6           0       -2.383845    1.196689    0.993316
      3          6           0       -3.600731    0.569701    0.866034
      4          6           0       -3.660641   -0.735872    0.314014
      5          6           0       -2.509302   -1.329922   -0.133347
      6          6           0       -1.238732   -0.697107   -0.028891
      7          6           0       -0.091756   -1.388644   -0.543217
      8          8           0       -0.177870   -2.586888   -1.049445
      9          6           0        1.151413   -0.674754   -0.488096
     10          6           0        2.302945   -1.285646   -1.059684
     11          6           0        3.527762   -0.670648   -1.069825
     12          6           0        3.655839    0.632962   -0.525039
     13          6           0        2.563542    1.237811    0.050513
     14         17           0        2.861108    2.932416    0.551315
     15          6           0        1.271434    0.632573    0.152198
     16          6           0        0.157000    1.214939    0.877243
     17          8           0        0.308768    2.163944    1.725344
     18          6           0       -1.135939    0.611078    0.612001
     19          1           0       -4.507026    1.085348    1.157689
     20          1           0       -4.619899   -1.235064    0.225685
     21          1           0       -2.530392   -2.310518   -0.592767
     22          1           0        2.168261   -2.267857   -1.496137
     23          1           0        4.393627   -1.152393   -1.511808
     24          1           0        4.597298    1.164314   -0.585645
 ---------------------------------------------------------------------

 SCF Done:  E(UB3LYP) =  -1608.42048320     A.U. after    2 cycles

 Alpha  occ. eigenvalues -- -101.53152-101.53149 -19.02254 -19.01869 -10.21732
 Alpha  occ. eigenvalues --  -10.21728 -10.19097 -10.17540 -10.15835 -10.15830
 Alpha  occ. eigenvalues --  -10.15675 -10.15661 -10.15595 -10.15593 -10.15030
 Alpha  occ. eigenvalues --  -10.15028 -10.14624 -10.14623  -9.44626  -9.44622
 Alpha  occ. eigenvalues --   -7.21053  -7.21050  -7.20157  -7.20153  -7.20063
 Alpha  occ. eigenvalues --   -7.20059  -0.94691  -0.93127  -0.86227  -0.86083
 Alpha  occ. eigenvalues --   -0.81352  -0.80687  -0.76270  -0.71894  -0.71603
 Alpha  occ. eigenvalues --   -0.71185  -0.64627  -0.61611  -0.60272  -0.55594
 Alpha  occ. eigenvalues --   -0.53145  -0.51294  -0.50147  -0.45527  -0.44699
 Alpha  occ. eigenvalues --   -0.44467  -0.43665  -0.41048  -0.40868  -0.39619
 Alpha  occ. eigenvalues --   -0.39602  -0.37792  -0.37278  -0.36979  -0.36008
 Alpha  occ. eigenvalues --   -0.34246  -0.33670  -0.32905  -0.32750  -0.31417
 Alpha  occ. eigenvalues --   -0.31022  -0.30234  -0.29692  -0.29121  -0.23128
 Alpha  occ. eigenvalues --   -0.23052  -0.22520  -0.22298  -0.20124  -0.19249
 Alpha  occ. eigenvalues --   -0.11128
 Alpha virt. eigenvalues --   -0.03572  -0.00733   0.00164   0.00762   0.00893
 Alpha virt. eigenvalues --    0.01103   0.02124   0.02152   0.03275   0.03706
 Alpha virt. eigenvalues --    0.04653   0.04855   0.05716   0.05873   0.06344

  Beta  occ. eigenvalues -- -101.53152-101.53149 -19.02254 -19.01869 -10.21732
  Beta  occ. eigenvalues --  -10.21728 -10.19097 -10.17540 -10.15835 -10.15830
  Beta  occ. eigenvalues --  -10.15675 -10.15661 -10.15595 -10.15593 -10.15030
  Beta  occ. eigenvalues --  -10.15028 -10.14624 -10.14623  -9.44626  -9.44622
  Beta  occ. eigenvalues --   -7.21053  -7.21050  -7.20157  -7.20153  -7.20063
  Beta  occ. eigenvalues --   -7.20059  -0.94691  -0.93127  -0.86227  -0.86083
  Beta  occ. eigenvalues --   -0.81352  -0.80687  -0.76270  -0.71894  -0.71603
  Beta  occ. eigenvalues --   -0.71185  -0.64627  -0.61611  -0.60272  -0.55594
  Beta  occ. eigenvalues --   -0.53145  -0.51294  -0.50147  -0.45527  -0.44699
  Beta  occ. eigenvalues --   -0.44467  -0.43665  -0.41048  -0.40868  -0.39619
  Beta  occ. eigenvalues --   -0.39602  -0.37792  -0.37278  -0.36979  -0.36008
  Beta  occ. eigenvalues --   -0.34246  -0.33670  -0.32905  -0.32750  -0.31417
  Beta  occ. eigenvalues --   -0.31022  -0.30234  -0.29692  -0.29121  -0.23128
  Beta  occ. eigenvalues --   -0.23052  -0.22520  -0.22298  -0.20124  -0.19249
  Beta  occ. eigenvalues --   -0.11128
  Beta virt. eigenvalues --   -0.03572  -0.00733   0.00164   0.00762   0.00893
  Beta virt. eigenvalues --    0.01103   0.02124   0.02152   0.03275   0.03706
  Beta virt. eigenvalues --    0.04653   0.04855   0.05716   0.05873   0.06344

 Mulliken charges and spin densities:
               1          2
     1  Cl   0.347678   0.000000
     2  C    0.639979  -0.000000
     3  C   -0.424222   0.000000
     4  C   -0.798908  -0.000000
     5  C    0.204606   0.000000
     6  C    0.286058   0.000000
     7  C   -0.784819  -0.000000
     8  O   -0.656269   0.000000
     9  C    0.288514   0.000000
    10  C    0.204776   0.000000
    11  C   -0.802072   0.000000
    12  C   -0.416217   0.000000
    13  C    0.645013  -0.000000
    14  Cl   0.347551   0.000000
    15  C    0.377563   0.000000
    16  C   -2.379279   0.000000
    17  O   -0.460833  -0.000000
    18  C    0.382778  -0.000000
    19  H    0.174972   0.000000
    20  H    0.161747  -0.000000
    21  H    0.162269   0.000000
    22  H    0.161987   0.000000
    23  H    0.161787  -0.000000
    24  H    0.175342   0.000000
 Sum of Mulliken charges =  -2.00000  -0.00000

 Dipole moment (field-independent basis, Debye):
    X=             -0.6431    Y=             -2.8099    Z=             -3.4786  Tot=              4.5177
 Quadrupole moment (field-independent basis, Debye-Ang):
   XX=           -143.3360   YY=           -178.3511   ZZ=           -144.4971
   XY=             -4.4500   XZ=             -0.0245   YZ=            -25.0944

  Exact polarizability: 569.497  21.292 386.184 -68.086 102.527 232.811
 Approx polarizability: 635.019  26.464 450.847 -74.010 128.903 270.483

                      1                      2                      3
                      A                      A                      A
 Frequencies --     45.6433                58.2762                82.6628
 Red. masses --     10.5489                10.4545                 8.4145
 Frc consts  --      0.0129                 0.0209                 0.0339
 IR Inten    --      0.0475                14.4600                 3.1933

                      4                      5                      6
                      A                      A                      A
 Frequencies --    152.3563               173.6356               193.4532
 Red. masses --     16.3963                10.3076                 4.4574
 Frc consts  --      0.2242                 0.1831                 0.0983
 IR Inten    --     12.0757                 8.9605                 0.0380

                      7                      8                      9
                      A                      A                      A
 Frequencies --    215.5501               219.2417               268.8968
 Red. masses --     13.5883                 4.8586                 6.9149
 Frc consts  --      0.3720                 0.1376                 0.2946
 IR Inten    --      0.3895                 7.5329                 1.5173

                     10                     11                     12
                      A                      A                      A
 Frequencies --    304.7151               320.5539               370.7774
 Red. masses --      8.1194                14.0936                 8.2029
 Frc consts  --      0.4442                 0.8532                 0.6644
 IR Inten    --      3.0880                 1.3523                12.8379

                     13                     14                     15
                      A                      A                      A
 Frequencies --    374.8209               380.0635               383.5323
 Red. masses --     12.0119                 8.4077                 7.0230
 Frc consts  --      0.9943                 0.7155                 0.6087
 IR Inten    --      1.7577                 4.2394                 4.1701

                     16                     17                     18
                      A                      A                      A
 Frequencies --    428.5850               476.1994               490.3401
 Red. masses --      8.7972                 8.6220                 4.1280
 Frc consts  --      0.9521                 1.1520                 0.5848
 IR Inten    --     18.1299                16.7311                 3.8571

                     19                     20                     21
                      A                      A                      A
 Frequencies --    494.7862               515.6120               563.9543
 Red. masses --      6.2943                 9.0692                 5.2938
 Frc consts  --      0.9079                 1.4206                 0.9920
 IR Inten    --      3.4424                 5.6091                13.2304

                     22                     23                     24
                      A                      A                      A
 Frequencies --    600.7514               625.6413               672.8925
 Red. masses --      5.2367                 4.9715                 7.3315
 Frc consts  --      1.1135                 1.1465                 1.9558
 IR Inten    --     48.1827                76.6258                21.1624

                     25                     26                     27
                      A                      A                      A
 Frequencies --    697.0193               710.3590               720.7029
 Red. masses --      4.9894                 2.8165                 4.0538
 Frc consts  --      1.4282                 0.8374                 1.2406
 IR Inten    --      8.8832               116.1008                20.7095

                     28                     29                     30
                      A                      A                      A
 Frequencies --    748.4294               763.0051               772.5472
 Red. masses --      5.1282                 2.1528                 1.6061
 Frc consts  --      1.6925                 0.7384                 0.5648
 IR Inten    --    186.3114                90.2943                12.1145

                     31                     32                     33
                      A                      A                      A
 Frequencies --    810.6823               837.2786               866.5650
 Red. masses --      5.1121                 8.5807                 1.4204
 Frc consts  --      1.9795                 3.5441                 0.6284
 IR Inten    --     24.3976               229.9933                 5.3835

                     34                     35                     36
                      A                      A                      A
 Frequencies --    867.7417               925.2359               950.2352
 Red. masses --      1.4122                 6.8907                 8.3030
 Frc consts  --      0.6265                 3.4755                 4.4172
 IR Inten    --      5.3935                 6.1861                 0.6568

                     37                     38                     39
                      A                      A                      A
 Frequencies --    982.0948               987.8066              1066.0588
 Red. masses --      1.2909                 1.2848                 2.3061
 Frc consts  --      0.7336                 0.7387                 1.5442
 IR Inten    --      1.9887                 3.6968               118.1889

                     40                     41                     42
                      A                      A                      A
 Frequencies --   1067.4371              1085.3148              1108.3314
 Red. masses --      2.1719                 5.5103                 2.7302
 Frc consts  --      1.4581                 3.8241                 1.9760
 IR Inten    --    390.2847               207.0639                 6.4791

                     43                     44                     45
                      A                      A                      A
 Frequencies --   1123.3377              1160.2766              1185.8728
 Red. masses --      2.0227                 1.2792                 2.6322
 Frc consts  --      1.5038                 1.0146                 2.1810
 IR Inten    --    539.7205               124.6437                 0.5619

                     46                     47                     48
                      A                      A                      A
 Frequencies --   1210.4762              1229.9415              1284.4359
 Red. masses --      2.0712                 2.6736                 7.5969
 Frc consts  --      1.7880                 2.3830                 7.3844
 IR Inten    --    143.6853               149.5602              1201.2854

                     49                     50                     51
                      A                      A                      A
 Frequencies --   1311.6934              1334.2199              1339.7193
 Red. masses --      4.7940                 3.7988                 2.1365
 Frc consts  --      4.8598                 3.9843                 2.2593
 IR Inten    --    760.9112              1833.3738                15.7900

                     52                     53                     54
                      A                      A                      A
 Frequencies --   1417.2719              1430.6829              1444.7774
 Red. masses --      2.9619                 3.8292                 4.9111
 Frc consts  --      3.5053                 4.6178                 6.0399
 IR Inten    --     40.4544               757.9372               142.8473

                     55                     56                     57
                      A                      A                      A
 Frequencies --   1472.1104              1477.1513              1518.1071
 Red. masses --      5.2156                 3.6760                 5.3724
 Frc consts  --      6.6594                 4.7259                 7.2950
 IR Inten    --    146.8967               227.2231                69.3643

                     58                     59                     60
                      A                      A                      A
 Frequencies --   1559.8107              1599.6407              1600.0469
 Red. masses --      8.1152                 5.3051                 5.5259
 Frc consts  --     11.6330                 7.9981                 8.3352
 IR Inten    --    119.8494                22.8711                31.2610

                     61                     62                     63
                      A                      A                      A
 Frequencies --   3157.2861              3157.5386              3185.7047
 Red. masses --      1.0867                 1.0870                 1.0898
 Frc consts  --      6.3822                 6.3851                 6.5166
 IR Inten    --     42.5664                25.6744                11.6955

                     64                     65                     66
                      A                      A                      A
 Frequencies --   3186.3146              3190.2565              3191.3109
 Red. masses --      1.0903                 1.0944                 1.0939
 Frc consts  --      6.5217                 6.5628                 6.5642
 IR Inten    --     15.3824                59.8039                26.2778

 - Thermochemistry -
 -------------------
 Temperature   298.150 Kelvin.  Pressure   1.00000 Atm.
 Atom     1 has atomic number 17 and mass  34.96885

 Molecular mass:   275.97448 amu.
 Principal axes and moments of inertia in atomic units:
                           1         2         3
     Eigenvalues --  3539.157555886.606739331.25949
           X            0.98232   0.06601   0.17519
           Y            0.00871   0.91867  -0.39493
           Z           -0.18701   0.38948   0.90185
 This molecule is an asymmetric top.
 Rotational symmetry number  1.
 Warning -- assumption of classical behavior for rotation
           may cause significant error
 Rotational temperatures (Kelvin)      0.02447     0.01471     0.00928
 Rotational constants (GHZ):           0.50994     0.30658     0.19341
 Zero-point vibrational energy     407614.2 (Joules/Mol)
                                   97.42213 (Kcal/Mol)
 Warning -- explicit consideration of  22 degrees of freedom as
           vibrations may cause significant error
 Vibrational temperatures:     65.67    83.85   118.93   219.21   249.82
          (Kelvin)            278.34   310.13   315.44   386.88   438.42
                              461.21   533.47   539.28   546.83   551.82
                              616.64   685.14   705.49   711.89   741.85
                              811.40   864.35   900.16   968.14  1002.86
                             1022.05  1036.93  1076.82  1097.79  1111.52
                             1166.39  1204.66  1246.79  1248.49  1331.21
                             1367.18  1413.02  1421.23  1533.82  1535.80
                             1561.53  1594.64  1616.23  1669.38  1706.21
                             1741.61  1769.61  1848.02  1887.23  1919.64
                             1927.56  2039.14  2058.43  2078.71  2118.04
                             2125.29  2184.22  2244.22  2301.53  2302.11
                             4542.63  4542.99  4583.52  4584.40  4590.07
                             4591.58

 Zero-point correction=                           0.155252 (Hartree/Particle)
 Thermal correction to Energy=                    0.169124
 Thermal correction to Enthalpy=                  0.170068
 Thermal correction to Gibbs Free Energy=         0.113941
 Sum of electronic and zero-point Energies=          -1608.265231
 Sum of electronic and thermal Energies=             -1608.251359
 Sum of electronic and thermal Enthalpies=           -1608.250415
 Sum of electronic and thermal Free Energies=        -1608.306542

                     E (Thermal)             CV                S
                      KCal/Mol        Cal/Mol-Kelvin    Cal/Mol-Kelvin
 Total                  106.127             54.805            118.130
 Electronic               0.000              0.000              0.000
 Translational            0.889              2.981             42.744
 Rotational               0.889              2.981             33.630
 Vibrational            104.349             48.844             41.756
 Vibration     1          0.595              1.979              4.998
 Vibration     2          0.596              1.974              4.515
 Vibration     3          0.600              1.961              3.827
 Vibration     4          0.619              1.900              2.643
 Vibration     5          0.627              1.875              2.396
 Vibration     6          0.635              1.849              2.194
 Vibration     7          0.645              1.817              1.996
 Vibration     8          0.647              1.812              1.965
 Vibration     9          0.673              1.730              1.603
 Vibration    10          0.696              1.665              1.391
 Vibration    11          0.706              1.634              1.307
 Vibration    12          0.743              1.532              1.077
 Vibration    13          0.746              1.524              1.060
 Vibration    14          0.750              1.513              1.039
 Vibration    15          0.753              1.505              1.025
 Vibration    16          0.790              1.408              0.863
 Vibration    17          0.833              1.303              0.720
 Vibration    18          0.846              1.271              0.683
 Vibration    19          0.850              1.262              0.671
 Vibration    20          0.871              1.215              0.620
 Vibration    21          0.920              1.109              0.516
 Vibration    22          0.959              1.030              0.448

 Optimization completed.
    -- Stationary point found.
 Normal termination of Gaussian 16 at Sat Feb 10 18:14:14 2024.
