 Q-Chem 5.4, Q-Chem, Inc., Pleasanton, CA (2021)
 Q-Chem 5.4.0 for Intel X86 EM64T Linux

User input:
--------------------------------------------------------------
$molecule
-1 2
O                 -4.7063940000     -0.6730890000      0.9893960000
C                 -3.4632210000     -0.2295320000      0.5691930000
C                 -3.4294200000      0.9787040000     -0.1572840000
C                 -2.2151860000      1.4624880000     -0.5980930000
C                 -1.0055450000      0.7818330000     -0.3419420000
C                  0.2539340000      1.3425560000     -0.8346270000
O                  0.2967300000      2.4168300000     -1.4819330000
C                  1.4626190000      0.5728810000     -0.5249530000
C                  2.7148430000      1.0510140000     -0.9671110000
C                  3.8812330000      0.3614810000     -0.7003640000
C                  3.8304690000     -0.8477200000      0.0289580000
C                  2.6181070000     -1.3358260000      0.4721010000
C                  1.4104600000     -0.6481630000      0.2116900000
C                  0.1517220000     -1.2048120000      0.7020520000
O                  0.1006110000     -2.2835790000      1.3522020000
C                 -1.0524250000     -0.4368310000      0.3926110000
C                 -2.3034530000     -0.9211880000      0.8380340000
H                 -4.5791090000     -1.4989020000      1.4676230000
H                 -4.3577700000      1.5029930000     -0.3549150000
H                 -2.1551760000      2.3881240000     -1.1590560000
H                  2.7221830000      1.9809930000     -1.5242530000
H                  4.8351480000      0.7458990000     -1.0492650000
H                  4.7465140000     -1.3919890000      0.2401270000
H                  2.5513270000     -2.2606830000      1.0335760000
H                 -2.3082050000     -1.8534790000      1.3962310000
$end

$rem
BASIS  =  6-311++G(d,p)
GUI  =  2
JOB_TYPE  =  SP
METHOD  =  B3LYP
SCF_CONVERGENCE  = 8
SOLVENT_METHOD = sm12
$end

$smx
solvent dimethylformamide
charges CM5
$end

--------------------------------------------------------------

             Standard Nuclear Orientation (Angstroms)
    I     Atom           X                Y                Z
 ----------------------------------------------------------------
    1      O      -4.7063940000    -0.6730890000     0.9893960000
    2      C      -3.4632210000    -0.2295320000     0.5691930000
    3      C      -3.4294200000     0.9787040000    -0.1572840000
    4      C      -2.2151860000     1.4624880000    -0.5980930000
    5      C      -1.0055450000     0.7818330000    -0.3419420000
    6      C       0.2539340000     1.3425560000    -0.8346270000
    7      O       0.2967300000     2.4168300000    -1.4819330000
    8      C       1.4626190000     0.5728810000    -0.5249530000
    9      C       2.7148430000     1.0510140000    -0.9671110000
   10      C       3.8812330000     0.3614810000    -0.7003640000
   11      C       3.8304690000    -0.8477200000     0.0289580000
   12      C       2.6181070000    -1.3358260000     0.4721010000
   13      C       1.4104600000    -0.6481630000     0.2116900000
   14      C       0.1517220000    -1.2048120000     0.7020520000
   15      O       0.1006110000    -2.2835790000     1.3522020000
   16      C      -1.0524250000    -0.4368310000     0.3926110000
   17      C      -2.3034530000    -0.9211880000     0.8380340000
   18      H      -4.5791090000    -1.4989020000     1.4676230000
   19      H      -4.3577700000     1.5029930000    -0.3549150000
   20      H      -2.1551760000     2.3881240000    -1.1590560000
   21      H       2.7221830000     1.9809930000    -1.5242530000
   22      H       4.8351480000     0.7458990000    -1.0492650000
   23      H       4.7465140000    -1.3919890000     0.2401270000
   24      H       2.5513270000    -2.2606830000     1.0335760000
   25      H      -2.3082050000    -1.8534790000     1.3962310000
 ----------------------------------------------------------------

   18    -764.2652582733      4.74e-09  Convergence criterion met
 Total energy in the final basis set =     -764.3567294951

                    Orbital Energies (a.u.)
 --------------------------------------------------------------

 Alpha MOs
 -- Occupied --
-19.1623 -19.0788 -19.0771 -10.2439 -10.2296 -10.2247 -10.1837 -10.1835
-10.1831 -10.1821 -10.1817 -10.1804 -10.1798 -10.1794 -10.1789 -10.1768
-10.1764  -1.0685  -1.0054  -1.0010  -0.8677  -0.8588  -0.7915  -0.7609
 -0.7581  -0.7449  -0.6731  -0.6560  -0.6236  -0.6078  -0.5658  -0.5596
 -0.5414  -0.5083  -0.4822  -0.4744  -0.4649  -0.4390  -0.4363  -0.4321
 -0.4317  -0.4164  -0.4110  -0.4104  -0.4026  -0.3832  -0.3820  -0.3636
 -0.3628  -0.3544  -0.3419  -0.3288  -0.2715  -0.2661  -0.2626  -0.2480
 -0.2402  -0.2394  -0.1454

 Beta MOs
 -- Occupied --
-19.1622 -19.0735 -19.0707 -10.2436 -10.2283 -10.2229 -10.1838 -10.1827
-10.1826 -10.1814 -10.1814 -10.1798 -10.1796 -10.1787 -10.1785 -10.1762
-10.1761  -1.0681  -0.9961  -0.9899  -0.8651  -0.8577  -0.7876  -0.7585
 -0.7565  -0.7432  -0.6657  -0.6546  -0.6212  -0.6069  -0.5634  -0.5588
 -0.5395  -0.5069  -0.4798  -0.4727  -0.4639  -0.4383  -0.4354  -0.4311
 -0.4242  -0.4130  -0.4072  -0.4034  -0.3996  -0.3822  -0.3619  -0.3609
 -0.3565  -0.3532  -0.3401  -0.3184  -0.2630  -0.2537  -0.2503  -0.2426
 -0.2340  -0.2333

          Ground-State Mulliken Net Atomic Charges

     Atom                 Charge (a.u.)    Spin (a.u.)
  --------------------------------------------------------
      1 O                    -0.139530       0.004005
      2 C                     1.315967       0.019052
      3 C                     1.025887       0.029783
      4 C                     0.277697       0.013756
      5 C                    -0.934236       0.018408
      6 C                    -2.086615       0.063466
      7 O                    -0.302659       0.199804
      8 C                    -1.122828       0.054183
      9 C                    -0.046375       0.010788
     10 C                     0.919555       0.056617
     11 C                     0.887016       0.026760
     12 C                    -0.013177       0.040542
     13 C                    -0.807585       0.037075
     14 C                    -1.855661       0.096366
     15 O                    -0.304438       0.238644
     16 C                    -0.563481       0.050745
     17 C                     0.696233       0.057443
     18 H                     0.357366      -0.000115
     19 H                     0.337738      -0.002607
     20 H                     0.169177      -0.000893
     21 H                     0.157813      -0.000507
     22 H                     0.356360      -0.004193
     23 H                     0.358225      -0.002356
     24 H                     0.154512      -0.002487
     25 H                     0.163037      -0.004278
  --------------------------------------------------------
  Sum of atomic charges =    -1.000000

                    Cartesian Multipole Moments
 -----------------------------------------------------------------
    Charge (ESU x 10^10)
                -4.8032
    Dipole Moment (Debye)
         X      -0.6655      Y      -1.1724      Z       0.7854
       Tot       1.5602
    Quadrupole Moments (Debye-Ang)
        XX    -110.2548     XY       3.1449     YY    -121.7442
        XZ      -1.2992     YZ       9.2547     ZZ    -110.9521

 Total job time:  608.29s(wall), 4525.40s(cpu)
        *  Thank you very much for using Q-Chem.  Have a nice day.  *
