 Gaussian 16, Revision A.03,
 Gaussian 16:  ES64L-G16RevA.03 25-Dec-2016

 --------------------------------------
 #P UB3LYP/6-311++G(d,p) nosym opt freq
 --------------------------------------

 -------
 Radical
 -------
 Symbolic Z-matrix:
 Charge = -1 Multiplicity = 2

 SCF Done:  E(UB3LYP) =  -693.583995421     A.U. after   22 cycles
 Optimization completed.
    -- Stationary point found.
 Normal termination of Gaussian 16 at Tue Jan  9 20:37:03 2024.

 ----------------------------------------------------------------------
 #P Geom=AllCheck Guess=TCheck SCRF=Check GenChk UB3LYP/6-311++G(d,p) F
 req
 ----------------------------------------------------------------------

 Structure from the checkpoint file:  "341-rad.chk"
 -------
 Radical
 -------
 Charge = -1 Multiplicity = 2

                          Input orientation:
 ---------------------------------------------------------------------
 Center     Atomic      Atomic             Coordinates (Angstroms)
 Number     Number       Type             X           Y           Z
 ---------------------------------------------------------------------
      1          6           0       -0.339591   -2.060952    0.914876
      2          6           0       -0.232089   -0.952962   -0.169421
      3          6           0       -0.545053   -1.570323   -1.560676
      4          6           0       -1.277581    0.134823    0.132800
      5          6           0       -2.629752   -0.209251    0.177329
      6          6           0       -3.633919    0.730362    0.446483
      7          6           0       -3.267115    2.061807    0.678733
      8          6           0       -1.933797    2.430242    0.640550
      9          6           0       -0.907691    1.485852    0.368924
     10          6           0        0.473815    1.945539    0.345344
     11          8           0        0.770164    3.162349    0.561331
     12          6           0        1.501737    0.953170    0.064153
     13          6           0        2.859491    1.370540    0.034550
     14          6           0        3.886441    0.480506   -0.226573
     15          6           0        3.600472   -0.868620   -0.470052
     16          6           0        2.264589   -1.290940   -0.443124
     17          6           0        1.209479   -0.414923   -0.182379
     18          1           0        0.371050   -2.870199    0.724024
     19          1           0       -1.345507   -2.489517    0.942742
     20          1           0       -0.121446   -1.643790    1.901024
     21          1           0       -1.555204   -1.988846   -1.588583
     22          1           0       -0.474273   -0.803833   -2.336323
     23          1           0        0.161720   -2.368010   -1.806636
     24          1           0       -2.926138   -1.238533   -0.001587
     25          1           0       -4.675124    0.425103    0.472856
     26          1           0       -4.029753    2.807418    0.889326
     27          1           0       -1.620326    3.452293    0.816264
     28          1           0        3.050371    2.419577    0.226392
     29          1           0        4.915777    0.829941   -0.242529
     30          1           0        4.394239   -1.579473   -0.676499
     31          1           0        2.055014   -2.339349   -0.633320
 ---------------------------------------------------------------------

 SCF Done:  E(UB3LYP) =  -693.583995421     A.U. after    1 cycles

 Alpha  occ. eigenvalues --  -18.91197 -10.07786 -10.06032 -10.05061 -10.05061
 Alpha  occ. eigenvalues --  -10.04962 -10.04961 -10.04313 -10.04313 -10.04293
 Alpha  occ. eigenvalues --  -10.04293 -10.04117 -10.04117 -10.03298 -10.03297
 Alpha  occ. eigenvalues --  -10.02907 -10.02907  -0.83429  -0.74137  -0.71760
 Alpha  occ. eigenvalues --   -0.68562  -0.63261  -0.61633  -0.60621  -0.59857
 Alpha  occ. eigenvalues --   -0.57762  -0.51574  -0.50482  -0.48087  -0.45788
 Alpha  occ. eigenvalues --   -0.42993  -0.40683  -0.39636  -0.35373  -0.33332
 Alpha  occ. eigenvalues --   -0.33314  -0.32426  -0.31544  -0.31302  -0.30681
 Alpha  occ. eigenvalues --   -0.28986  -0.28750  -0.27584  -0.25978  -0.25781
 Alpha  occ. eigenvalues --   -0.25672  -0.24892  -0.23241  -0.23198  -0.23117
 Alpha  occ. eigenvalues --   -0.21777  -0.20352  -0.19282  -0.18386  -0.12441
 Alpha  occ. eigenvalues --   -0.12062  -0.11842  -0.11645  -0.08316   0.02207
 Alpha virt. eigenvalues --    0.07752   0.08522   0.09239   0.10261   0.10308
 Alpha virt. eigenvalues --    0.10873   0.10912   0.11293   0.11830   0.12197
 Alpha virt. eigenvalues --    0.12214   0.13046   0.14182   0.14265   0.14906

  Beta  occ. eigenvalues --  -18.90555 -10.07801 -10.05716 -10.05036 -10.05036
  Beta  occ. eigenvalues --  -10.04842 -10.04842 -10.04368 -10.04367 -10.04352
  Beta  occ. eigenvalues --  -10.04352 -10.03896 -10.03896 -10.03304 -10.03303
  Beta  occ. eigenvalues --  -10.02739 -10.02739  -0.82271  -0.73920  -0.71561
  Beta  occ. eigenvalues --   -0.68411  -0.62813  -0.61443  -0.60357  -0.59710
  Beta  occ. eigenvalues --   -0.57718  -0.50949  -0.50323  -0.47857  -0.45637
  Beta  occ. eigenvalues --   -0.42813  -0.40417  -0.39519  -0.35176  -0.33254
  Beta  occ. eigenvalues --   -0.33233  -0.32233  -0.31413  -0.31140  -0.30602
  Beta  occ. eigenvalues --   -0.28911  -0.28684  -0.27463  -0.25909  -0.25323
  Beta  occ. eigenvalues --   -0.24976  -0.24823  -0.22816  -0.22674  -0.22594
  Beta  occ. eigenvalues --   -0.21675  -0.19163  -0.18637  -0.18253  -0.11937
  Beta  occ. eigenvalues --   -0.11519  -0.10995  -0.09505  -0.07730
  Beta virt. eigenvalues --    0.07726   0.08003   0.08499   0.09214   0.10262
  Beta virt. eigenvalues --    0.10267   0.10894   0.11491   0.11698   0.12177
  Beta virt. eigenvalues --    0.12181   0.12750   0.13026   0.14168   0.14337

 Mulliken charges and spin densities:
               1          2
     1  C   -0.807198   0.008142
     2  C    0.405933  -0.094477
     3  C   -0.807208   0.008152
     4  C    0.309380   0.109593
     5  C   -0.147493  -0.051027
     6  C   -0.487378   0.188206
     7  C   -0.365117  -0.058834
     8  C    0.064395   0.163889
     9  C    0.388070  -0.028521
    10  C   -0.641005   0.191500
    11  O   -0.422206   0.245054
    12  C    0.388041  -0.028510
    13  C    0.064545   0.163880
    14  C   -0.365407  -0.058831
    15  C   -0.487150   0.188195
    16  C   -0.147394  -0.051030
    17  C    0.308994   0.109572
    18  H    0.117276   0.007168
    19  H    0.117255   0.007172
    20  H    0.158145   0.002401
    21  H    0.117321   0.007171
    22  H    0.158092   0.002394
    23  H    0.117293   0.007176
    24  H    0.071176   0.002332
    25  H    0.114866  -0.014297
    26  H    0.112004   0.003722
    27  H    0.183365  -0.010974
    28  H    0.183386  -0.010973
    29  H    0.111998   0.003722
    30  H    0.114884  -0.014297
    31  H    0.071135   0.002330
 Sum of Mulliken charges =  -1.00000   1.00000

 Dipole moment (field-independent basis, Debye):
    X=             -1.8622    Y=             -7.6453    Z=             -1.3581  Tot=              7.9852
 Quadrupole moment (field-independent basis, Debye-Ang):
   XX=           -128.8187   YY=           -132.1586   ZZ=           -113.0435
   XY=             -1.2548   XZ=              1.1308   YZ=             -3.8433

  Exact polarizability: 379.517 -32.321 230.856 -27.113  22.713 136.261
 Approx polarizability: 592.149 -42.011 392.575 -40.946  41.839 210.213

                      1                      2                      3
                      A                      A                      A
 Frequencies --     32.9100               101.5922               104.3601
 Red. masses --      4.3979                 3.6586                 4.0008
 Frc consts  --      0.0028                 0.0222                 0.0257
 IR Inten    --      0.6385                 0.0038                 2.2700

                      4                      5                      6
                      A                      A                      A
 Frequencies --    160.0941               188.7808               223.0666
 Red. masses --      5.7352                 1.8766                 3.9253
 Frc consts  --      0.0866                 0.0394                 0.1151
 IR Inten    --      0.9328                 0.0000                 0.6738

                      7                      8                      9
                      A                      A                      A
 Frequencies --    253.6186               265.3906               300.1138
 Red. masses --      1.4559                 1.0438                 3.5472
 Frc consts  --      0.0552                 0.0433                 0.1882
 IR Inten    --      0.0003                 0.0070                 2.3952

                     10                     11                     12
                      A                      A                      A
 Frequencies --    304.9091               340.1050               341.6240
 Red. masses --      3.2971                 2.8813                 4.7558
 Frc consts  --      0.1806                 0.1964                 0.3270
 IR Inten    --      3.0631                 0.0965                 3.5868

                     13                     14                     15
                      A                      A                      A
 Frequencies --    353.5694               367.3385               388.8680
 Red. masses --      4.6444                 5.5861                 3.5155
 Frc consts  --      0.3421                 0.4441                 0.3132
 IR Inten    --      0.4997                 0.0991                 0.0073

                     16                     17                     18
                      A                      A                      A
 Frequencies --    428.2397               468.8111               503.6423
 Red. masses --      7.4328                 3.2736                 4.3492
 Frc consts  --      0.8031                 0.4239                 0.6500
 IR Inten    --      3.2813                 0.0000                 2.1455

                     19                     20                     21
                      A                      A                      A
 Frequencies --    550.4141               578.8359               601.8424
 Red. masses --      3.8083                 3.5825                 5.5980
 Frc consts  --      0.6798                 0.7072                 1.1947
 IR Inten    --      0.0000                 8.5442                 0.2948

                     22                     23                     24
                      A                      A                      A
 Frequencies --    622.7433               636.1218               646.5460
 Red. masses --      4.8397                 3.2481                 5.2939
 Frc consts  --      1.1058                 0.7744                 1.3038
 IR Inten    --      0.0850                54.8198                 3.8487

                     25                     26                     27
                      A                      A                      A
 Frequencies --    678.9211               718.3405               728.1195
 Red. masses --      5.9700                 1.3468                 1.4160
 Frc consts  --      1.6213                 0.4095                 0.4423
 IR Inten    --      0.0553                 0.0045                88.3292

                     28                     29                     30
                      A                      A                      A
 Frequencies --    747.6404               770.7272               776.3272
 Red. masses --      3.2072                 3.4696                 5.6688
 Frc consts  --      1.0562                 1.2143                 2.0129
 IR Inten    --      0.0002                 0.3904                 3.3247

                     31                     32                     33
                      A                      A                      A
 Frequencies --    814.7927               847.1636               851.2246
 Red. masses --      2.7684                 1.4288                 1.6132
 Frc consts  --      1.0829                 0.6042                 0.6887
 IR Inten    --     50.2858                 0.0004                 7.8335

                     34                     35                     36
                      A                      A                      A
 Frequencies --    905.4999               908.0729               915.4974
 Red. masses --      1.3669                 1.3410                 2.8086
 Frc consts  --      0.6603                 0.6515                 1.3869
 IR Inten    --      6.3568                 0.0056                 0.1394

                     37                     38                     39
                      A                      A                      A
 Frequencies --    924.0557               933.2311               964.7995
 Red. masses --      1.5537                 6.4619                 1.2718
 Frc consts  --      0.7816                 3.3158                 0.6975
 IR Inten    --      0.0393                 0.1564                 0.0002

                     40                     41                     42
                      A                      A                      A
 Frequencies --    965.3526              1029.3170              1040.0385
 Red. masses --      1.2812                 1.2838                 2.5263
 Frc consts  --      0.7034                 0.8014                 1.6100
 IR Inten    --      2.5038                 0.0063               203.1644

                     43                     44                     45
                      A                      A                      A
 Frequencies --   1047.2185              1093.2258              1094.3912
 Red. masses --      2.4752                 2.5786                 2.4551
 Frc consts  --      1.5993                 1.8158                 1.7325
 IR Inten    --      2.4062                 0.3556                17.8982

                     46                     47                     48
                      A                      A                      A
 Frequencies --   1103.5401              1132.6995              1135.1811
 Red. masses --      1.5878                 1.6869                 3.3612
 Frc consts  --      1.1392                 1.2751                 2.5519
 IR Inten    --     50.6715                 9.2552                 6.3445

                     49                     50                     51
                      A                      A                      A
 Frequencies --   1151.0065              1163.0831              1194.3069
 Red. masses --      1.2550                 1.1317                 3.1289
 Frc consts  --      0.9796                 0.9020                 2.6295
 IR Inten    --    103.1893                 1.8144                 0.2886

                     52                     53                     54
                      A                      A                      A
 Frequencies --   1204.8772              1215.8885              1277.0629
 Red. masses --      1.9104                 2.8672                 2.3343
 Frc consts  --      1.6340                 2.4975                 2.2430
 IR Inten    --    291.9550                 7.4697               164.0920

                     55                     56                     57
                      A                      A                      A
 Frequencies --   1281.6729              1319.9238              1336.1306
 Red. masses --      1.6245                 2.8593                 7.9389
 Frc consts  --      1.5723                 2.9350                 8.3504
 IR Inten    --      0.9524               134.0738                18.3913

                     58                     59                     60
                      A                      A                      A
 Frequencies --   1346.1848              1385.2748              1408.5500
 Red. masses --      6.8268                 1.1962                 1.2116
 Frc consts  --      7.2891                 1.3525                 1.4163
 IR Inten    --      2.4761                 8.5140                 6.0887

                     61                     62                     63
                      A                      A                      A
 Frequencies --   1443.4926              1459.0583              1480.4268
 Red. masses --      2.2200                 2.3655                 2.1986
 Frc consts  --      2.7254                 2.9670                 2.8391
 IR Inten    --    253.6104                 9.8327                19.4884

                     64                     65                     66
                      A                      A                      A
 Frequencies --   1481.0402              1483.3346              1484.1258
 Red. masses --      3.3185                 1.0481                 1.0495
 Frc consts  --      4.2887                 1.3587                 1.3620
 IR Inten    --    105.2483                 0.0159                 1.6163

                     67                     68                     69
                      A                      A                      A
 Frequencies --   1496.6210              1506.3961              1523.8820
 Red. masses --      1.0545                 1.1963                 4.2650
 Frc consts  --      1.3916                 1.5995                 5.8354
 IR Inten    --     15.5068                14.2515               153.0231

                     70                     71                     72
                      A                      A                      A
 Frequencies --   1546.2371              1569.6332              1583.4504
 Red. masses --      4.5042                 6.8022                 4.5617
 Frc consts  --      6.3448                 9.8741                 6.7388
 IR Inten    --      6.7068                35.0515               400.7670

                     73                     74                     75
                      A                      A                      A
 Frequencies --   1628.6514              3016.4420              3021.1526
 Red. masses --      5.9707                 1.0333                 1.0340
 Frc consts  --      9.3311                 5.5395                 5.5608
 IR Inten    --      0.2110                34.6714                56.0353

                     76                     77                     78
                      A                      A                      A
 Frequencies --   3076.1438              3080.3612              3091.7406
 Red. masses --      1.1014                 1.1009                 1.1021
 Frc consts  --      6.1405                 6.1545                 6.2068
 IR Inten    --      0.0179                35.0383                14.4827

                     79                     80                     81
                      A                      A                      A
 Frequencies --   3093.5212              3125.1604              3125.6274
 Red. masses --      1.1014                 1.0842                 1.0845
 Frc consts  --      6.2104                 6.2387                 6.2425
 IR Inten    --     33.6249                50.9317                 9.9224

                     82                     83                     84
                      A                      A                      A
 Frequencies --   3137.4653              3138.2427              3160.2325
 Red. masses --      1.0872                 1.0873                 1.0942
 Frc consts  --      6.3055                 6.3090                 6.4388
 IR Inten    --     21.6488                64.9198                87.6979

                     85                     86                     87
                      A                      A                      A
 Frequencies --   3160.8199              3186.9390              3187.4103
 Red. masses --      1.0941                 1.0907                 1.0910
 Frc consts  --      6.4404                 6.5269                 6.5303
 IR Inten    --     30.9948                14.0751                 7.1944

 - Thermochemistry -
 -------------------
 Temperature   298.150 Kelvin.  Pressure   1.00000 Atm.
 Atom     1 has atomic number  6 and mass  12.00000

 Molecular mass:   222.10447 amu.
 Principal axes and moments of inertia in atomic units:
                           1         2         3
     Eigenvalues --  2100.054424313.052316022.52144
           X            0.96906   0.23315   0.08105
           Y           -0.21418   0.95746  -0.19337
           Z           -0.12269   0.17003   0.97777
 This molecule is an asymmetric top.
 Rotational symmetry number  1.
 Warning -- assumption of classical behavior for rotation
           may cause significant error
 Rotational temperatures (Kelvin)      0.04124     0.02008     0.01438
 Rotational constants (GHZ):           0.85938     0.41844     0.29967
 Zero-point vibrational energy     654719.1 (Joules/Mol)
                                  156.48162 (Kcal/Mol)
 Warning -- explicit consideration of  21 degrees of freedom as
           vibrations may cause significant error
 Vibrational temperatures:     47.35   146.17   150.15   230.34   271.61
          (Kelvin)            320.94   364.90   381.84   431.80   438.70
                              489.34   491.52   508.71   528.52   559.49
                              616.14   674.51   724.63   791.92   832.82
                              865.92   895.99   915.24   930.24   976.82
                             1033.53  1047.60  1075.69  1108.90  1116.96
                             1172.31  1218.88  1224.72  1302.81  1306.51
                             1317.20  1329.51  1342.71  1388.13  1388.93
                             1480.96  1496.38  1506.71  1572.91  1574.58
                             1587.75  1629.70  1633.27  1656.04  1673.42
                             1718.34  1733.55  1749.39  1837.41  1844.04
                             1899.08  1922.39  1936.86  1993.10  2026.59
                             2076.86  2099.26  2130.00  2130.89  2134.19
                             2135.33  2153.30  2167.37  2192.53  2224.69
                             2258.35  2278.23  2343.27  4339.99  4346.76
                             4425.88  4431.95  4448.33  4450.89  4496.41
                             4497.08  4514.11  4515.23  4546.87  4547.71
                             4585.29  4585.97

 Zero-point correction=                           0.249369 (Hartree/Particle)
 Thermal correction to Energy=                    0.263075
 Thermal correction to Enthalpy=                  0.264019
 Thermal correction to Gibbs Free Energy=         0.209000
 Sum of electronic and zero-point Energies=           -693.334626
 Sum of electronic and thermal Energies=              -693.320920
 Sum of electronic and thermal Enthalpies=            -693.319976
 Sum of electronic and thermal Free Energies=         -693.374995

                     E (Thermal)             CV                S
                      KCal/Mol        Cal/Mol-Kelvin    Cal/Mol-Kelvin
 Total                  165.082             56.970            115.798
 Electronic               0.000              0.000              1.377
 Translational            0.889              2.981             42.097
 Rotational               0.889              2.981             32.367
 Vibrational            163.305             51.008             39.957
 Vibration     1          0.594              1.983              5.646
 Vibration     2          0.604              1.948              3.424
 Vibration     3          0.605              1.946              3.371
 Vibration     4          0.622              1.891              2.549
 Vibration     5          0.633              1.855              2.240
 Vibration     6          0.649              1.806              1.934
 Vibration     7          0.665              1.757              1.705
 Vibration     8          0.671              1.736              1.626
 Vibration     9          0.693              1.673              1.416
 Vibration    10          0.696              1.664              1.390
 Vibration    11          0.720              1.595              1.212
 Vibration    12          0.721              1.592              1.205
 Vibration    13          0.730              1.568              1.150
 Vibration    14          0.740              1.539              1.091
 Vibration    15          0.757              1.494              1.004
 Vibration    16          0.790              1.409              0.864
 Vibration    17          0.826              1.319              0.741
 Vibration    18          0.859              1.242              0.649
 Vibration    19          0.906              1.139              0.543
 Vibration    20          0.935              1.077              0.488
 Vibration    21          0.960              1.028              0.446

 Optimization completed.
    -- Stationary point found.
 Normal termination of Gaussian 16 at Tue Jan  9 21:54:40 2024.
