 Gaussian 16, Revision A.03,
 Gaussian 16:  ES64L-G16RevA.03 25-Dec-2016

 ----------------------------------------------------------------
 #P UB3LYP/6-311++G(d,p) SCRF=(PCM,Solvent=n,n-DiMethylFormamide)
 ----------------------------------------------------------------

 ------------------
 Radical PCM in DMF
 ------------------
 Symbolic Z-matrix:
 Charge = -1 Multiplicity = 2

                         Standard orientation:
 ---------------------------------------------------------------------
 Center     Atomic      Atomic             Coordinates (Angstroms)
 Number     Number       Type             X           Y           Z
 ---------------------------------------------------------------------
      1          6           0       -0.000060   -2.279814   -1.265519
      2          6           0        0.000047   -1.378261    0.000222
      3          6           0        0.000415   -2.278888    1.266533
      4          6           0        1.283251   -0.529111   -0.000193
      5          6           0        2.525353   -1.166228   -0.000678
      6          6           0        3.732718   -0.454935   -0.000764
      7          6           0        3.690926    0.944881   -0.000109
      8          6           0        2.473090    1.602006    0.000410
      9          6           0        1.243138    0.890833    0.000211
     10          6           0       -0.000060    1.649046    0.000192
     11          8           0       -0.000124    2.919912    0.000290
     12          6           0       -1.243220    0.890733   -0.000080
     13          6           0       -2.473203    1.601867   -0.000468
     14          6           0       -3.691042    0.944721   -0.000494
     15          6           0       -3.732749   -0.455087   -0.000140
     16          6           0       -2.525348   -1.166316    0.000134
     17          6           0       -1.283270   -0.529221    0.000101
     18          1           0       -0.885453   -2.921407   -1.292995
     19          1           0        0.886360   -2.919933   -1.294113
     20          1           0       -0.001122   -1.661859   -2.166757
     21          1           0        0.886248   -2.919863    1.294758
     22          1           0        0.000832   -1.660389    2.167423
     23          1           0       -0.885514   -2.919685    1.295489
     24          1           0        2.570166   -2.251248   -0.000757
     25          1           0        4.679562   -0.985475   -0.001194
     26          1           0        4.615499    1.516779   -0.000027
     27          1           0        2.409778    2.683541    0.000837
     28          1           0       -2.409958    2.683401   -0.000657
     29          1           0       -4.615645    1.516562   -0.000745
     30          1           0       -4.679534   -0.985742   -0.000078
     31          1           0       -2.570141   -2.251328    0.000350
 ---------------------------------------------------------------------

 SCF Done:  E(UB3LYP) =  -693.661058557     A.U. after   18 cycles

 The electronic state is 2-A.
 Alpha  occ. eigenvalues --  -19.04723 -10.19027 -10.18871 -10.16870 -10.16870
 Alpha  occ. eigenvalues --  -10.16013 -10.16012 -10.15879 -10.15879 -10.15741
 Alpha  occ. eigenvalues --  -10.15741 -10.15672 -10.15672 -10.15439 -10.15439
 Alpha  occ. eigenvalues --  -10.15171 -10.15171  -0.97043  -0.85952  -0.83754
 Alpha  occ. eigenvalues --   -0.80016  -0.75360  -0.73538  -0.72613  -0.71428
 Alpha  occ. eigenvalues --   -0.68210  -0.63551  -0.61946  -0.59927  -0.57661
 Alpha  occ. eigenvalues --   -0.54718  -0.52391  -0.51322  -0.47004  -0.44952
 Alpha  occ. eigenvalues --   -0.44636  -0.44268  -0.42840  -0.42310  -0.42282
 Alpha  occ. eigenvalues --   -0.40686  -0.39382  -0.39238  -0.38622  -0.38160
 Alpha  occ. eigenvalues --   -0.37224  -0.36162  -0.35212  -0.35084  -0.34413
 Alpha  occ. eigenvalues --   -0.33639  -0.32703  -0.30967  -0.30090  -0.24484
 Alpha  occ. eigenvalues --   -0.24464  -0.23996  -0.23939  -0.21988  -0.10599
 Alpha virt. eigenvalues --   -0.00893  -0.00608  -0.00495   0.00077   0.00515
 Alpha virt. eigenvalues --    0.00972   0.01981   0.02009   0.02294   0.03219
 Alpha virt. eigenvalues --    0.04219   0.04267   0.04727   0.05505   0.05807

  Beta  occ. eigenvalues --  -19.04168 -10.18889 -10.18602 -10.16724 -10.16724
  Beta  occ. eigenvalues --  -10.16097 -10.16096 -10.15931 -10.15931 -10.15720
  Beta  occ. eigenvalues --  -10.15719 -10.15519 -10.15519 -10.15412 -10.15412
  Beta  occ. eigenvalues --  -10.14989 -10.14989  -0.95977  -0.85722  -0.83557
  Beta  occ. eigenvalues --   -0.79861  -0.74913  -0.73332  -0.72373  -0.71282
  Beta  occ. eigenvalues --   -0.68157  -0.62757  -0.61896  -0.59692  -0.57513
  Beta  occ. eigenvalues --   -0.54528  -0.52105  -0.51200  -0.46784  -0.44847
  Beta  occ. eigenvalues --   -0.44553  -0.44085  -0.42709  -0.42237  -0.41982
  Beta  occ. eigenvalues --   -0.40618  -0.39249  -0.39135  -0.38184  -0.37168
  Beta  occ. eigenvalues --   -0.36906  -0.36095  -0.34966  -0.34599  -0.33866
  Beta  occ. eigenvalues --   -0.33544  -0.31363  -0.30851  -0.30000  -0.23916
  Beta  occ. eigenvalues --   -0.23429  -0.23232  -0.22603  -0.21495
  Beta virt. eigenvalues --   -0.04575  -0.00497  -0.00183  -0.00110   0.00505
  Beta virt. eigenvalues --    0.00839   0.00967   0.01984   0.02025   0.02275
  Beta virt. eigenvalues --    0.03220   0.04208   0.04257   0.04776   0.05562

 Mulliken charges and spin densities:
               1          2
     1  C   -0.785001   0.017499
     2  C    0.383953  -0.095842
     3  C   -0.785186   0.017493
     4  C    0.232150   0.130865
     5  C   -0.139685  -0.060920
     6  C   -0.508127   0.183392
     7  C   -0.422465  -0.067365
     8  C    0.054502   0.176360
     9  C    0.316007  -0.063959
    10  C   -0.482957   0.268123
    11  O   -0.564492   0.212334
    12  C    0.315889  -0.063954
    13  C    0.054507   0.176358
    14  C   -0.422656  -0.067364
    15  C   -0.507980   0.183383
    16  C   -0.139815  -0.060923
    17  C    0.232098   0.130843
    18  H    0.142246   0.004374
    19  H    0.142191   0.004379
    20  H    0.162321   0.001041
    21  H    0.142277   0.004378
    22  H    0.162279   0.001040
    23  H    0.142260   0.004378
    24  H    0.127583   0.002780
    25  H    0.169594  -0.013328
    26  H    0.164000   0.003994
    27  H    0.176671  -0.011403
    28  H    0.176684  -0.011403
    29  H    0.163995   0.003994
    30  H    0.169608  -0.013328
    31  H    0.127550   0.002779
 Sum of Mulliken charges =  -1.00000   1.00000

 Dipole moment (field-independent basis, Debye):
    X=              0.0005    Y=             -9.6804    Z=              0.0000  Tot=              9.6804
 Quadrupole moment (field-independent basis, Debye-Ang):
   XX=           -116.0252   YY=           -127.4927   ZZ=           -111.6245
   XY=              0.0001   XZ=              0.0001   YZ=             -0.0033

 Normal termination of Gaussian 16 at Sat Jan 13 19:21:21 2024.
