 Gaussian 16, Revision A.03,
 Gaussian 16:  ES64L-G16RevA.03 25-Dec-2016

 ----------------------------------------------------------------------
 #P UB3LYP/6-311++G(d,p) nosym opt freq SCRF=(PCM,Solvent=n,n-DiMethylF
 ormamide)
 ----------------------------------------------------------------------

 -------
 Radical
 -------
 Symbolic Z-matrix:
 Charge = -1 Multiplicity = 2

 SCF Done:  E(UB3LYP) =  -881.058073045     A.U. after   20 cycles
 SCF Done:  E(UB3LYP) =  -881.059083698     A.U. after   16 cycles
 SCF Done:  E(UB3LYP) =  -881.059304555     A.U. after   16 cycles
 SCF Done:  E(UB3LYP) =  -881.059317958     A.U. after   13 cycles
 SCF Done:  E(UB3LYP) =  -881.059325858     A.U. after   12 cycles
 SCF Done:  E(UB3LYP) =  -881.059331358     A.U. after   12 cycles
 SCF Done:  E(UB3LYP) =  -881.059332360     A.U. after   11 cycles
 SCF Done:  E(UB3LYP) =  -881.059332680     A.U. after   10 cycles
 Optimization completed.
    -- Stationary point found.
 Normal termination of Gaussian 16 at Sun Feb 11 16:15:07 2024.

 ----------------------------------------------------------------------
 #P Geom=AllCheck Guess=TCheck SCRF=Check GenChk UB3LYP/6-311++G(d,p) F
 req
 ----------------------------------------------------------------------

 Structure from the checkpoint file:  "328-rad.chk"
 -------
 Radical
 -------
 Charge = -1 Multiplicity = 2

                          Input orientation:
 ---------------------------------------------------------------------
 Center     Atomic      Atomic             Coordinates (Angstroms)
 Number     Number       Type             X           Y           Z
 ---------------------------------------------------------------------
      1          6           0       -1.265108    2.522253   -0.823831
      2          6           0       -2.314670    1.868061   -0.227789
      3          6           0       -2.132861    0.572840    0.328982
      4          6           0        0.025845    1.920607   -0.898326
      5          6           0        0.207860    0.610682   -0.335209
      6          6           0       -0.903382   -0.037247    0.275521
      7          6           0        1.124222    2.560704   -1.501726
      8          6           0        2.383022    1.969882   -1.574600
      9          6           0        2.556909    0.654572   -1.008046
     10          6           0        1.482274    0.012209   -0.408328
     11          6           0        3.491634    2.687679   -2.218007
     12          6           0        4.798825    2.004123   -2.282668
     13          6           0        4.910218    0.684835   -1.691527
     14          6           0        3.868120    0.040610   -1.087159
     15          8           0        3.328799    3.846697   -2.699512
     16          8           0        5.802499    2.543017   -2.833222
     17          1           0       -1.404196    3.511128   -1.248754
     18          1           0       -3.290833    2.337737   -0.178570
     19          1           0       -2.971451    0.069077    0.796475
     20          1           0       -0.762068   -1.026202    0.699814
     21          1           0        0.997547    3.548642   -1.929538
     22          1           0        1.623456   -0.975121    0.014181
     23          1           0        5.888564    0.226028   -1.759205
     24          8           0        3.944062   -1.199247   -0.520163
     25          6           0        5.212552   -1.876686   -0.508767
     26          6           0        5.041865   -3.159818    0.242644
     27          6           0        5.353254   -4.355682   -0.251338
     28          1           0        5.951357   -1.236790   -0.010718
     29          1           0        5.548252   -2.062119   -1.534091
     30          1           0        4.662502   -3.066327    1.257366
     31          1           0        5.731475   -4.473131   -1.262445
     32          1           0        5.248641   -5.257513    0.341290
 ---------------------------------------------------------------------

 SCF Done:  E(UB3LYP) =  -881.059332680     A.U. after    2 cycles

 Alpha  occ. eigenvalues --  -19.16043 -19.07285 -19.07029 -10.23845 -10.23322
 Alpha  occ. eigenvalues --  -10.21666 -10.21265 -10.18606 -10.18570 -10.18508
 Alpha  occ. eigenvalues --  -10.18484 -10.17837 -10.17789 -10.17723 -10.17695
 Alpha  occ. eigenvalues --  -10.17678 -10.17608 -10.17559 -10.17143 -10.15930
 Alpha  occ. eigenvalues --   -1.07406  -1.00406  -0.97550  -0.88061  -0.84274
 Alpha  occ. eigenvalues --   -0.80703  -0.78582  -0.77894  -0.73740  -0.73360
 Alpha  occ. eigenvalues --   -0.70459  -0.66694  -0.63805  -0.61117  -0.59869
 Alpha  occ. eigenvalues --   -0.57777  -0.56807  -0.53260  -0.52551  -0.51809
 Alpha  occ. eigenvalues --   -0.49701  -0.48724  -0.46414  -0.46042  -0.45187
 Alpha  occ. eigenvalues --   -0.44185  -0.43075  -0.42512  -0.42095  -0.41494
 Alpha  occ. eigenvalues --   -0.40956  -0.39928  -0.39571  -0.39154  -0.37379
 Alpha  occ. eigenvalues --   -0.36793  -0.36516  -0.35175  -0.34488  -0.34051
 Alpha  occ. eigenvalues --   -0.33152  -0.32001  -0.29334  -0.28139  -0.26880
 Alpha  occ. eigenvalues --   -0.25280  -0.23343  -0.22533  -0.22222  -0.14748
 Alpha virt. eigenvalues --   -0.06314  -0.01707  -0.01368  -0.00375  -0.00089
 Alpha virt. eigenvalues --    0.00237   0.00901   0.01657   0.01792   0.02351
 Alpha virt. eigenvalues --    0.03152   0.03837   0.03926   0.04064   0.04768

  Beta  occ. eigenvalues --  -19.15943 -19.06612 -19.06512 -10.23635 -10.23326
  Beta  occ. eigenvalues --  -10.21500 -10.21023 -10.18555 -10.18535 -10.18490
  Beta  occ. eigenvalues --  -10.18484 -10.17859 -10.17773 -10.17711 -10.17710
  Beta  occ. eigenvalues --  -10.17635 -10.17607 -10.17560 -10.17038 -10.16014
  Beta  occ. eigenvalues --   -1.07189  -0.99354  -0.96438  -0.87944  -0.84073
  Beta  occ. eigenvalues --   -0.80636  -0.78381  -0.77760  -0.73531  -0.73238
  Beta  occ. eigenvalues --   -0.70359  -0.65964  -0.63698  -0.60822  -0.59802
  Beta  occ. eigenvalues --   -0.57690  -0.56615  -0.53073  -0.52396  -0.51689
  Beta  occ. eigenvalues --   -0.49578  -0.48571  -0.46333  -0.45835  -0.45080
  Beta  occ. eigenvalues --   -0.44054  -0.42827  -0.42313  -0.41940  -0.40830
  Beta  occ. eigenvalues --   -0.40411  -0.39720  -0.39285  -0.38138  -0.37249
  Beta  occ. eigenvalues --   -0.36497  -0.35606  -0.35111  -0.33944  -0.33124
  Beta  occ. eigenvalues --   -0.33093  -0.30482  -0.28750  -0.28101  -0.26046
  Beta  occ. eigenvalues --   -0.24685  -0.22423  -0.21983  -0.21643
  Beta virt. eigenvalues --   -0.08214  -0.05758  -0.01475  -0.00576  -0.00366
  Beta virt. eigenvalues --    0.00232   0.00272   0.00922   0.01671   0.01800
  Beta virt. eigenvalues --    0.02397   0.03179   0.03888   0.04078   0.04731

 Mulliken charges and spin densities:
               1          2
     1  C   -0.155773   0.028788
     2  C   -0.305912  -0.006152
     3  C   -0.367154   0.041758
     4  C    0.127343  -0.005166
     5  C    0.027089   0.041522
     6  C   -0.165459  -0.019370
     7  C    0.012620   0.108870
     8  C    0.598929   0.000769
     9  C    0.149392   0.032216
    10  C   -0.102420  -0.007941
    11  C   -0.558360   0.153279
    12  C   -0.043976   0.154121
    13  C    0.187289  -0.086398
    14  C   -0.569743   0.099741
    15  O   -0.503217   0.254626
    16  O   -0.520054   0.187130
    17  H    0.162207  -0.001085
    18  H    0.184805   0.000055
    19  H    0.188798  -0.002976
    20  H    0.162759   0.001467
    21  H    0.138322  -0.008264
    22  H    0.127966   0.000639
    23  H    0.217851   0.002366
    24  O   -0.087107   0.025979
    25  C   -0.344282   0.000810
    26  C    0.067504   0.000391
    27  C   -0.471740  -0.001528
    28  H    0.169127   0.001981
    29  H    0.158827   0.002208
    30  H    0.199422   0.000044
    31  H    0.150157   0.000040
    32  H    0.164794   0.000078
 Sum of Mulliken charges =  -1.00000   1.00000

 Dipole moment (field-independent basis, Debye):
    X=            -19.8659    Y=            -16.8264    Z=             13.5189  Tot=             29.3350
 Quadrupole moment (field-independent basis, Debye-Ang):
   XX=           -208.4265   YY=           -166.1137   ZZ=           -158.5744
   XY=            -78.0879   XZ=             59.5321   YZ=             42.1534

  Exact polarizability: 535.725  -8.957 352.668-106.194 -72.729 230.478
 Approx polarizability: 571.238   3.521 394.939-116.021 -82.597 263.406

                      1                      2                      3
                      A                      A                      A
 Frequencies --     37.4049                55.9112                66.7717
 Red. masses --      4.7434                 3.4023                 7.6812
 Frc consts  --      0.0039                 0.0063                 0.0202
 IR Inten    --      0.0973                 2.1051                 0.7759

                      4                      5                      6
                      A                      A                      A
 Frequencies --     79.5194                98.7638               108.2473
 Red. masses --      4.3084                 3.0814                 3.6719
 Frc consts  --      0.0161                 0.0177                 0.0253
 IR Inten    --      4.0091                 1.8464                 1.6725

                      7                      8                      9
                      A                      A                      A
 Frequencies --    137.5845               184.5992               202.2156
 Red. masses --      3.8770                 5.7343                 6.9790
 Frc consts  --      0.0432                 0.1151                 0.1681
 IR Inten    --      0.4948                 4.7302                10.3718

                     10                     11                     12
                      A                      A                      A
 Frequencies --    246.5273               265.2865               267.8047
 Red. masses --      4.4409                 4.6335                 4.4152
 Frc consts  --      0.1590                 0.1921                 0.1866
 IR Inten    --      0.2978                 6.3361                 9.1110

                     13                     14                     15
                      A                      A                      A
 Frequencies --    289.1240               339.7501               369.0964
 Red. masses --      4.5258                 5.3299                 9.1858
 Frc consts  --      0.2229                 0.3625                 0.7373
 IR Inten    --      2.4281                 7.7868                 1.7353

                     16                     17                     18
                      A                      A                      A
 Frequencies --    396.5304               397.5117               453.5241
 Red. masses --      7.2332                 3.6495                 2.8702
 Frc consts  --      0.6701                 0.3398                 0.3478
 IR Inten    --      0.6796                 0.0019                 5.8340

                     19                     20                     21
                      A                      A                      A
 Frequencies --    459.9258               479.8968               506.0732
 Red. masses --      6.5208                 2.5806                 5.6937
 Frc consts  --      0.8127                 0.3502                 0.8592
 IR Inten    --      2.1885                33.9427                17.8048

                     22                     23                     24
                      A                      A                      A
 Frequencies --    538.2587               545.0463               592.3352
 Red. masses --      4.0556                 6.1530                 6.6852
 Frc consts  --      0.6923                 1.0770                 1.3820
 IR Inten    --      0.7159                13.8607                24.8715

                     25                     26                     27
                      A                      A                      A
 Frequencies --    601.0262               605.5761               636.1488
 Red. masses --      3.7005                 3.1942                 4.7670
 Frc consts  --      0.7876                 0.6902                 1.1366
 IR Inten    --      1.3381                30.3049                 3.5699

                     28                     29                     30
                      A                      A                      A
 Frequencies --    686.9580               714.6315               723.1345
 Red. masses --      2.6469                 6.0809                 6.4637
 Frc consts  --      0.7359                 1.8297                 1.9915
 IR Inten    --      7.5332                 0.1304                 0.2959

                     31                     32                     33
                      A                      A                      A
 Frequencies --    752.8829               760.8434               762.9726
 Red. masses --      2.8614                 1.7731                 3.7653
 Frc consts  --      0.9556                 0.6048                 1.2914
 IR Inten    --     14.6276                76.0974                 0.9536

                     34                     35                     36
                      A                      A                      A
 Frequencies --    781.1536               790.5022               838.3728
 Red. masses --      5.8631                 4.6333                 1.4761
 Frc consts  --      2.1079                 1.7059                 0.6113
 IR Inten    --     72.3098                17.7537                52.9340

                     37                     38                     39
                      A                      A                      A
 Frequencies --    858.3905               909.2727               916.3852
 Red. masses --      1.3526                 1.4785                 5.0137
 Frc consts  --      0.5872                 0.7202                 2.4806
 IR Inten    --      0.2891                 0.1610                 7.6545

                     40                     41                     42
                      A                      A                      A
 Frequencies --    917.4440               939.5518               967.3289
 Red. masses --      1.4546                 1.4295                 1.3306
 Frc consts  --      0.7214                 0.7435                 0.7336
 IR Inten    --     61.5118                 4.0188               102.0559

                     43                     44                     45
                      A                      A                      A
 Frequencies --    977.1175               981.7308               994.1321
 Red. masses --      1.3767                 3.8829                 1.2832
 Frc consts  --      0.7744                 2.2049                 0.7472
 IR Inten    --      8.8040                47.6892                 0.0295

                     46                     47                     48
                      A                      A                      A
 Frequencies --   1001.6226              1005.7641              1028.5658
 Red. masses --      2.7777                 2.3968                 2.2885
 Frc consts  --      1.6419                 1.4285                 1.4265
 IR Inten    --     26.6545                16.5076                20.2478

                     49                     50                     51
                      A                      A                      A
 Frequencies --   1031.0101              1095.9753              1152.5470
 Red. masses --      1.2570                 4.3405                 1.7958
 Frc consts  --      0.7872                 3.0718                 1.4055
 IR Inten    --     42.6918               230.1632               129.9918

                     52                     53                     54
                      A                      A                      A
 Frequencies --   1165.5871              1171.0810              1179.9845
 Red. masses --      1.4187                 1.7691                 1.5955
 Frc consts  --      1.1356                 1.4295                 1.3089
 IR Inten    --    103.2946                 5.4536                13.7264

                     55                     56                     57
                      A                      A                      A
 Frequencies --   1198.3747              1241.4873              1254.9743
 Red. masses --      2.5886                 1.9347                 1.9457
 Frc consts  --      2.1903                 1.7569                 1.8055
 IR Inten    --    420.0785               138.7780                22.5859

                     58                     59                     60
                      A                      A                      A
 Frequencies --   1261.9572              1267.8705              1282.8783
 Red. masses --      4.9572                 1.1424                 1.8876
 Frc consts  --      4.6513                 1.0820                 1.8304
 IR Inten    --      8.7968                 8.5133                16.9465

                     61                     62                     63
                      A                      A                      A
 Frequencies --   1313.0134              1341.1578              1369.9454
 Red. masses --      1.2604                 3.2002                 1.5799
 Frc consts  --      1.2803                 3.3915                 1.7470
 IR Inten    --      1.2572                 9.2790               302.8694

                     64                     65                     66
                      A                      A                      A
 Frequencies --   1385.6268              1401.3931              1409.6613
 Red. masses --      4.1318                 3.9623                 2.3254
 Frc consts  --      4.6739                 4.5848                 2.7225
 IR Inten    --     12.3911                 1.7531               135.0180

                     67                     68                     69
                      A                      A                      A
 Frequencies --   1448.7088              1453.2525              1460.5230
 Red. masses --      2.9305                 1.9482                 2.0825
 Frc consts  --      3.6237                 2.4242                 2.6173
 IR Inten    --    279.3265               346.0857               247.6299

                     70                     71                     72
                      A                      A                      A
 Frequencies --   1495.4422              1502.8665              1505.2091
 Red. masses --      1.9392                 1.4831                 3.8729
 Frc consts  --      2.5551                 1.9737                 5.1699
 IR Inten    --    278.2139                47.4877               659.8694

                     73                     74                     75
                      A                      A                      A
 Frequencies --   1538.4463              1578.5767              1594.6913
 Red. masses --      6.2454                 6.3192                 6.8441
 Frc consts  --      8.7092                 9.2778                10.2546
 IR Inten    --    352.9841               396.1006               353.0737

                     76                     77                     78
                      A                      A                      A
 Frequencies --   1619.2854              1646.6625              1702.6791
 Red. masses --      6.4913                 5.7714                 4.7092
 Frc consts  --     10.0283                 9.2203                 8.0439
 IR Inten    --     15.3380                17.6398                 5.9898

                     79                     80                     81
                      A                      A                      A
 Frequencies --   3003.0874              3053.7252              3126.6357
 Red. masses --      1.0582                 1.1040                 1.0590
 Frc consts  --      5.6229                 6.0659                 6.0997
 IR Inten    --     47.0998                37.3910                15.8532

                     82                     83                     84
                      A                      A                      A
 Frequencies --   3143.7213              3156.6230              3160.6365
 Red. masses --      1.0924                 1.0859                 1.0881
 Frc consts  --      6.3611                 6.3753                 6.4041
 IR Inten    --     11.3591                 6.8751                 0.3092

                     85                     86                     87
                      A                      A                      A
 Frequencies --   3173.2615              3177.9426              3185.6349
 Red. masses --      1.0935                 1.0893                 1.0970
 Frc consts  --      6.4873                 6.4818                 6.5593
 IR Inten    --     44.3548                 9.6707                53.0431

                     88                     89                     90
                      A                      A                      A
 Frequencies --   3188.8332              3190.3088              3213.3678
 Red. masses --      1.0900                 1.0895                 1.1156
 Frc consts  --      6.5305                 6.5333                 6.7872
 IR Inten    --     10.2759                24.9424                17.3279

 - Thermochemistry -
 -------------------
 Temperature   298.150 Kelvin.  Pressure   1.00000 Atm.
 Atom     1 has atomic number  6 and mass  12.00000

 Molecular mass:   264.07864 amu.
 Principal axes and moments of inertia in atomic units:
                           1         2         3
     Eigenvalues --  4175.678337435.93261**********
           X            0.89353   0.37037   0.25381
           Y           -0.44456   0.80903   0.38449
           Z           -0.06294  -0.45639   0.88755
 This molecule is an asymmetric top.
 Rotational symmetry number  1.
 Warning -- assumption of classical behavior for rotation
           may cause significant error
 Rotational temperatures (Kelvin)      0.02074     0.01165     0.00751
 Rotational constants (GHZ):           0.43220     0.24271     0.15639
 Zero-point vibrational energy     634701.9 (Joules/Mol)
                                  151.69738 (Kcal/Mol)
 Warning -- explicit consideration of  26 degrees of freedom as
           vibrations may cause significant error
 Vibrational temperatures:     53.82    80.44    96.07   114.41   142.10
          (Kelvin)            155.74   197.95   265.60   290.94   354.70
                              381.69   385.31   415.98   488.82   531.05
                              570.52   571.93   652.52   661.73   690.46
                              728.13   774.43   784.20   852.24   864.74
                              871.29   915.28   988.38  1028.20  1040.43
                             1083.23  1094.68  1097.75  1123.91  1137.36
                             1206.23  1235.03  1308.24  1318.47  1320.00
                             1351.81  1391.77  1405.85  1412.49  1430.33
                             1441.11  1447.07  1479.88  1483.39  1576.86
                             1658.26  1677.02  1684.92  1697.73  1724.19
                             1786.22  1805.63  1815.67  1824.18  1845.78
                             1889.13  1929.63  1971.05  1993.61  2016.29
                             2028.19  2084.37  2090.91  2101.37  2151.61
                             2162.29  2165.66  2213.48  2271.22  2294.41
                             2329.79  2369.18  2449.78  4320.77  4393.63
                             4498.53  4523.11  4541.68  4547.45  4565.62
                             4572.35  4583.42  4588.02  4590.14  4623.32

 Zero-point correction=                           0.241745 (Hartree/Particle)
 Thermal correction to Energy=                    0.257960
 Thermal correction to Enthalpy=                  0.258904
 Thermal correction to Gibbs Free Energy=         0.196550
 Sum of electronic and zero-point Energies=           -880.817588
 Sum of electronic and thermal Energies=              -880.801373
 Sum of electronic and thermal Enthalpies=            -880.800428
 Sum of electronic and thermal Free Energies=         -880.862783

                     E (Thermal)             CV                S
                      KCal/Mol        Cal/Mol-Kelvin    Cal/Mol-Kelvin
 Total                  161.872             63.736            131.236
 Electronic               0.000              0.000              1.377
 Translational            0.889              2.981             42.613
 Rotational               0.889              2.981             34.237
 Vibrational            160.095             57.774             53.009
 Vibration     1          0.594              1.982              5.392
 Vibration     2          0.596              1.975              4.597
 Vibration     3          0.598              1.970              4.246
 Vibration     4          0.600              1.963              3.903
 Vibration     5          0.604              1.950              3.479
 Vibration     6          0.606              1.943              3.300
 Vibration     7          0.614              1.916              2.837
 Vibration     8          0.631              1.861              2.281
 Vibration     9          0.639              1.837              2.113
 Vibration    10          0.661              1.769              1.755
 Vibration    11          0.671              1.737              1.627
 Vibration    12          0.673              1.732              1.610
 Vibration    13          0.686              1.694              1.479
 Vibration    14          0.720              1.596              1.213
 Vibration    15          0.741              1.536              1.084
 Vibration    16          0.763              1.478              0.975
 Vibration    17          0.764              1.475              0.972
 Vibration    18          0.812              1.353              0.785
 Vibration    19          0.818              1.339              0.766
 Vibration    20          0.836              1.295              0.710
 Vibration    21          0.861              1.237              0.643
 Vibration    22          0.893              1.165              0.569
 Vibration    23          0.900              1.151              0.555
 Vibration    24          0.950              1.048              0.463
 Vibration    25          0.959              1.030              0.448
 Vibration    26          0.964              1.020              0.440

 Optimization completed.
    -- Stationary point found.
 Normal termination of Gaussian 16 at Sun Feb 11 17:49:05 2024.
