 Q-Chem 5.4, Q-Chem, Inc., Pleasanton, CA (2021)
 Q-Chem 5.4.0 for Intel X86 EM64T Linux

User input:
--------------------------------------------------------------
$molecule
0 1
C                 -1.2221700000      2.8827750000     -0.1184570000
C                 -2.5313270000      2.4155920000     -0.1621690000
C                 -2.7879330000      1.0437260000     -0.1038100000
C                 -0.1610300000      1.9785600000     -0.0168520000
C                 -0.4195520000      0.5993970000      0.0416420000
C                 -1.7357580000      0.1383870000     -0.0021470000
C                  1.2329100000      2.5004800000      0.0300600000
C                  2.3392720000      1.4765420000      0.1326850000
C                  2.0723390000      0.1500430000      0.1901430000
C                  0.7066980000     -0.3797270000      0.1502480000
O                  1.4898670000      3.6858750000     -0.0086130000
O                  0.4988730000     -1.5844110000      0.2031560000
H                 -1.0008380000      3.9420900000     -0.1618360000
H                 -1.9114140000     -0.9293300000      0.0446780000
O                  3.5457010000      2.0456320000      0.1590830000
C                  4.7073140000      1.2012140000      0.2875180000
C                  5.9141750000      2.0825360000      0.3310430000
C                  6.9688480000      1.9264090000     -0.4627000000
H                 -3.3530300000      3.1181370000     -0.2414440000
H                 -3.8094760000      0.6823090000     -0.1378610000
H                  2.8506440000     -0.5978360000      0.2655290000
H                  4.7527960000      0.5055610000     -0.5567230000
H                  4.6110500000      0.6218610000      1.2145960000
H                  5.8959930000      2.8680260000      1.0813350000
H                  7.0010640000      1.1543620000     -1.2254050000
H                  7.8410920000      2.5634990000     -0.3757900000
$end
$rem
MAX_SCF_CYCLES=200
BASIS  =  6-311++G(d,p)
GUI  =  2
JOB_TYPE  =  SP
METHOD  =  B3LYP
SOLVENT_METHOD = COSMO
$end
$solvent
dielectric 37.219
opticaldielectric 1.43
$end

--------------------------------------------------------------

             Standard Nuclear Orientation (Angstroms)
    I     Atom           X                Y                Z
 ----------------------------------------------------------------
    1      C       2.5042824947    -1.7054388407    -0.0484947905
    2      C       3.8466848398    -1.3455372764    -0.0983902114
    3      C       4.2106302914     0.0030759040    -0.1058018133
    4      C       1.5172311641    -0.7165414234    -0.0065661551
    5      C       1.8836634125     0.6391927366    -0.0141850802
    6      C       3.2326039209     0.9923901412    -0.0637535100
    7      C       0.0859497423    -1.1241052486     0.0481619541
    8      C      -0.9367032389    -0.0124041184     0.0844837182
    9      C      -0.5660498385     1.2901839217     0.0785930690
   10      C       0.8375802690     1.7081486303     0.0301036004
   11      O      -0.2637522611    -2.2860346134     0.0658386819
   12      O       1.1397043686     2.8938759345     0.0250227174
   13      H       2.2001245071    -2.7448884005    -0.0413960316
   14      H       3.4918654782     2.0439740481    -0.0684369710
   15      O      -2.1846199780    -0.4827304001     0.1235761169
   16      C      -3.2768082623     0.4559120674     0.1939830743
   17      C      -4.5500509876    -0.3243557768     0.2658956620
   18      C      -5.5817061501    -0.1266284541    -0.5485552321
   19      H       4.6108352651    -2.1136769825    -0.1313347436
   20      H       5.2578664173     0.2807973363    -0.1445203106
   21      H      -1.2833130107     2.0998444606     0.1059440133
   22      H      -3.2592773790     1.1088121330    -0.6847425639
   23      H      -3.1434609111     1.0726373203     1.0919021803
   24      H      -4.6010500718    -1.0693625738     1.0549629445
   25      H      -5.5456474714     0.6054625915    -1.3495270359
   26      H      -6.5024458026    -0.6878408769    -0.4411973239
 ----------------------------------------------------------------

    9    -727.2345271074      6.20e-06  Convergence criterion met
 Total energy in the final basis set =     -727.2345271074
    5    -727.2540206245      3.54e-06  Convergence criterion met
 Total energy in the final basis set =     -727.2540206245

                    Orbital Energies (a.u.)
 --------------------------------------------------------------

 Alpha MOs
 -- Occupied --
-19.1896 -19.1445 -19.1301 -10.2939 -10.2827 -10.2770 -10.2428 -10.2096
-10.2080 -10.1983 -10.1972 -10.1970 -10.1962 -10.1958 -10.1868 -10.1766
 -1.1118  -1.0747  -1.0636  -0.8909  -0.8400  -0.8077  -0.7789  -0.7713
 -0.7296  -0.6855  -0.6520  -0.6305  -0.5957  -0.5791  -0.5562  -0.5488
 -0.5250  -0.5068  -0.4980  -0.4744  -0.4709  -0.4641  -0.4540  -0.4507
 -0.4465  -0.4364  -0.4281  -0.4215  -0.3913  -0.3846  -0.3810  -0.3690
 -0.3651  -0.3555  -0.2949  -0.2900  -0.2852  -0.2800  -0.2791  -0.2672

          Ground-State Mulliken Net Atomic Charges

     Atom                 Charge (a.u.)
  ----------------------------------------
      1 C                     0.290013
      2 C                    -0.425428
      3 C                    -0.347966
      4 C                     0.022359
      5 C                     0.479614
      6 C                     0.281730
      7 C                    -0.414809
      8 C                    -0.622690
      9 C                     0.360800
     10 C                    -0.161540
     11 O                    -0.298197
     12 O                    -0.328290
     13 H                     0.198518
     14 H                     0.194540
     15 O                    -0.074899
     16 C                    -0.355771
     17 C                    -0.006660
     18 C                    -0.473180
     19 H                     0.227056
     20 H                     0.228855
     21 H                     0.270690
     22 H                     0.183815
     23 H                     0.204262
     24 H                     0.222845
     25 H                     0.164707
     26 H                     0.179626
  ----------------------------------------
  Sum of atomic charges =     0.000000

                    Cartesian Multipole Moments
 -----------------------------------------------------------------
    Charge (ESU x 10^10)
                 0.0000
    Dipole Moment (Debye)
         X      -0.1397      Y       0.0099      Z       0.0191
       Tot       0.1413
    Quadrupole Moments (Debye-Ang)
        XX     -60.3402     XY     -13.6829     YY    -110.0454
        XZ      -0.3700     YZ      -0.9956     ZZ     -92.9329

 Total job time:  44.12s(wall), 328.56s(cpu)
        *  Thank you very much for using Q-Chem.  Have a nice day.  *
