 Q-Chem 5.4, Q-Chem, Inc., Pleasanton, CA (2021)
 Q-Chem 5.4.0 for Intel X86 EM64T Linux

User input:
--------------------------------------------------------------
$molecule
-2 1
O                  2.8016790000     -2.8120950000     -1.3374630000
C                  2.2305430000     -1.7929550000     -0.8004790000
C                  0.8204110000     -1.6144500000     -0.7406710000
C                  0.1572640000     -0.5124690000     -0.1705910000
C                 -1.3645180000     -0.4936300000     -0.1870460000
C                 -1.9479890000      0.7241570000     -0.9381300000
C                 -3.4847390000      0.7169840000     -0.9521810000
C                 -4.0623560000      0.6472900000      0.4674750000
C                 -3.5065100000     -0.5653640000      1.2278520000
C                 -1.9695430000     -0.5772310000      1.2361650000
C                  0.8765190000      0.5692590000      0.4350530000
O                  0.3083720000      1.5921590000      0.9799810000
C                  2.3308950000      0.4386460000      0.3936520000
C                  3.1343370000      1.4561420000      0.9599810000
C                  4.5159690000      1.3887640000      0.9547920000
C                  5.1629380000      0.2717030000      0.3687230000
C                  4.4018650000     -0.7400400000     -0.1901730000
C                  2.9901440000     -0.6975720000     -0.1985850000
H                  0.2228320000     -2.4069520000     -1.1920380000
H                 -1.6926800000     -1.3946810000     -0.7296470000
H                 -1.5703710000      1.6258510000     -0.4452180000
H                 -1.5597400000      0.7306520000     -1.9642320000
H                 -3.8672120000      1.6066930000     -1.4708880000
H                 -3.8470030000     -0.1521830000     -1.5239610000
H                 -3.7784000000      1.5609520000      1.0072430000
H                 -5.1607930000      0.6226800000      0.4463300000
H                 -3.8788880000     -1.4829260000      0.7475800000
H                 -3.9015290000     -0.5776340000      2.2548520000
H                 -1.6050060000     -1.4907400000      1.7211120000
H                 -1.5837740000      0.2713430000      1.8099940000
H                  2.6091810000      2.2974630000      1.4017510000
H                  5.1051970000      2.1898810000      1.3982670000
H                  6.2500140000      0.2112550000      0.3607450000
H                  4.8628890000     -1.6109530000     -0.6468400000
$end
$rem
MAX_SCF_CYCLES=200
BASIS  =  6-311++G(d,p)
GUI  =  2
JOB_TYPE  =  SP
METHOD  =  B3LYP
SOLVENT_METHOD = COSMO
$end
$solvent
dielectric 37.219
opticaldielectric 1.43
$end

--------------------------------------------------------------

             Standard Nuclear Orientation (Angstroms)
    I     Atom           X                Y                Z
 ----------------------------------------------------------------
    1      O      -2.3868077246    -2.9466071991     0.0285336991
    2      C      -1.7563477220    -1.8260542821     0.0198255595
    3      C      -0.3381838096    -1.7141095801     0.0337104622
    4      C       0.3888944523    -0.5097532676     0.0331204198
    5      C       1.9092382882    -0.5802147200     0.0391149953
    6      C       2.5439765611     0.1172076629     1.2631575210
    7      C       4.0779605835     0.0240832820     1.2547722021
    8      C       4.6713035880     0.5915145688    -0.0413325870
    9      C       4.0645472087    -0.0984972194    -1.2715350541
   10      C       2.5292838561    -0.0248594179    -1.2669087068
   11      C      -0.2649921138     0.7654083583     0.0073704267
   12      O       0.3627896502     1.8931304215    -0.0065921622
   13      C      -1.7246074899     0.7066634624    -0.0000685759
   14      C      -2.4664287291     1.9111777235    -0.0198760827
   15      C      -3.8496314819     1.9213554805    -0.0308424921
   16      C      -4.5615588852     0.6953973906    -0.0232813020
   17      C      -3.8616441283    -0.4983663181    -0.0069017718
   18      C      -2.4498721090    -0.5384543173     0.0041974301
   19      H       0.2112949630    -2.6555702812     0.0585514897
   20      H       2.1827966459    -1.6459386629     0.0974017921
   21      H       2.2203610078     1.1630099604     1.2497339755
   22      H       2.1420580037    -0.3332422890     2.1792476364
   23      H       4.4983779319     0.5498493643     2.1229564752
   24      H       4.3868013072    -1.0287818834     1.3533176178
   25      H       4.4424977421     1.6647638449    -0.0917570884
   26      H       5.7666019556     0.5025711225    -0.0465436609
   27      H       4.3822918462    -1.1521855684    -1.2766145668
   28      H       4.4729412154     0.3469104050    -2.1911795216
   29      H       2.1250713169    -0.5882804788    -2.1164547277
   30      H       2.1959395507     1.0119782603    -1.3765648927
   31      H      -1.8923978617     2.8327077063    -0.0263287208
   32      H      -4.3904391993     2.8663320250    -0.0447888999
   33      H      -5.6503091736     0.6950235314    -0.0319131473
   34      H      -4.3733710724    -1.4563256732    -0.0017307210
 ----------------------------------------------------------------

   20    -769.9804193753      3.33e-06  Convergence criterion met
 Total energy in the final basis set =     -769.9804193753
    6    -770.2536332710      2.72e-06  Convergence criterion met
 Total energy in the final basis set =     -770.2536332710

                    Orbital Energies (a.u.)
 --------------------------------------------------------------

 Alpha MOs
 -- Occupied --
-19.0213 -19.0117 -10.1700 -10.1656 -10.1487 -10.1481 -10.1479 -10.1469
-10.1465 -10.1453 -10.1441 -10.1440 -10.1368 -10.1358 -10.1353 -10.1352
-10.1231 -10.1160  -0.9387  -0.9298  -0.8244  -0.8116  -0.7664  -0.7294
 -0.7214  -0.7187  -0.6891  -0.6347  -0.5985  -0.5883  -0.5803  -0.5569
 -0.5347  -0.5169  -0.4725  -0.4684  -0.4474  -0.4300  -0.4236  -0.4181
 -0.4155  -0.3999  -0.3880  -0.3773  -0.3718  -0.3712  -0.3588  -0.3561
 -0.3535  -0.3419  -0.3278  -0.3207  -0.3188  -0.3145  -0.3089  -0.3037
 -0.2961  -0.2804  -0.2791  -0.2299  -0.2240  -0.2091  -0.2013  -0.1888
 -0.1104

          Ground-State Mulliken Net Atomic Charges

     Atom                 Charge (a.u.)
  ----------------------------------------
      1 O                    -0.756208
      2 C                    -0.535848
      3 C                    -0.309905
      4 C                     0.510953
      5 C                     0.783943
      6 C                    -0.535452
      7 C                    -0.371123
      8 C                    -0.413019
      9 C                    -0.371339
     10 C                    -0.533503
     11 C                    -0.776556
     12 O                    -0.685587
     13 C                    -0.144312
     14 C                     0.012067
     15 C                    -0.541575
     16 C                    -0.419718
     17 C                    -0.042175
     18 C                     0.650679
     19 H                     0.133604
     20 H                     0.161994
     21 H                     0.180850
     22 H                     0.151064
     23 H                     0.166154
     24 H                     0.120428
     25 H                     0.111332
     26 H                     0.174539
     27 H                     0.122529
     28 H                     0.165544
     29 H                     0.154156
     30 H                     0.176437
     31 H                     0.154293
     32 H                     0.177155
     33 H                     0.178634
     34 H                     0.149963
  ----------------------------------------
  Sum of atomic charges =    -2.000000

                    Cartesian Multipole Moments
 -----------------------------------------------------------------
    Charge (ESU x 10^10)
                -9.6064
    Dipole Moment (Debye)
         X      11.5918      Y       4.5477      Z      -0.1100
       Tot      12.4525
    Quadrupole Moments (Debye-Ang)
        XX    -155.8398     XY     -27.2646     YY    -166.4095
        XZ       0.2174     YZ       0.3277     ZZ    -121.3302

 Total job time:  147.66s(wall), 1149.27s(cpu)
        *  Thank you very much for using Q-Chem.  Have a nice day.  *
