 Q-Chem 5.4, Q-Chem, Inc., Pleasanton, CA (2021)
 Q-Chem 5.4.0 for Intel X86 EM64T Linux

User input:
--------------------------------------------------------------
$molecule
-1 2
O                 -0.0584500000     -1.1909850000      1.2563240000
C                 -0.4632240000     -0.3854230000      0.3703310000
C                 -1.9535960000     -0.2429600000      0.2061840000
C                 -2.7545620000     -1.0279340000      1.0629020000
C                 -4.1424680000     -0.9851150000      1.0084690000
C                 -4.7880980000     -0.1517730000      0.0909750000
C                 -4.0136480000      0.6320860000     -0.7646330000
C                 -2.6202950000      0.5927680000     -0.7140900000
C                  0.4634470000      0.3851760000     -0.4702420000
O                  0.0587240000      1.1909250000     -1.3561760000
C                  1.9536220000      0.2428820000     -0.3064190000
C                  2.7543060000      1.0282360000     -1.1630160000
C                  4.1421840000      0.9855480000     -1.1089110000
C                  4.7880180000      0.1518880000     -0.1918240000
C                  4.0138850000     -0.6324490000      0.6637500000
C                  2.6205150000     -0.5931600000      0.6134470000
H                 -2.2426080000     -1.6696370000      1.7694550000
H                 -4.7269180000     -1.6039500000      1.6840610000
H                 -5.8725320000     -0.1154630000      0.0453470000
H                 -4.4982000000      1.2861370000     -1.4845820000
H                 -2.0254490000      1.2012160000     -1.3783640000
H                  2.2420500000      1.6701280000     -1.8692440000
H                  4.7264330000      1.6046950000     -1.7843990000
H                  5.8724410000      0.1156940000     -0.1464740000
H                  4.4986000000     -1.2867130000      1.3833290000
H                  2.0258230000     -1.2018180000      1.2775870000
$end

$rem
BASIS  =  6-311++G(d,p)
GUI  =  2
JOB_TYPE  =  SP
METHOD  =  B3LYP
SCF_CONVERGENCE  = 8
SOLVENT_METHOD = sm12
$end

$smx
solvent dimethylformamide
charges CM5
$end

--------------------------------------------------------------

             Standard Nuclear Orientation (Angstroms)
    I     Atom           X                Y                Z
 ----------------------------------------------------------------
    1      O      -0.0584500000    -1.1909850000     1.2563240000
    2      C      -0.4632240000    -0.3854230000     0.3703310000
    3      C      -1.9535960000    -0.2429600000     0.2061840000
    4      C      -2.7545620000    -1.0279340000     1.0629020000
    5      C      -4.1424680000    -0.9851150000     1.0084690000
    6      C      -4.7880980000    -0.1517730000     0.0909750000
    7      C      -4.0136480000     0.6320860000    -0.7646330000
    8      C      -2.6202950000     0.5927680000    -0.7140900000
    9      C       0.4634470000     0.3851760000    -0.4702420000
   10      O       0.0587240000     1.1909250000    -1.3561760000
   11      C       1.9536220000     0.2428820000    -0.3064190000
   12      C       2.7543060000     1.0282360000    -1.1630160000
   13      C       4.1421840000     0.9855480000    -1.1089110000
   14      C       4.7880180000     0.1518880000    -0.1918240000
   15      C       4.0138850000    -0.6324490000     0.6637500000
   16      C       2.6205150000    -0.5931600000     0.6134470000
   17      H      -2.2426080000    -1.6696370000     1.7694550000
   18      H      -4.7269180000    -1.6039500000     1.6840610000
   19      H      -5.8725320000    -0.1154630000     0.0453470000
   20      H      -4.4982000000     1.2861370000    -1.4845820000
   21      H      -2.0254490000     1.2012160000    -1.3783640000
   22      H       2.2420500000     1.6701280000    -1.8692440000
   23      H       4.7264330000     1.6046950000    -1.7843990000
   24      H       5.8724410000     0.1156940000    -0.1464740000
   25      H       4.4986000000    -1.2867130000     1.3833290000
   26      H       2.0258230000    -1.2018180000     1.2775870000
 ----------------------------------------------------------------

   17    -690.1878835916      4.92e-09  Convergence criterion met
 Total energy in the final basis set =     -690.2758310601

                    Orbital Energies (a.u.)
 --------------------------------------------------------------

 Alpha MOs
 -- Occupied --
-19.0727 -19.0726 -10.2187 -10.2183 -10.1812 -10.1812 -10.1804 -10.1804
-10.1802 -10.1802 -10.1790 -10.1790 -10.1728 -10.1728 -10.1706 -10.1706
 -1.0056  -0.9890  -0.8585  -0.8565  -0.7586  -0.7571  -0.7494  -0.7483
 -0.6720  -0.6253  -0.6115  -0.6038  -0.5853  -0.5462  -0.5188  -0.4864
 -0.4771  -0.4556  -0.4473  -0.4466  -0.4316  -0.4252  -0.4168  -0.4158
 -0.4152  -0.3941  -0.3799  -0.3637  -0.3615  -0.3501  -0.3433  -0.3407
 -0.3400  -0.2648  -0.2634  -0.2619  -0.2599  -0.2572  -0.2168  -0.1476

 Beta MOs
 -- Occupied --
-19.0655 -19.0655 -10.2164 -10.2161 -10.1808 -10.1808 -10.1807 -10.1807
-10.1802 -10.1802 -10.1793 -10.1793 -10.1722 -10.1721 -10.1701 -10.1701
 -0.9930  -0.9759  -0.8578  -0.8556  -0.7575  -0.7543  -0.7488  -0.7476
 -0.6608  -0.6228  -0.6110  -0.6033  -0.5825  -0.5448  -0.5181  -0.4839
 -0.4756  -0.4543  -0.4466  -0.4457  -0.4284  -0.4248  -0.4142  -0.4137
 -0.3971  -0.3888  -0.3765  -0.3627  -0.3502  -0.3474  -0.3429  -0.3400
 -0.3091  -0.2610  -0.2601  -0.2569  -0.2522  -0.2472  -0.2102

          Ground-State Mulliken Net Atomic Charges

     Atom                 Charge (a.u.)    Spin (a.u.)
  --------------------------------------------------------
      1 O                    -0.297920       0.272611
      2 C                    -1.979901       0.167627
      3 C                     0.082230      -0.065885
      4 C                     0.373376       0.083460
      5 C                     0.554731      -0.022843
      6 C                     1.229466       0.059068
      7 C                     0.166232      -0.029038
      8 C                    -1.930008       0.048533
      9 C                    -1.979125       0.167677
     10 O                    -0.297979       0.272691
     11 C                     0.080957      -0.065921
     12 C                     0.373492       0.083522
     13 C                     0.554454      -0.022863
     14 C                     1.228871       0.059119
     15 C                     0.166685      -0.029056
     16 C                    -1.930114       0.048574
     17 H                     0.172210      -0.006265
     18 H                     0.313623       0.001380
     19 H                     0.384716      -0.003928
     20 H                     0.301622       0.001133
     21 H                     0.130138      -0.005954
     22 H                     0.172177      -0.006271
     23 H                     0.313620       0.001382
     24 H                     0.384662      -0.003931
     25 H                     0.301659       0.001134
     26 H                     0.130128      -0.005956
  --------------------------------------------------------
  Sum of atomic charges =    -1.000000

                    Cartesian Multipole Moments
 -----------------------------------------------------------------
    Charge (ESU x 10^10)
                -4.8032
    Dipole Moment (Debye)
         X      -0.0016      Y      -0.0002      Z       0.2404
       Tot       0.2404
    Quadrupole Moments (Debye-Ang)
        XX    -107.9433     XY      -0.9236     YY    -104.7849
        XZ       0.9876     YZ       1.7690     ZZ    -105.1251

 Total job time:  561.23s(wall), 4064.10s(cpu)
        *  Thank you very much for using Q-Chem.  Have a nice day.  *
