 Q-Chem 5.4, Q-Chem, Inc., Pleasanton, CA (2021)
 Q-Chem 5.4.0 for Intel X86 EM64T Linux

User input:
--------------------------------------------------------------
$molecule
0 1
C                 -3.5503130000      0.2039520000      0.8569230000
C                 -3.5797690000     -0.1789870000     -0.5174020000
C                 -2.4207210000     -0.3710750000     -1.2161620000
C                 -1.1577010000     -0.1899010000     -0.5757560000
N                 -0.0291900000     -0.3809860000     -1.2705500000
C                  1.1278050000     -0.1978870000     -0.6223740000
C                  2.3624780000     -0.3878490000     -1.3139960000
C                  3.5503120000     -0.2039970000     -0.6633120000
C                  3.5796990000      0.1790030000      0.7112270000
C                  2.4208300000      0.3710940000      1.4099970000
C                  1.1575820000      0.1899250000      0.7696090000
N                  0.0292940000      0.3809980000      1.4643610000
C                 -1.1279210000      0.1978830000      0.8161280000
C                 -2.3624120000      0.3878370000      1.5077200000
H                 -4.4859380000      0.3490550000      1.3850630000
H                 -4.5370670000     -0.3175230000     -1.0070380000
H                 -2.4193500000     -0.6618830000     -2.2598840000
H                  2.3161820000     -0.6784820000     -2.3567240000
H                  4.4860150000     -0.3490510000     -1.1912760000
H                  4.5370800000      0.3175010000      1.2007250000
H                  2.4193750000      0.6619030000      2.4537210000
H                 -2.3162730000      0.6784710000      2.5504530000
$end
$rem
MAX_SCF_CYCLES=200
BASIS  =  6-311++G(d,p)
GUI  =  2
JOB_TYPE  =  SP
METHOD  =  B3LYP
SOLVENT_METHOD = PCM
$end
$pcm
theory = CPCM
$end
$solvent
dielectric 37.219
opticaldielectric 1.43
$end

--------------------------------------------------------------

             Standard Nuclear Orientation (Angstroms)
    I     Atom           X                Y                Z
 ----------------------------------------------------------------
    1      C      -3.5503130000     0.2039520000     0.8569230000
    2      C      -3.5797690000    -0.1789870000    -0.5174020000
    3      C      -2.4207210000    -0.3710750000    -1.2161620000
    4      C      -1.1577010000    -0.1899010000    -0.5757560000
    5      N      -0.0291900000    -0.3809860000    -1.2705500000
    6      C       1.1278050000    -0.1978870000    -0.6223740000
    7      C       2.3624780000    -0.3878490000    -1.3139960000
    8      C       3.5503120000    -0.2039970000    -0.6633120000
    9      C       3.5796990000     0.1790030000     0.7112270000
   10      C       2.4208300000     0.3710940000     1.4099970000
   11      C       1.1575820000     0.1899250000     0.7696090000
   12      N       0.0292940000     0.3809980000     1.4643610000
   13      C      -1.1279210000     0.1978830000     0.8161280000
   14      C      -2.3624120000     0.3878370000     1.5077200000
   15      H      -4.4859380000     0.3490550000     1.3850630000
   16      H      -4.5370670000    -0.3175230000    -1.0070380000
   17      H      -2.4193500000    -0.6618830000    -2.2598840000
   18      H       2.3161820000    -0.6784820000    -2.3567240000
   19      H       4.4860150000    -0.3490510000    -1.1912760000
   20      H       4.5370800000     0.3175010000     1.2007250000
   21      H       2.4193750000     0.6619030000     2.4537210000
   22      H      -2.3162730000     0.6784710000     2.5504530000
 ----------------------------------------------------------------

    8    -571.7559062841      4.53e-06  Convergence criterion met
 Total energy in the final basis set =     -571.7559062841

                    Orbital Energies (a.u.)
 --------------------------------------------------------------

 Alpha MOs
 -- Occupied --
-14.3383 -14.3382 -10.2321 -10.2321 -10.2318 -10.2317 -10.1929 -10.1929
-10.1924 -10.1924 -10.1889 -10.1889 -10.1889 -10.1889  -0.9978  -0.9298
 -0.8769  -0.8466  -0.7792  -0.7682  -0.7494  -0.6922  -0.6587  -0.6254
 -0.6089  -0.5718  -0.5674  -0.5115  -0.5007  -0.4855  -0.4770  -0.4554
 -0.4491  -0.4441  -0.4425  -0.3995  -0.3858  -0.3847  -0.3692  -0.3670
 -0.3667  -0.3368  -0.3285  -0.2800  -0.2669  -0.2657  -0.2387

          Ground-State Mulliken Net Atomic Charges

     Atom                 Charge (a.u.)
  ----------------------------------------
      1 C                    -0.312551
      2 C                    -0.312196
      3 C                    -0.182536
      4 C                     0.057358
      5 N                    -0.009831
      6 C                     0.057337
      7 C                    -0.183165
      8 C                    -0.312377
      9 C                    -0.312029
     10 C                    -0.182500
     11 C                     0.057231
     12 N                    -0.009847
     13 C                     0.057675
     14 C                    -0.182930
     15 H                     0.221740
     16 H                     0.221751
     17 H                     0.220829
     18 H                     0.220846
     19 H                     0.221763
     20 H                     0.221761
     21 H                     0.220813
     22 H                     0.220859
  ----------------------------------------
  Sum of atomic charges =     0.000000

                    Cartesian Multipole Moments
 -----------------------------------------------------------------
    Charge (ESU x 10^10)
                -0.0000
    Dipole Moment (Debye)
         X       0.0010      Y      -0.0000      Z      -0.0002
       Tot       0.0010
    Quadrupole Moments (Debye-Ang)
        XX     -53.7394     XY      -0.0815     YY     -85.0477
        XZ      -0.5449     YZ       1.3065     ZZ     -80.6750

 Total job time:  28.54s(wall), 186.24s(cpu)
        *  Thank you very much for using Q-Chem.  Have a nice day.  *
