 Q-Chem 5.4, Q-Chem, Inc., Pleasanton, CA (2021)
 Q-Chem 5.4.0 for Intel X86 EM64T Linux

User input:
--------------------------------------------------------------
$molecule
-1 2
C                 -4.9829770000     -1.2267170000     -0.6061740000
C                 -3.5810530000     -1.6767210000     -0.2962520000
O                 -3.2284020000     -2.2512910000      0.6989310000
O                 -2.7562510000     -1.3850800000     -1.3443760000
C                 -1.3723720000     -1.4006320000     -1.1465750000
C                 -0.6923110000     -2.4319520000     -1.7487960000
C                  0.7082260000     -2.4633390000     -1.6978040000
C                  1.3881960000     -1.4624170000     -1.0462250000
O                  2.7820950000     -1.5093860000     -1.1425730000
C                  3.5142300000     -1.8351130000     -0.0372120000
C                  4.9538500000     -1.4492890000     -0.2434700000
O                  3.0642420000     -2.3902050000      0.9293610000
C                  0.7297730000     -0.3746380000     -0.4117750000
C                  1.4908640000      0.6962130000      0.2412740000
O                  2.7426550000      0.6822360000      0.3507190000
C                  0.7210910000      1.8220430000      0.7724220000
C                  1.4104360000      2.9037710000      1.3637250000
C                  0.7271360000      3.9848890000      1.8821320000
C                 -0.6830240000      4.0161240000      1.8314850000
C                 -1.3745090000      2.9654650000      1.2636460000
C                 -0.6930180000      1.8534140000      0.7215330000
C                 -1.4716910000      0.7620650000      0.1343530000
O                 -2.7274810000      0.8038210000      0.1532320000
C                 -0.7137890000     -0.3424550000     -0.4640560000
H                 -5.0009520000     -0.1415670000     -0.4846310000
H                 -5.6817800000     -1.6936190000      0.0866120000
H                 -5.2480690000     -1.4621450000     -1.6389920000
H                 -1.2537180000     -3.2035910000     -2.2611970000
H                  1.2702960000     -3.2602270000     -2.1691950000
H                  5.0115410000     -0.3656360000     -0.1209330000
H                  5.2830800000     -1.6997470000     -1.2540580000
H                  5.5783440000     -1.9447320000      0.4987040000
H                  2.4918810000      2.8484700000      1.3949390000
H                  1.2722620000      4.8093200000      2.3318520000
H                 -1.2220100000      4.8645510000      2.2422890000
H                 -2.4567910000      2.9581130000      1.2170870000
$end
$rem
MAX_SCF_CYCLES=200
BASIS  =  6-311++G(d,p)
GUI  =  2
JOB_TYPE  =  SP
METHOD  =  B3LYP
SOLVENT_METHOD = PCM
$end
$pcm
theory = CPCM
$end
$solvent
dielectric 37.219
opticaldielectric 1.43
$end

--------------------------------------------------------------

             Standard Nuclear Orientation (Angstroms)
    I     Atom           X                Y                Z
 ----------------------------------------------------------------
    1      C      -4.9829770000    -1.2267170000    -0.6061740000
    2      C      -3.5810530000    -1.6767210000    -0.2962520000
    3      O      -3.2284020000    -2.2512910000     0.6989310000
    4      O      -2.7562510000    -1.3850800000    -1.3443760000
    5      C      -1.3723720000    -1.4006320000    -1.1465750000
    6      C      -0.6923110000    -2.4319520000    -1.7487960000
    7      C       0.7082260000    -2.4633390000    -1.6978040000
    8      C       1.3881960000    -1.4624170000    -1.0462250000
    9      O       2.7820950000    -1.5093860000    -1.1425730000
   10      C       3.5142300000    -1.8351130000    -0.0372120000
   11      C       4.9538500000    -1.4492890000    -0.2434700000
   12      O       3.0642420000    -2.3902050000     0.9293610000
   13      C       0.7297730000    -0.3746380000    -0.4117750000
   14      C       1.4908640000     0.6962130000     0.2412740000
   15      O       2.7426550000     0.6822360000     0.3507190000
   16      C       0.7210910000     1.8220430000     0.7724220000
   17      C       1.4104360000     2.9037710000     1.3637250000
   18      C       0.7271360000     3.9848890000     1.8821320000
   19      C      -0.6830240000     4.0161240000     1.8314850000
   20      C      -1.3745090000     2.9654650000     1.2636460000
   21      C      -0.6930180000     1.8534140000     0.7215330000
   22      C      -1.4716910000     0.7620650000     0.1343530000
   23      O      -2.7274810000     0.8038210000     0.1532320000
   24      C      -0.7137890000    -0.3424550000    -0.4640560000
   25      H      -5.0009520000    -0.1415670000    -0.4846310000
   26      H      -5.6817800000    -1.6936190000     0.0866120000
   27      H      -5.2480690000    -1.4621450000    -1.6389920000
   28      H      -1.2537180000    -3.2035910000    -2.2611970000
   29      H       1.2702960000    -3.2602270000    -2.1691950000
   30      H       5.0115410000    -0.3656360000    -0.1209330000
   31      H       5.2830800000    -1.6997470000    -1.2540580000
   32      H       5.5783440000    -1.9447320000     0.4987040000
   33      H       2.4918810000     2.8484700000     1.3949390000
   34      H       1.2722620000     4.8093200000     2.3318520000
   35      H      -1.2220100000     4.8645510000     2.2422890000
   36      H      -2.4567910000     2.9581130000     1.2170870000
 ----------------------------------------------------------------

    8   -1144.9871686064      6.69e-06  Convergence criterion met
 Total energy in the final basis set =    -1144.9871686064

                    Orbital Energies (a.u.)
 --------------------------------------------------------------

 Alpha MOs
 -- Occupied --
-19.1730 -19.1730 -19.1220 -19.1220 -19.0807 -19.0807 -10.3132 -10.3132
-10.2440 -10.2440 -10.2351 -10.2351 -10.1935 -10.1931 -10.1817 -10.1812
-10.1770 -10.1766 -10.1749 -10.1744 -10.1719 -10.1719 -10.1705 -10.1705
 -1.1180  -1.1177  -1.0388  -1.0382  -1.0109  -1.0086  -0.8729  -0.8581
 -0.7959  -0.7885  -0.7552  -0.7534  -0.7494  -0.7284  -0.6818  -0.6604
 -0.6335  -0.6326  -0.5999  -0.5783  -0.5461  -0.5424  -0.5163  -0.5022
 -0.4993  -0.4941  -0.4874  -0.4865  -0.4718  -0.4705  -0.4628  -0.4515
 -0.4443  -0.4291  -0.4263  -0.4212  -0.4196  -0.4115  -0.4106  -0.4041
 -0.4019  -0.3961  -0.3862  -0.3819  -0.3801  -0.3765  -0.3626  -0.3569
 -0.3452  -0.3406  -0.3298  -0.3229  -0.2942  -0.2921  -0.2763  -0.2592
 -0.2573  -0.2562  -0.2507  -0.2398  -0.1486

 Beta MOs
 -- Occupied --
-19.1730 -19.1730 -19.1220 -19.1220 -19.0755 -19.0755 -10.3132 -10.3132
-10.2439 -10.2439 -10.2333 -10.2333 -10.1926 -10.1922 -10.1810 -10.1805
-10.1765 -10.1760 -10.1745 -10.1740 -10.1719 -10.1719 -10.1705 -10.1705
 -1.1179  -1.1176  -1.0386  -1.0380  -1.0018  -0.9993  -0.8704  -0.8567
 -0.7918  -0.7874  -0.7551  -0.7515  -0.7476  -0.7273  -0.6748  -0.6597
 -0.6319  -0.6299  -0.5990  -0.5770  -0.5435  -0.5409  -0.5151  -0.5018
 -0.4992  -0.4933  -0.4870  -0.4842  -0.4707  -0.4700  -0.4612  -0.4509
 -0.4434  -0.4259  -0.4219  -0.4186  -0.4156  -0.4094  -0.4067  -0.4016
 -0.4010  -0.3948  -0.3813  -0.3786  -0.3780  -0.3640  -0.3599  -0.3553
 -0.3396  -0.3342  -0.3283  -0.3222  -0.2940  -0.2919  -0.2574  -0.2544
 -0.2501  -0.2486  -0.2458  -0.2351

          Ground-State Mulliken Net Atomic Charges

     Atom                 Charge (a.u.)    Spin (a.u.)
  --------------------------------------------------------
      1 C                    -0.494165       0.002406
      2 C                     0.084435      -0.001037
      3 O                    -0.299035      -0.000718
      4 O                    -0.001280      -0.000953
      5 C                    -0.601109       0.038076
      6 C                     0.032135       0.054580
      7 C                     0.030347       0.054653
      8 C                    -0.599796       0.037997
      9 O                    -0.000758      -0.000938
     10 C                     0.084445      -0.001014
     11 C                    -0.494091       0.002399
     12 O                    -0.298741      -0.000695
     13 C                     0.696482       0.046883
     14 C                    -0.403667       0.082076
     15 O                    -0.431482       0.204520
     16 C                     0.224312       0.020700
     17 C                    -0.069748       0.032564
     18 C                    -0.403937       0.029265
     19 C                    -0.403187       0.029148
     20 C                    -0.070150       0.032554
     21 C                     0.227167       0.020548
     22 C                    -0.403893       0.082291
     23 O                    -0.432391       0.204502
     24 C                     0.697690       0.046880
     25 H                     0.203831      -0.000479
     26 H                     0.171547      -0.000238
     27 H                     0.185135       0.000328
     28 H                     0.230416      -0.004436
     29 H                     0.230253      -0.004441
     30 H                     0.203943      -0.000478
     31 H                     0.185147       0.000326
     32 H                     0.171512      -0.000236
     33 H                     0.170317      -0.001035
     34 H                     0.204059      -0.002481
     35 H                     0.204001      -0.002477
     36 H                     0.170256      -0.001039
  --------------------------------------------------------
  Sum of atomic charges =    -1.000000

                    Cartesian Multipole Moments
 -----------------------------------------------------------------
    Charge (ESU x 10^10)
                -4.8032
    Dipole Moment (Debye)
         X       0.1989      Y       1.1964      Z      -4.5778
       Tot       4.7357
    Quadrupole Moments (Debye-Ang)
        XX    -153.0002     XY      -0.4545     YY    -146.5023
        XZ       0.1072     YZ      16.0985     ZZ    -145.8577

 Total job time:  144.58s(wall), 763.58s(cpu)
        *  Thank you very much for using Q-Chem.  Have a nice day.  *
