 Q-Chem 5.4, Q-Chem, Inc., Pleasanton, CA (2021)
 Q-Chem 5.4.0 for Intel X86 EM64T Linux

User input:
--------------------------------------------------------------
$molecule
0 1
O                 -0.0495460000     -1.5122090000     -2.3217710000
C                 -0.0271820000     -0.8309900000     -1.3075750000
C                  1.2586800000     -0.4519330000     -0.6544620000
C                  2.4425530000     -0.8842260000     -1.2148790000
C                  3.6920390000     -0.5564280000     -0.6405070000
C                  4.9208920000     -0.9922580000     -1.2030940000
C                  6.1169810000     -0.6543810000     -0.6173920000
C                  6.1426720000      0.1350130000      0.5582990000
C                  4.9717040000      0.5731370000      1.1283000000
C                  3.7179680000      0.2424290000      0.5491970000
C                  2.4933070000      0.6750750000      1.1072290000
C                  1.2846220000      0.3441090000      0.5309220000
C                  0.0271080000      0.8311370000      1.1673610000
O                  0.0497730000      1.5122690000      2.1816340000
C                 -1.2587710000      0.4520530000      0.5143480000
C                 -2.4424910000      0.8842660000      1.0747810000
C                 -3.6921170000      0.5563770000      0.5003890000
C                 -4.9206490000      0.9921260000      1.0630080000
C                 -6.1171100000      0.6542110000      0.4773440000
C                 -6.1428390000     -0.1349060000     -0.6979430000
C                 -4.9717120000     -0.5730750000     -1.2681250000
C                 -3.7182230000     -0.2424720000     -0.6893210000
C                 -2.4932820000     -0.6750340000     -1.2473340000
C                 -1.2846580000     -0.3441080000     -0.6712100000
H                  2.3988120000     -1.4873150000     -2.1146890000
H                  4.8989770000     -1.5966520000     -2.1034320000
H                  7.0499590000     -0.9918080000     -1.0542700000
H                  7.0949380000      0.3925930000      1.0076360000
H                  4.9891260000      1.1777160000      2.0285910000
H                  2.4889830000      1.2802160000      2.0067210000
H                 -2.3987970000      1.4873730000      1.9746070000
H                 -4.8989890000      1.5965160000      1.9633230000
H                 -7.0497350000      0.9918840000      0.9147130000
H                 -7.0948440000     -0.3928540000     -1.1477130000
H                 -4.9892990000     -1.1776610000     -2.1684440000
H                 -2.4888490000     -1.2801870000     -2.1468470000
$end
$rem
MAX_SCF_CYCLES=200
SCF_Guess=core
BASIS  =  6-311++G(d,p)
GUI  =  2
JOB_TYPE  =  SP
METHOD  =  B3LYP
THRESH = 14
SCF_CONVERGENCE = 8
SOLVENT_METHOD = COSMO
$end
$solvent
dielectric 37.219
opticaldielectric 1.43
$end

--------------------------------------------------------------

             Standard Nuclear Orientation (Angstroms)
    I     Atom           X                Y                Z
 ----------------------------------------------------------------
    1      O      -0.0003298559     2.7128554792    -0.0001033094
    2      C      -0.0001350585     1.4909091041     0.0000356077
    3      C       1.2728073880     0.7141855943     0.0000158660
    4      C       2.4701972326     1.3988441163     0.0000273491
    5      C       3.7084476720     0.7167108184     0.0000043865
    6      C       4.9509116347     1.4043262031     0.0000384466
    7      C       6.1354621590     0.7081389810    -0.0000173970
    8      C       6.1354667049    -0.7082127526    -0.0001130086
    9      C       4.9507863805    -1.4043107089    -0.0001334856
   10      C       3.7083818290    -0.7165513418    -0.0000500257
   11      C       2.4702107627    -1.3986871414    -0.0000213779
   12      C       1.2728452079    -0.7139219222     0.0000369295
   13      C       0.0000663082    -1.4908557620     0.0001584560
   14      O       0.0005660186    -2.7128230165     0.0001939750
   15      C      -1.2728913212    -0.7141998987     0.0000993850
   16      C      -2.4701248152    -1.3988298846     0.0000185826
   17      C      -3.7085114067    -0.7166267230    -0.0000281877
   18      C      -4.9506510252    -1.4042293423    -0.0001348004
   19      C      -6.1355713495    -0.7080457333    -0.0001460895
   20      C      -6.1356229221     0.7078169511    -0.0000475663
   21      C      -4.9507830315     1.4040873448     0.0000427030
   22      C      -3.7086227793     0.7166391687     0.0000293362
   23      C      -2.4701753997     1.3987072972     0.0000706068
   24      C      -1.2728703017     0.7141173788     0.0000788169
   25      H       2.4460920495     2.4826829386     0.0000537100
   26      H       4.9486641735     2.4889348100     0.0001240367
   27      H       7.0789862484     1.2419269598     0.0000267647
   28      H       7.0789178958    -1.2420306790    -0.0001639707
   29      H       4.9485368257    -2.4889019273    -0.0002137985
   30      H       2.4462061153    -2.4825339764    -0.0000338772
   31      H      -2.4460672453    -2.4826911683    -0.0000035993
   32      H      -4.9486583122    -2.4888120033    -0.0002207750
   33      H      -7.0787499394    -1.2423847880    -0.0002463890
   34      H      -7.0788006309     1.2421946764    -0.0000501454
   35      H      -4.9486982135     2.4887086992     0.0001264242
   36      H      -2.4460614828     2.4825762748     0.0000890960
 ----------------------------------------------------------------

   23    -996.3105706252      4.81e-09  Convergence criterion met
 Total energy in the final basis set =     -996.3105706252
   10    -996.3284425913      7.77e-09  Convergence criterion met
 Total energy in the final basis set =     -996.3284425913

                    Orbital Energies (a.u.)
 --------------------------------------------------------------

 Alpha MOs
 -- Occupied --
-19.1261 -19.1261 -10.2804 -10.2803 -10.2060 -10.2060 -10.2056 -10.2056
-10.2047 -10.2046 -10.2042 -10.2042 -10.1990 -10.1990 -10.1990 -10.1989
-10.1907 -10.1907 -10.1905 -10.1905 -10.1900 -10.1900 -10.1897 -10.1897
 -1.0628  -1.0611  -0.9024  -0.8981  -0.8596  -0.8438  -0.7980  -0.7978
 -0.7900  -0.7611  -0.7512  -0.7454  -0.6867  -0.6794  -0.6426  -0.6377
 -0.6157  -0.6150  -0.5876  -0.5779  -0.5515  -0.5371  -0.5313  -0.5007
 -0.4998  -0.4832  -0.4804  -0.4630  -0.4585  -0.4539  -0.4528  -0.4513
 -0.4455  -0.4430  -0.4332  -0.4265  -0.4244  -0.4179  -0.4144  -0.4006
 -0.3998  -0.3857  -0.3719  -0.3633  -0.3515  -0.3493  -0.3492  -0.3387
 -0.3099  -0.3069  -0.2860  -0.2770  -0.2745  -0.2656  -0.2423  -0.2401

          Ground-State Mulliken Net Atomic Charges

     Atom                 Charge (a.u.)
  ----------------------------------------
      1 O                    -0.299868
      2 C                    -0.662160
      3 C                     0.240813
      4 C                     0.115847
      5 C                     0.107125
      6 C                    -0.211024
      7 C                    -0.359945
      8 C                    -0.360338
      9 C                    -0.210905
     10 C                     0.107505
     11 C                     0.115527
     12 C                     0.240938
     13 C                    -0.662497
     14 O                    -0.299779
     15 C                     0.240944
     16 C                     0.115544
     17 C                     0.106788
     18 C                    -0.210757
     19 C                    -0.360120
     20 C                    -0.360292
     21 C                    -0.210493
     22 C                     0.107439
     23 C                     0.115758
     24 C                     0.240853
     25 H                     0.171589
     26 H                     0.194992
     27 H                     0.221670
     28 H                     0.221669
     29 H                     0.194954
     30 H                     0.171659
     31 H                     0.171600
     32 H                     0.195024
     33 H                     0.221642
     34 H                     0.221650
     35 H                     0.194975
     36 H                     0.171674
  ----------------------------------------
  Sum of atomic charges =     0.000000

                    Cartesian Multipole Moments
 -----------------------------------------------------------------
    Charge (ESU x 10^10)
                -0.0000
    Dipole Moment (Debye)
         X      -0.0035      Y      -0.0017      Z       0.0012
       Tot       0.0040
    Quadrupole Moments (Debye-Ang)
        XX     -72.9140     XY       0.0072     YY    -143.6943
        XZ       0.0006     YZ       0.0031     ZZ    -143.4153

 Total job time:  498.58s(wall), 3673.20s(cpu)
        *  Thank you very much for using Q-Chem.  Have a nice day.  *
