 Gaussian 16, Revision A.03,
 Gaussian 16:  ES64L-G16RevA.03 25-Dec-2016

 ----------------------------------------------------------------
 #P UB3LYP/6-311++G(d,p) SCRF=(PCM,Solvent=n,n-DiMethylFormamide)
 ----------------------------------------------------------------

 ------------------
 Quinone PCM in DMF
 ------------------
 Symbolic Z-matrix:
 Charge =  0 Multiplicity = 1

                         Standard orientation:
 ---------------------------------------------------------------------
 Center     Atomic      Atomic             Coordinates (Angstroms)
 Number     Number       Type             X           Y           Z
 ---------------------------------------------------------------------
      1          6           0       -4.770506   -1.449362    0.000270
      2          8           0       -4.387757   -0.074896    0.000025
      3          6           0       -3.068994    0.235689   -0.000066
      4          6           0       -2.766239    1.609534   -0.000204
      5          6           0       -1.451026    2.029605   -0.000189
      6          6           0       -0.400253    1.099060   -0.000115
      7          6           0        1.002280    1.581239    0.000081
      8          8           0        1.270436    2.773517    0.000216
      9          6           0        2.083898    0.548963    0.000050
     10          6           0        3.418453    0.963943    0.000057
     11          6           0        4.443164    0.024318    0.000029
     12          6           0        4.143509   -1.340712    0.000006
     13          6           0        2.819372   -1.763017   -0.000012
     14          6           0        1.782433   -0.824640    0.000022
     15          6           0        0.370618   -1.304654   -0.000083
     16          8           0        0.103893   -2.495986   -0.000147
     17          6           0       -0.707693   -0.270212   -0.000044
     18          6           0       -2.036893   -0.702110   -0.000018
     19          1           0       -4.403545   -1.961650    0.894787
     20          1           0       -4.403575   -1.961976   -0.894076
     21          1           0       -5.858631   -1.450784    0.000254
     22          1           0       -3.585116    2.318758   -0.000270
     23          1           0       -1.205493    3.084393   -0.000197
     24          1           0        3.627560    2.026544    0.000087
     25          1           0        5.476581    0.352089    0.000024
     26          1           0        4.944120   -2.071658   -0.000035
     27          1           0        2.563828   -2.815414   -0.000087
     28          1           0       -2.221052   -1.767240    0.000046
 ---------------------------------------------------------------------

 SCF Done:  E(UB3LYP) =  -803.523892313     A.U. after   15 cycles

 The electronic state is 1-A.
 Alpha  occ. eigenvalues --  -19.17630 -19.13404 -19.12884 -10.28554 -10.28143
 Alpha  occ. eigenvalues --  -10.26413 -10.22965 -10.21331 -10.20961 -10.20904
 Alpha  occ. eigenvalues --  -10.20390 -10.20074 -10.19962 -10.19912 -10.19860
 Alpha  occ. eigenvalues --  -10.19798 -10.19763 -10.19738  -1.09175  -1.06854
 Alpha  occ. eigenvalues --   -1.06330  -0.89527  -0.88302  -0.81461  -0.78241
 Alpha  occ. eigenvalues --   -0.77907  -0.77662  -0.72403  -0.69120  -0.66073
 Alpha  occ. eigenvalues --   -0.64169  -0.61819  -0.59000  -0.56537  -0.56391
 Alpha  occ. eigenvalues --   -0.52237  -0.51320  -0.49928  -0.48904  -0.48504
 Alpha  occ. eigenvalues --   -0.46189  -0.46135  -0.45638  -0.45565  -0.45168
 Alpha  occ. eigenvalues --   -0.44994  -0.42839  -0.42022  -0.41983  -0.40046
 Alpha  occ. eigenvalues --   -0.38501  -0.38357  -0.37877  -0.36956  -0.35404
 Alpha  occ. eigenvalues --   -0.34103  -0.28956  -0.28813  -0.28216  -0.27909
 Alpha  occ. eigenvalues --   -0.27649  -0.25219
 Alpha virt. eigenvalues --   -0.11879  -0.07275  -0.03566  -0.02517  -0.00779
 Alpha virt. eigenvalues --    0.00016   0.00768   0.01571   0.01831   0.02908
 Alpha virt. eigenvalues --    0.02928   0.03404   0.03471   0.03990   0.04121

  Beta  occ. eigenvalues --  -19.17630 -19.13404 -19.12884 -10.28554 -10.28143
  Beta  occ. eigenvalues --  -10.26413 -10.22965 -10.21331 -10.20961 -10.20904
  Beta  occ. eigenvalues --  -10.20390 -10.20074 -10.19962 -10.19912 -10.19860
  Beta  occ. eigenvalues --  -10.19798 -10.19763 -10.19738  -1.09175  -1.06854
  Beta  occ. eigenvalues --   -1.06330  -0.89527  -0.88302  -0.81461  -0.78241
  Beta  occ. eigenvalues --   -0.77907  -0.77662  -0.72403  -0.69120  -0.66073
  Beta  occ. eigenvalues --   -0.64169  -0.61819  -0.59000  -0.56537  -0.56391
  Beta  occ. eigenvalues --   -0.52237  -0.51320  -0.49928  -0.48904  -0.48504
  Beta  occ. eigenvalues --   -0.46189  -0.46135  -0.45638  -0.45565  -0.45168
  Beta  occ. eigenvalues --   -0.44994  -0.42839  -0.42022  -0.41983  -0.40046
  Beta  occ. eigenvalues --   -0.38501  -0.38357  -0.37877  -0.36956  -0.35404
  Beta  occ. eigenvalues --   -0.34103  -0.28956  -0.28813  -0.28216  -0.27909
  Beta  occ. eigenvalues --   -0.27649  -0.25219
  Beta virt. eigenvalues --   -0.11879  -0.07275  -0.03566  -0.02517  -0.00779
  Beta virt. eigenvalues --    0.00016   0.00768   0.01571   0.01831   0.02908
  Beta virt. eigenvalues --    0.02928   0.03404   0.03471   0.03990   0.04121

 Mulliken charges and spin densities:
               1          2
     1  C   -0.351568  -0.000000
     2  O   -0.176532  -0.000000
     3  C   -0.716690   0.000000
     4  C   -0.367482  -0.000000
     5  C    0.233060  -0.000000
     6  C    0.186779  -0.000000
     7  C   -0.698132   0.000000
     8  O   -0.285101  -0.000000
     9  C    0.023172   0.000000
    10  C    0.226538  -0.000000
    11  C   -0.445672   0.000000
    12  C   -0.434498   0.000000
    13  C    0.176057   0.000000
    14  C    0.331708   0.000000
    15  C   -0.713409   0.000000
    16  O   -0.268458  -0.000000
    17  C    0.724339  -0.000000
    18  C    0.623005  -0.000000
    19  H    0.178441   0.000000
    20  H    0.178430   0.000000
    21  H    0.200185   0.000000
    22  H    0.228819  -0.000000
    23  H    0.193755  -0.000000
    24  H    0.185586   0.000000
    25  H    0.206582  -0.000000
    26  H    0.208420   0.000000
    27  H    0.184867  -0.000000
    28  H    0.167798   0.000000
 Sum of Mulliken charges =  -0.00000   0.00000

 Dipole moment (field-independent basis, Debye):
    X=             -0.7284    Y=             -2.1371    Z=              0.0000  Tot=              2.2579
 Quadrupole moment (field-independent basis, Debye-Ang):
   XX=            -72.2504   YY=           -112.4382   ZZ=           -105.9178
   XY=             -0.4095   XZ=             -0.0021   YZ=             -0.0026

 Normal termination of Gaussian 16 at Sun Jan 14 01:02:14 2024.
