 Gaussian 16, Revision A.03,
 Gaussian 16:  ES64L-G16RevA.03 25-Dec-2016

 ----------------------------------------------------------------
 #P UB3LYP/6-311++G(d,p) SCRF=(PCM,Solvent=n,n-DiMethylFormamide)
 ----------------------------------------------------------------

 ------------------
 Radical PCM in DMF
 ------------------
 Symbolic Z-matrix:
 Charge = -1 Multiplicity = 2

                         Standard orientation:
 ---------------------------------------------------------------------
 Center     Atomic      Atomic             Coordinates (Angstroms)
 Number     Number       Type             X           Y           Z
 ---------------------------------------------------------------------
      1          6           0        2.287999   -2.938654    0.000686
      2          6           0        2.165363   -1.429948    0.000267
      3          6           0        3.340815   -0.700813    0.000488
      4          6           0        3.340795    0.700887    0.000279
      5          6           0        2.165327    1.430009   -0.000016
      6          6           0        2.287891    2.938695    0.000045
      7          6           0        0.918464    0.723607   -0.000237
      8          6           0       -0.343865    1.476895   -0.000413
      9          8           0       -0.388937    2.734885   -0.000612
     10          6           0       -1.588026    0.707626   -0.000103
     11          6           0       -2.823479    1.393639    0.000267
     12          6           0       -4.020393    0.706371    0.000655
     13          6           0       -4.020347   -0.706505    0.000630
     14          6           0       -2.823392   -1.393714    0.000177
     15          6           0       -1.587988   -0.707649   -0.000181
     16          6           0       -0.343777   -1.476893   -0.000667
     17          8           0       -0.388789   -2.734874   -0.001418
     18          6           0        0.918491   -0.723563   -0.000211
     19          1           0        1.802464   -3.387047   -0.867724
     20          1           0        1.800263   -3.386742    0.868001
     21          1           0        3.349009   -3.213398    0.002029
     22          1           0        4.289632   -1.230522    0.000864
     23          1           0        4.289598    1.230620    0.000435
     24          1           0        1.801064    3.386820    0.867872
     25          1           0        1.801236    3.386962   -0.867782
     26          1           0        3.348862    3.213564    0.000237
     27          1           0       -2.790586    2.476771    0.000269
     28          1           0       -4.961328    1.249076    0.000984
     29          1           0       -4.961243   -1.249285    0.000953
     30          1           0       -2.790429   -2.476844    0.000115
 ---------------------------------------------------------------------

 SCF Done:  E(UB3LYP) =  -767.732023031     A.U. after   16 cycles

 The electronic state is 2-A.
 Alpha  occ. eigenvalues --  -19.06749 -19.06748 -10.21958 -10.21957 -10.17754
 Alpha  occ. eigenvalues --  -10.17753 -10.17343 -10.17306 -10.17057 -10.17010
 Alpha  occ. eigenvalues --  -10.16724 -10.16691 -10.16655 -10.16643 -10.16188
 Alpha  occ. eigenvalues --  -10.16137 -10.15116 -10.15116  -0.99789  -0.99535
 Alpha  occ. eigenvalues --   -0.85744  -0.84927  -0.78102  -0.77992  -0.74666
 Alpha  occ. eigenvalues --   -0.73357  -0.70599  -0.67286  -0.63717  -0.62712
 Alpha  occ. eigenvalues --   -0.61385  -0.57126  -0.53777  -0.52910  -0.50491
 Alpha  occ. eigenvalues --   -0.46984  -0.46036  -0.45534  -0.45075  -0.42755
 Alpha  occ. eigenvalues --   -0.42157  -0.41287  -0.40809  -0.40542  -0.40049
 Alpha  occ. eigenvalues --   -0.39522  -0.38657  -0.38429  -0.36792  -0.36483
 Alpha  occ. eigenvalues --   -0.35817  -0.34916  -0.33988  -0.33938  -0.33151
 Alpha  occ. eigenvalues --   -0.32929  -0.26239  -0.25337  -0.24478  -0.23864
 Alpha  occ. eigenvalues --   -0.23514  -0.22739  -0.13507
 Alpha virt. eigenvalues --   -0.04691  -0.01931  -0.00361  -0.00022   0.00461
 Alpha virt. eigenvalues --    0.00802   0.01844   0.02194   0.03508   0.03662
 Alpha virt. eigenvalues --    0.04081   0.04278   0.04360   0.05378   0.05562

  Beta  occ. eigenvalues --  -19.06185 -19.06184 -10.21792 -10.21791 -10.17743
  Beta  occ. eigenvalues --  -10.17742 -10.17274 -10.17235 -10.17013 -10.16966
  Beta  occ. eigenvalues --  -10.16680 -10.16675 -10.16623 -10.16582 -10.16124
  Beta  occ. eigenvalues --  -10.16072 -10.15116 -10.15116  -0.98813  -0.98534
  Beta  occ. eigenvalues --   -0.85485  -0.84806  -0.77865  -0.77694  -0.74473
  Beta  occ. eigenvalues --   -0.73169  -0.70570  -0.66678  -0.63458  -0.62541
  Beta  occ. eigenvalues --   -0.61127  -0.57010  -0.53586  -0.52653  -0.50315
  Beta  occ. eigenvalues --   -0.46866  -0.45838  -0.45356  -0.45002  -0.42115
  Beta  occ. eigenvalues --   -0.42027  -0.40875  -0.40615  -0.40258  -0.39845
  Beta  occ. eigenvalues --   -0.38859  -0.38602  -0.38211  -0.36390  -0.35746
  Beta  occ. eigenvalues --   -0.34636  -0.34420  -0.33884  -0.33844  -0.32785
  Beta  occ. eigenvalues --   -0.32118  -0.24728  -0.24185  -0.23898  -0.23097
  Beta  occ. eigenvalues --   -0.23010  -0.22234
  Beta virt. eigenvalues --   -0.07669  -0.03732  -0.00887  -0.00348   0.00209
  Beta virt. eigenvalues --    0.00461   0.00810   0.01854   0.02192   0.03523
  Beta virt. eigenvalues --    0.03737   0.04086   0.04283   0.04415   0.05837

 Mulliken charges and spin densities:
               1          2
     1  C   -0.333850   0.003506
     2  C    0.924014   0.013294
     3  C   -0.471386   0.048901
     4  C   -0.471372   0.048904
     5  C    0.924028   0.013290
     6  C   -0.333840   0.003509
     7  C    0.233364   0.045912
     8  C   -1.019524   0.088002
     9  O   -0.416069   0.207076
    10  C    0.118765   0.043860
    11  C    0.055211   0.023713
    12  C   -0.528816   0.033797
    13  C   -0.528795   0.033817
    14  C    0.055241   0.023696
    15  C    0.118779   0.043872
    16  C   -1.019513   0.087994
    17  O   -0.416053   0.207067
    18  C    0.233349   0.045910
    19  H    0.160732   0.000290
    20  H    0.160664   0.000287
    21  H    0.139898  -0.000367
    22  H    0.129891  -0.004221
    23  H    0.129895  -0.004221
    24  H    0.160680   0.000288
    25  H    0.160709   0.000288
    26  H    0.139905  -0.000367
    27  H    0.168781  -0.001177
    28  H    0.178267  -0.002870
    29  H    0.178269  -0.002872
    30  H    0.168777  -0.001176
 Sum of Mulliken charges =  -1.00000   1.00000

 Dipole moment (field-independent basis, Debye):
    X=              1.8705    Y=             -0.0001    Z=              0.0052  Tot=              1.8705
 Quadrupole moment (field-independent basis, Debye-Ang):
   XX=           -107.7299   YY=           -139.9293   ZZ=           -112.8365
   XY=              0.0008   XZ=             -0.0029   YZ=             -0.0065

 Normal termination of Gaussian 16 at Sun Jan 14 01:19:10 2024.
