 Q-Chem 5.4, Q-Chem, Inc., Pleasanton, CA (2021)
 Q-Chem 5.4.0 for Intel X86 EM64T Linux

User input:
--------------------------------------------------------------
$molecule
-2 1
C                  5.8609810000     -5.7052300000      0.5066800000
C                  5.9821760000     -5.9211790000     -0.8547670000
C                  5.2425300000     -5.1246800000     -1.7597680000
C                  5.0116860000     -4.7034770000      1.0244650000
C                  4.2627870000     -3.8989000000      0.1085200000
C                  4.4028140000     -4.1371800000     -1.2755650000
C                  4.9172600000     -4.5084000000      2.4711670000
C                  4.0217820000     -3.4650750000      2.9063320000
C                  3.2938110000     -2.6700350000      2.0064700000
C                  3.3645660000     -2.8456840000      0.5786350000
O                  5.5947590000     -5.2265790000      3.2820220000
O                  2.6906030000     -2.1281170000     -0.2347860000
H                  6.6428080000     -6.7002170000     -1.2286610000
C                  2.3762550000     -1.5663810000      2.4856770000
H                  5.3335120000     -5.2892760000     -2.8310550000
C                  3.9166390000     -3.2593530000      4.4006370000
C                  0.8964130000     -1.9875910000      2.6009060000
C                 -0.0232260000     -0.8455740000      3.0513840000
C                 -1.5002490000     -1.2396070000      3.1841300000
H                  6.4151800000     -6.2986510000      1.2263950000
H                  3.8204620000     -3.5104180000     -1.9429640000
H                  2.4298130000     -0.7490880000      1.7576910000
H                  2.7102860000     -1.1762940000      3.4544000000
H                  4.4454970000     -4.0728930000      4.9003330000
H                  2.8764240000     -3.2401080000      4.7488980000
H                  4.3758310000     -2.3127780000      4.7226640000
H                  0.8089330000     -2.8256980000      3.3045750000
H                  0.5753730000     -2.3585460000      1.6222080000
H                  0.0646520000     -0.0150480000      2.3380490000
H                  0.3295520000     -0.4546830000      4.0168570000
H                 -1.5882960000     -2.0762070000      3.8904380000
H                 -1.8590710000     -1.6202730000      2.2189380000
C                 -2.4093050000     -0.0932250000      3.6465670000
C                 -3.8860310000     -0.4821020000      3.7948920000
C                 -4.7864560000      0.6660520000      4.2687850000
C                 -6.2627370000      0.2781690000      4.4245420000
C                 -7.1580920000      1.4276290000      4.9042500000
H                 -2.3262950000      0.7407720000      2.9367850000
H                 -2.0418420000      0.2915150000      4.6077010000
H                 -3.9688620000     -1.3194730000      4.5006510000
H                 -4.2582340000     -0.8600790000      2.8334260000
H                 -4.7065200000      1.5030770000      3.5623600000
H                 -4.4114420000      1.0455420000      5.2287610000
H                 -6.3428680000     -0.5598320000      5.1297670000
H                 -6.6406410000     -0.0976880000      3.4644230000
H                 -7.0820810000      2.2661580000      4.1996670000
H                 -6.7812320000      1.8052610000      5.8638070000
C                 -8.6337720000      1.0385180000      5.0637380000
C                 -9.5249430000      2.1874170000      5.5447560000
H                 -8.7109150000      0.2000220000      5.7677610000
H                 -9.0126420000      0.6616510000      4.1050580000
H                 -9.2018480000      2.5634880000      6.5223120000
H                -10.5695820000      1.8743440000      5.6475780000
H                 -9.5065220000      3.0301440000      4.8441200000
$end

$rem
MAX_SCF_CYCLES=200
BASIS  =  6-311++G(d,p)
GUI  =  2
JOB_TYPE  =  SP
METHOD  =  B3LYP
THRESH      14
SCF_CONVERGENCE  = 5
SOLVENT_METHOD = sm12
$end

$smx
solvent dimethylformamide
charges CM5
$end

--------------------------------------------------------------

             Standard Nuclear Orientation (Angstroms)
    I     Atom           X                Y                Z
 ----------------------------------------------------------------
    1      C       5.8609810000    -5.7052300000     0.5066800000
    2      C       5.9821760000    -5.9211790000    -0.8547670000
    3      C       5.2425300000    -5.1246800000    -1.7597680000
    4      C       5.0116860000    -4.7034770000     1.0244650000
    5      C       4.2627870000    -3.8989000000     0.1085200000
    6      C       4.4028140000    -4.1371800000    -1.2755650000
    7      C       4.9172600000    -4.5084000000     2.4711670000
    8      C       4.0217820000    -3.4650750000     2.9063320000
    9      C       3.2938110000    -2.6700350000     2.0064700000
   10      C       3.3645660000    -2.8456840000     0.5786350000
   11      O       5.5947590000    -5.2265790000     3.2820220000
   12      O       2.6906030000    -2.1281170000    -0.2347860000
   13      H       6.6428080000    -6.7002170000    -1.2286610000
   14      C       2.3762550000    -1.5663810000     2.4856770000
   15      H       5.3335120000    -5.2892760000    -2.8310550000
   16      C       3.9166390000    -3.2593530000     4.4006370000
   17      C       0.8964130000    -1.9875910000     2.6009060000
   18      C      -0.0232260000    -0.8455740000     3.0513840000
   19      C      -1.5002490000    -1.2396070000     3.1841300000
   20      H       6.4151800000    -6.2986510000     1.2263950000
   21      H       3.8204620000    -3.5104180000    -1.9429640000
   22      H       2.4298130000    -0.7490880000     1.7576910000
   23      H       2.7102860000    -1.1762940000     3.4544000000
   24      H       4.4454970000    -4.0728930000     4.9003330000
   25      H       2.8764240000    -3.2401080000     4.7488980000
   26      H       4.3758310000    -2.3127780000     4.7226640000
   27      H       0.8089330000    -2.8256980000     3.3045750000
   28      H       0.5753730000    -2.3585460000     1.6222080000
   29      H       0.0646520000    -0.0150480000     2.3380490000
   30      H       0.3295520000    -0.4546830000     4.0168570000
   31      H      -1.5882960000    -2.0762070000     3.8904380000
   32      H      -1.8590710000    -1.6202730000     2.2189380000
   33      C      -2.4093050000    -0.0932250000     3.6465670000
   34      C      -3.8860310000    -0.4821020000     3.7948920000
   35      C      -4.7864560000     0.6660520000     4.2687850000
   36      C      -6.2627370000     0.2781690000     4.4245420000
   37      C      -7.1580920000     1.4276290000     4.9042500000
   38      H      -2.3262950000     0.7407720000     2.9367850000
   39      H      -2.0418420000     0.2915150000     4.6077010000
   40      H      -3.9688620000    -1.3194730000     4.5006510000
   41      H      -4.2582340000    -0.8600790000     2.8334260000
   42      H      -4.7065200000     1.5030770000     3.5623600000
   43      H      -4.4114420000     1.0455420000     5.2287610000
   44      H      -6.3428680000    -0.5598320000     5.1297670000
   45      H      -6.6406410000    -0.0976880000     3.4644230000
   46      H      -7.0820810000     2.2661580000     4.1996670000
   47      H      -6.7812320000     1.8052610000     5.8638070000
   48      C      -8.6337720000     1.0385180000     5.0637380000
   49      C      -9.5249430000     2.1874170000     5.5447560000
   50      H      -8.7109150000     0.2000220000     5.7677610000
   51      H      -9.0126420000     0.6616510000     4.1050580000
   52      H      -9.2018480000     2.5634880000     6.5223120000
   53      H     -10.5695820000     1.8743440000     5.6475780000
   54      H      -9.5065220000     3.0301440000     4.8441200000
 ----------------------------------------------------------------

   10   -1007.1167372070      4.94e-06  Convergence criterion met
 Total energy in the final basis set =    -1007.4093985131

                    Orbital Energies (a.u.)
 --------------------------------------------------------------

 Alpha MOs
 -- Occupied --
-19.0196 -19.0179 -10.1771 -10.1751 -10.1716 -10.1711 -10.1666 -10.1665
-10.1646 -10.1645 -10.1639 -10.1631 -10.1626 -10.1623 -10.1621 -10.1620
-10.1615 -10.1595 -10.1576 -10.1574 -10.1476 -10.1471 -10.1396 -10.1352
 -0.9429  -0.9399  -0.8427  -0.8166  -0.8059  -0.7928  -0.7749  -0.7512
 -0.7401  -0.7385  -0.7168  -0.6879  -0.6638  -0.6380  -0.6268  -0.5999
 -0.5862  -0.5804  -0.5751  -0.5744  -0.5655  -0.5354  -0.4990  -0.4871
 -0.4786  -0.4743  -0.4568  -0.4455  -0.4427  -0.4339  -0.4289  -0.4245
 -0.4208  -0.4155  -0.4110  -0.4014  -0.3979  -0.3906  -0.3837  -0.3813
 -0.3761  -0.3748  -0.3711  -0.3584  -0.3563  -0.3527  -0.3480  -0.3426
 -0.3382  -0.3333  -0.3294  -0.3266  -0.3245  -0.3229  -0.3225  -0.3220
 -0.3193  -0.3159  -0.3113  -0.2974  -0.2461  -0.2334  -0.2163  -0.2010
 -0.1922  -0.1118

          Ground-State Mulliken Net Atomic Charges

     Atom                 Charge (a.u.)
  ----------------------------------------
      1 C                    -0.377057
      2 C                     1.415029
      3 C                     1.463050
      4 C                    -2.416679
      5 C                    -1.333512
      6 C                    -0.276456
      7 C                    -2.504366
      8 C                    -1.444068
      9 C                     0.276069
     10 C                    -2.604037
     11 O                    -0.335501
     12 O                    -0.246328
     13 H                     0.395456
     14 C                    -1.157283
     15 H                     0.398047
     16 C                     1.235498
     17 C                    -4.684264
     18 C                    -2.292271
     19 C                    -0.221961
     20 H                     0.095455
     21 H                     0.082292
     22 H                     0.026995
     23 H                     0.215367
     24 H                     0.213474
     25 H                     0.221030
     26 H                     0.163687
     27 H                    -0.066979
     28 H                     0.100963
     29 H                     0.247524
     30 H                     0.267068
     31 H                     0.201732
     32 H                     0.130894
     33 C                     1.530301
     34 C                     2.313993
     35 C                     2.380220
     36 C                     1.595906
     37 C                     1.044743
     38 H                     0.109988
     39 H                     0.104906
     40 H                     0.110461
     41 H                     0.111048
     42 H                     0.123201
     43 H                     0.124689
     44 H                     0.120735
     45 H                     0.122096
     46 H                     0.108766
     47 H                     0.110217
     48 C                     0.268946
     49 C                    -0.209172
     50 H                     0.119672
     51 H                     0.119282
     52 H                     0.141732
     53 H                     0.217848
     54 H                     0.141554
  ----------------------------------------
  Sum of atomic charges =    -2.000000

                    Cartesian Multipole Moments
 -----------------------------------------------------------------
    Charge (ESU x 10^10)
                -9.6064
    Dipole Moment (Debye)
         X     -40.9388      Y      36.8824      Z     -12.4617
       Tot      56.4942
    Quadrupole Moments (Debye-Ang)
        XX    -363.6757     XY     179.9220     YY    -331.5776
        XZ     -59.9181     YZ      55.3748     ZZ    -215.7116

 Total job time:  2090.38s(wall), 14666.08s(cpu)
        *  Thank you very much for using Q-Chem.  Have a nice day.  *
