 Q-Chem 5.4, Q-Chem, Inc., Pleasanton, CA (2021)
 Q-Chem 5.4.0 for Intel X86 EM64T Linux

User input:
--------------------------------------------------------------
$molecule
-2 1
C                  0.1461470000      3.7279030000     -0.0564290000
C                 -0.9570050000      3.6744450000     -0.8858280000
C                 -1.0197120000      2.7077360000     -1.9197760000
C                  1.2334680000      2.8309440000     -0.2111210000
C                  1.1715720000      1.8478880000     -1.2646180000
C                  0.0327890000      1.8212720000     -2.0905800000
C                  2.3717390000      2.8935290000      0.6581250000
C                  3.4062930000      1.9377630000      0.4038160000
C                  3.3841630000      0.9731700000     -0.5976330000
C                  2.2573660000      0.8847990000     -1.4911630000
O                  2.5399450000      3.7260290000      1.6384780000
O                  2.1978740000      0.0167790000     -2.4220500000
H                  0.2154310000      4.4599210000      0.7419230000
H                 -1.7779630000      4.3748650000     -0.7462300000
H                 -1.8867920000      2.6633000000     -2.5744530000
H                  0.0159780000      1.0706110000     -2.8743990000
O                  4.4654090000      2.0519720000      1.2740620000
H                  4.1493300000      2.8051000000      1.8304910000
C                  4.5223290000     -0.0024770000     -0.7670250000
C                  5.5545790000      0.4375240000     -1.8277280000
C                  6.6782870000     -0.5818500000     -2.1121400000
C                  7.4955730000     -0.1584190000     -3.3512960000
C                  8.5129920000     -1.1879660000     -3.8671010000
C                  9.2449080000     -0.7252930000     -5.1350720000
C                 10.2151060000     -1.7456920000     -5.7644010000
C                 10.6985980000     -1.2547940000     -7.1371190000
C                  7.5788860000     -0.7952430000     -0.8844370000
C                 11.4116410000     -2.0631370000     -4.8547430000
H                  4.0995650000     -0.9622470000     -1.0873760000
H                  5.0176090000     -0.1443550000      0.1980560000
H                  6.0025820000      1.3913700000     -1.5184830000
H                  5.0074830000      0.6278820000     -2.7565320000
H                  6.1955570000     -1.5420200000     -2.3489260000
H                  8.0174640000      0.7827040000     -3.1254750000
H                  6.7925950000      0.0740610000     -4.1606420000
H                  7.9914190000     -2.1318620000     -4.0780240000
H                  9.2441380000     -1.4116240000     -3.0839090000
H                  9.7984100000      0.1992270000     -4.9182170000
H                  8.4945490000     -0.4541350000     -5.8893980000
H                  9.6571770000     -2.6794550000     -5.9222880000
H                  9.8567310000     -1.0776390000     -7.8166540000
H                 11.3662470000     -1.9789980000     -7.6163790000
H                 11.2531480000     -0.3130140000     -7.0437250000
H                  8.3402600000     -1.5626460000     -1.0577500000
H                  6.9939380000     -1.1012700000     -0.0143670000
H                  8.0938720000      0.1367920000     -0.6215470000
H                 11.0986810000     -2.4945170000     -3.8989240000
H                 11.9889380000     -1.1558950000     -4.6389580000
H                 12.0930130000     -2.7759470000     -5.3319300000
$end
$rem
MAX_SCF_CYCLES=200
BASIS  =  6-311++G(d,p)
GUI  =  2
JOB_TYPE  =  SP
SCF_CONVERGENCE  = 6
METHOD  =  B3LYP
SOLVENT_METHOD = COSMO
$end
$solvent
dielectric 37.219
opticaldielectric 1.43
$end

--------------------------------------------------------------

             Standard Nuclear Orientation (Angstroms)
    I     Atom           X                Y                Z
 ----------------------------------------------------------------
    1      C       5.7494640832     0.3306300651    -0.8694353897
    2      C       6.2910660309     1.5899450401    -0.7006221262
    3      C       5.5443746131     2.6001756648    -0.0453413186
    4      C       4.4495760382     0.0141536414    -0.3994718133
    5      C       3.6878439639     1.0423684398     0.2658286590
    6      C       4.2703970314     2.3136835960     0.4211929251
    7      C       3.8991804279    -1.2975807476    -0.5771904822
    8      C       2.5788303367    -1.4969851413    -0.0620427194
    9      C       1.8131116835    -0.5348256732     0.5873828685
   10      C       2.3341230922     0.7946494924     0.7795277870
   11      O       4.4857776840    -2.3010522689    -1.1528553830
   12      O       1.6652415440     1.7054575668     1.3682337843
   13      H       6.3033696473    -0.4582973338    -1.3682326695
   14      H       7.2908298842     1.8071309521    -1.0712301845
   15      H       5.9680015484     3.5926096873     0.0888942562
   16      H       3.6722799223     3.0661595359     0.9253582304
   17      O       2.1136070742    -2.7756267362    -0.2638879210
   18      H       2.8917834799    -3.1695613318    -0.7286222177
   19      C       0.4354874672    -0.8566335369     1.1113998334
   20      C      -0.6978264955    -0.4632354602     0.1392531306
   21      C      -2.1283567826    -0.6741843296     0.6794539072
   22      C      -3.1655295534    -0.0202059201    -0.2582788337
   23      C      -4.6095192584     0.0227909599     0.2653701373
   24      C      -5.5735903469     0.7398706194    -0.6906013535
   25      C      -7.0229365324     0.9039489726    -0.1895752093
   26      C      -7.8153858639     1.8297934166    -1.1244207529
   27      C      -2.4353726894    -2.1621682137     0.9150700811
   28      C      -7.7472426747    -0.4405865420    -0.0235936639
   29      H       0.2890112445    -0.2964035370     2.0426353993
   30      H       0.3794486782    -1.9259990258     1.3352973261
   31      H      -0.5790883974    -1.0254488542    -0.7966842142
   32      H      -0.5655206885     0.5955234448    -0.1051887365
   33      H      -2.1903037303    -0.1579824581     1.6493613745
   34      H      -3.1476871603    -0.5441634692    -1.2248335279
   35      H      -2.8384187521     1.0059653241    -0.4662140829
   36      H      -4.6223959700     0.5338156162     1.2380749004
   37      H      -4.9675782736    -0.9948248618     0.4504076043
   38      H      -5.5918593557     0.2098516335    -1.6533442597
   39      H      -5.1696690918     1.7377288671    -0.9067021197
   40      H      -6.9796674265     1.3853764612     0.7975832236
   41      H      -7.3397630019     2.8139858976    -1.2083243250
   42      H      -8.8404726959     1.9847794534    -0.7707357466
   43      H      -7.8799964797     1.4056363889    -2.1339325132
   44      H      -3.4253058992    -2.3158603182     1.3567103254
   45      H      -1.7012418123    -2.6153163068     1.5848067109
   46      H      -2.3996430212    -2.7144238505    -0.0318977514
   47      H      -7.2486850373    -1.0894633556     0.7030574146
   48      H      -7.7921004963    -0.9797408578    -0.9776499718
   49      H      -8.7785049574    -0.2949322550     0.3160477123
 ----------------------------------------------------------------

   66   -1003.7654925031      8.77e-08  Convergence criterion met
 Total energy in the final basis set =    -1003.7654925031
    8   -1004.0211085633      4.55e-07  Convergence criterion met
 Total energy in the final basis set =    -1004.0211085633

                    Orbital Energies (a.u.)
 --------------------------------------------------------------

 Alpha MOs
 -- Occupied --
-19.1132 -19.0305 -19.0217 -10.1772 -10.1747 -10.1646 -10.1635 -10.1572
-10.1523 -10.1516 -10.1498 -10.1483 -10.1480 -10.1479 -10.1449 -10.1445
-10.1434 -10.1432 -10.1423 -10.1389 -10.1369 -10.1327 -10.1244  -1.0279
 -0.9454  -0.9372  -0.8249  -0.8106  -0.7950  -0.7710  -0.7436  -0.7223
 -0.7213  -0.6835  -0.6753  -0.6651  -0.6387  -0.6175  -0.5885  -0.5789
 -0.5549  -0.5517  -0.5405  -0.5353  -0.5033  -0.4723  -0.4679  -0.4552
 -0.4458  -0.4362  -0.4316  -0.4272  -0.4216  -0.4185  -0.4041  -0.4004
 -0.3991  -0.3909  -0.3788  -0.3760  -0.3750  -0.3698  -0.3621  -0.3583
 -0.3519  -0.3513  -0.3485  -0.3417  -0.3348  -0.3345  -0.3214  -0.3182
 -0.3165  -0.3107  -0.3082  -0.3052  -0.3046  -0.2997  -0.2974  -0.2874
 -0.2311  -0.2275  -0.2192  -0.1998  -0.1931  -0.1097

          Ground-State Mulliken Net Atomic Charges

     Atom                 Charge (a.u.)
  ----------------------------------------
      1 C                    -0.134660
      2 C                    -0.366603
      3 C                    -0.574727
      4 C                     0.517973
      5 C                    -0.216533
      6 C                     0.032089
      7 C                    -1.001903
      8 C                    -0.801161
      9 C                     2.115087
     10 C                    -0.801773
     11 O                    -0.770444
     12 O                    -0.672763
     13 H                     0.153852
     14 H                     0.178536
     15 H                     0.170460
     16 H                     0.154159
     17 O                    -0.341405
     18 H                     0.292034
     19 C                     0.033167
     20 C                    -1.132182
     21 C                     1.189896
     22 C                    -0.686281
     23 C                    -0.018801
     24 C                    -0.820653
     25 C                     0.513102
     26 C                    -0.677469
     27 C                    -0.756046
     28 C                    -0.708746
     29 H                     0.180317
     30 H                     0.196134
     31 H                     0.163489
     32 H                     0.183013
     33 H                     0.122338
     34 H                     0.148937
     35 H                     0.108934
     36 H                     0.154215
     37 H                     0.090659
     38 H                     0.143770
     39 H                     0.134106
     40 H                     0.144042
     41 H                     0.142136
     42 H                     0.165183
     43 H                     0.146925
     44 H                     0.151003
     45 H                     0.144546
     46 H                     0.158976
     47 H                     0.149343
     48 H                     0.152160
     49 H                     0.151556
  ----------------------------------------
  Sum of atomic charges =    -2.000012

                    Cartesian Multipole Moments
 -----------------------------------------------------------------
    Charge (ESU x 10^10)
                -9.6065
    Dipole Moment (Debye)
         X     -30.3392      Y       2.0626      Z      -0.6691
       Tot      30.4166
    Quadrupole Moments (Debye-Ang)
        XX    -275.4549     XY      16.9111     YY    -188.3418
        XZ       8.5699     YZ     -14.5691     ZZ    -165.2024

 Total job time:  849.31s(wall), 6444.84s(cpu)
        *  Thank you very much for using Q-Chem.  Have a nice day.  *
