 Q-Chem 5.4, Q-Chem, Inc., Pleasanton, CA (2021)
 Q-Chem 5.4.0 for Intel X86 EM64T Linux

User input:
--------------------------------------------------------------
$molecule
-2 1
C                 -1.2077860000      2.8447260000      0.0176700000
C                 -2.4868540000      2.3468500000     -0.0377410000
C                 -2.7284960000      0.9561560000     -0.0536310000
C                 -0.0763000000      1.9853100000      0.0654360000
C                 -0.3102820000      0.5616420000      0.0609590000
C                 -1.6378880000      0.0997340000     -0.0017670000
C                  1.2461810000      2.5803190000      0.1150800000
C                  2.2977130000      1.6065370000      0.1640480000
C                  2.0844670000      0.2184760000      0.1651690000
C                  0.7995040000     -0.3907380000      0.1153040000
O                  1.4301140000      3.8540690000      0.1247380000
O                  0.6171790000     -1.6629530000      0.1102360000
H                 -1.0052680000      3.9149960000      0.0270020000
H                 -1.7758160000     -0.9776250000     -0.0082550000
O                  3.5804730000      2.1424010000      0.2558440000
O                 -3.6088750000      3.1964320000     -0.0848380000
H                 -3.7486280000      0.5861680000     -0.1004100000
H                  2.9272630000     -0.4639350000      0.1947710000
C                  4.6681160000      1.3206640000     -0.0903150000
H                 -3.2605590000      4.0934830000     -0.0655140000
H                  5.5602630000      1.9550360000     -0.1063490000
H                  4.5413180000      0.8616970000     -1.0850510000
H                  4.8363710000      0.5137040000      0.6359830000
$end
$rem
MAX_SCF_CYCLES=200
BASIS  =  6-311++G(d,p)
GUI  =  2
JOB_TYPE  =  SP
METHOD  =  B3LYP
SOLVENT_METHOD = PCM
$end
$pcm
theory = CPCM
$end
$solvent
dielectric 37.219
opticaldielectric 1.43
$end

--------------------------------------------------------------

             Standard Nuclear Orientation (Angstroms)
    I     Atom           X                Y                Z
 ----------------------------------------------------------------
    1      C      -1.2077860000     2.8447260000     0.0176700000
    2      C      -2.4868540000     2.3468500000    -0.0377410000
    3      C      -2.7284960000     0.9561560000    -0.0536310000
    4      C      -0.0763000000     1.9853100000     0.0654360000
    5      C      -0.3102820000     0.5616420000     0.0609590000
    6      C      -1.6378880000     0.0997340000    -0.0017670000
    7      C       1.2461810000     2.5803190000     0.1150800000
    8      C       2.2977130000     1.6065370000     0.1640480000
    9      C       2.0844670000     0.2184760000     0.1651690000
   10      C       0.7995040000    -0.3907380000     0.1153040000
   11      O       1.4301140000     3.8540690000     0.1247380000
   12      O       0.6171790000    -1.6629530000     0.1102360000
   13      H      -1.0052680000     3.9149960000     0.0270020000
   14      H      -1.7758160000    -0.9776250000    -0.0082550000
   15      O       3.5804730000     2.1424010000     0.2558440000
   16      O      -3.6088750000     3.1964320000    -0.0848380000
   17      H      -3.7486280000     0.5861680000    -0.1004100000
   18      H       2.9272630000    -0.4639350000     0.1947710000
   19      C       4.6681160000     1.3206640000    -0.0903150000
   20      H      -3.2605590000     4.0934830000    -0.0655140000
   21      H       5.5602630000     1.9550360000    -0.1063490000
   22      H       4.5413180000     0.8616970000    -1.0850510000
   23      H       4.8363710000     0.5137040000     0.6359830000
 ----------------------------------------------------------------

    9    -725.3246045946      8.32e-06  Convergence criterion met
 Total energy in the final basis set =     -725.3246045946

                    Orbital Energies (a.u.)
 --------------------------------------------------------------

 Alpha MOs
 -- Occupied --
-19.1376 -19.1241 -19.0224 -19.0162 -10.2113 -10.2005 -10.1825 -10.1764
-10.1664 -10.1517 -10.1487 -10.1417 -10.1401 -10.1344 -10.1186  -1.0379
 -1.0351  -0.9398  -0.9318  -0.8259  -0.7651  -0.7244  -0.7122  -0.6822
 -0.6327  -0.6027  -0.5726  -0.5346  -0.5214  -0.4938  -0.4693  -0.4451
 -0.4410  -0.4384  -0.4090  -0.4038  -0.3947  -0.3929  -0.3743  -0.3641
 -0.3627  -0.3579  -0.3331  -0.3301  -0.3192  -0.3092  -0.3010  -0.2818
 -0.2291  -0.2164  -0.2038  -0.1983  -0.1976  -0.1093

          Ground-State Mulliken Net Atomic Charges

     Atom                 Charge (a.u.)
  ----------------------------------------
      1 C                     0.301382
      2 C                    -0.657334
      3 C                    -0.290245
      4 C                     0.475598
      5 C                    -0.054780
      6 C                     0.143076
      7 C                    -0.593172
      8 C                    -0.381467
      9 C                     0.417431
     10 C                    -0.368156
     11 O                    -0.753830
     12 O                    -0.716177
     13 H                     0.133482
     14 H                     0.150586
     15 O                    -0.245700
     16 O                    -0.343073
     17 H                     0.194485
     18 H                     0.154700
     19 C                    -0.347865
     20 H                     0.308128
     21 H                     0.170209
     22 H                     0.155964
     23 H                     0.146760
  ----------------------------------------
  Sum of atomic charges =    -2.000000

                    Cartesian Multipole Moments
 -----------------------------------------------------------------
    Charge (ESU x 10^10)
                -9.6064
    Dipole Moment (Debye)
         X      -5.6424      Y     -11.9320      Z      -1.4452
       Tot      13.2777
    Quadrupole Moments (Debye-Ang)
        XX    -116.7377     XY     -19.3958     YY    -164.1449
        XZ      -3.5020     YZ      -2.3321     ZZ     -98.0596

 Total job time:  35.43s(wall), 226.84s(cpu)
        *  Thank you very much for using Q-Chem.  Have a nice day.  *
