 Gaussian 16, Revision A.03,
 Gaussian 16:  ES64L-G16RevA.03 25-Dec-2016

 ----------------------------------------------------------------
 #P UB3LYP/6-311++G(d,p) SCRF=(PCM,Solvent=n,n-DiMethylFormamide)
 ----------------------------------------------------------------

 -------
 Reduced
 -------
 Symbolic Z-matrix:
 Charge = -2 Multiplicity = 1

                         Standard orientation:
 ---------------------------------------------------------------------
 Center     Atomic      Atomic             Coordinates (Angstroms)
 Number     Number       Type             X           Y           Z
 ---------------------------------------------------------------------
      1          6           0       -6.814838   -0.066263   -0.964332
      2          6           0       -7.407556   -1.316108   -1.002199
      3          6           0       -6.711514   -2.438033   -0.494928
      4          6           0       -5.522352    0.124047   -0.429382
      5          6           0       -4.818252   -1.011466    0.082481
      6          6           0       -5.442959   -2.276149    0.033556
      7          6           0       -4.936167    1.464122   -0.406894
      8          6           0       -3.611197    1.559893    0.154406
      9          6           0       -2.924346    0.446453    0.664572
     10          6           0       -3.476630   -0.883700    0.648872
     11          8           0       -5.574453    2.474010   -0.859651
     12          8           0       -2.842410   -1.894937    1.102687
     13          1           0       -8.404361   -1.436660   -1.420505
     14          6           0       -1.542937    0.574703    1.268610
     15          1           0       -7.171959   -3.423073   -0.521600
     16          6           0       -2.997426    2.941569    0.178466
     17          6           0       -0.397101    0.257341    0.285264
     18          6           0        0.993147    0.355827    0.925872
     19          6           0        2.152665    0.054737   -0.032951
     20          1           0       -7.322759    0.813843   -1.344733
     21          1           0       -4.881799   -3.116480    0.428940
     22          1           0       -1.473569   -0.140237    2.096166
     23          1           0       -1.389821    1.579893    1.678876
     24          1           0       -3.636988    3.614719   -0.395176
     25          1           0       -1.986064    2.958373   -0.246466
     26          1           0       -2.918343    3.342925    1.199848
     27          1           0       -0.452640    0.939853   -0.572827
     28          1           0       -0.556682   -0.754314   -0.101535
     29          1           0        1.042437   -0.335417    1.777984
     30          1           0        1.129391    1.363543    1.344600
     31          1           0        2.099002    0.739521   -0.890106
     32          1           0        2.025868   -0.955009   -0.444765
     33          6           0        3.539026    0.167603    0.614882
     34          6           0        4.704952   -0.118802   -0.340384
     35          6           0        6.087922    0.007496    0.311567
     36          6           0        7.256050   -0.271744   -0.643221
     37          6           0        8.636866   -0.138439    0.011468
     38          1           0        3.594980   -0.521888    1.467937
     39          1           0        3.658789    1.175904    1.034190
     40          1           0        4.646298    0.567069   -1.196123
     41          1           0        4.591928   -1.129163   -0.755373
     42          1           0        6.148748   -0.679867    1.165892
     43          1           0        6.198683    1.017216    0.729179
     44          1           0        7.194646    0.414462   -1.498416
     45          1           0        7.149217   -1.282641   -1.058651
     46          1           0        8.702242   -0.825302    0.865453
     47          1           0        8.745154    0.871525    0.428150
     48          6           0        9.805076   -0.413888   -0.944508
     49          6           0       11.182426   -0.278047   -0.288774
     50          1           0        9.740529    0.272099   -1.798868
     51          1           0        9.699095   -1.423659   -1.361363
     52          1           0       11.341956    0.732903    0.103611
     53          1           0       11.991252   -0.480893   -0.999063
     54          1           0       11.300547   -0.978727    0.545801
 ---------------------------------------------------------------------

 SCF Done:  E(UB3LYP) =  -1007.39461326     A.U. after   18 cycles

 The electronic state is 1-A.
 Alpha  occ. eigenvalues --  -19.00605 -19.00586 -10.16033 -10.15769 -10.15741
 Alpha  occ. eigenvalues --  -10.15736 -10.15699 -10.15652 -10.15627 -10.15527
 Alpha  occ. eigenvalues --  -10.15421 -10.15333 -10.14967 -10.14311 -10.14264
 Alpha  occ. eigenvalues --  -10.14231 -10.13936 -10.13924 -10.13311 -10.12958
 Alpha  occ. eigenvalues --  -10.12551 -10.12504 -10.11695 -10.11358  -0.93072
 Alpha  occ. eigenvalues --   -0.92746  -0.81878  -0.80807  -0.79378  -0.77800
 Alpha  occ. eigenvalues --   -0.76211  -0.73782  -0.71730  -0.71527  -0.70265
 Alpha  occ. eigenvalues --   -0.67283  -0.64710  -0.62163  -0.60895  -0.58712
 Alpha  occ. eigenvalues --   -0.57363  -0.56929  -0.56500  -0.55902  -0.54237
 Alpha  occ. eigenvalues --   -0.51136  -0.48172  -0.47559  -0.46485  -0.45404
 Alpha  occ. eigenvalues --   -0.44480  -0.42969  -0.42541  -0.42171  -0.41952
 Alpha  occ. eigenvalues --   -0.41188  -0.40169  -0.39659  -0.39470  -0.38684
 Alpha  occ. eigenvalues --   -0.38559  -0.37333  -0.36875  -0.36444  -0.36158
 Alpha  occ. eigenvalues --   -0.35789  -0.35499  -0.34514  -0.34218  -0.33989
 Alpha  occ. eigenvalues --   -0.33241  -0.33120  -0.32603  -0.32156  -0.32036
 Alpha  occ. eigenvalues --   -0.31737  -0.31538  -0.31450  -0.31130  -0.30615
 Alpha  occ. eigenvalues --   -0.30149  -0.29949  -0.29215  -0.28440  -0.22329
 Alpha  occ. eigenvalues --   -0.21580  -0.19585  -0.19061  -0.18058  -0.09633
 Alpha virt. eigenvalues --   -0.00273  -0.00043   0.00101   0.00591   0.00847
 Alpha virt. eigenvalues --    0.00985   0.01393   0.01693   0.01872   0.02019
 Alpha virt. eigenvalues --    0.02463   0.02548   0.03352   0.03498   0.03893

  Beta  occ. eigenvalues --  -19.00605 -19.00586 -10.16033 -10.15769 -10.15741
  Beta  occ. eigenvalues --  -10.15736 -10.15699 -10.15652 -10.15627 -10.15527
  Beta  occ. eigenvalues --  -10.15421 -10.15333 -10.14967 -10.14311 -10.14264
  Beta  occ. eigenvalues --  -10.14231 -10.13936 -10.13924 -10.13311 -10.12958
  Beta  occ. eigenvalues --  -10.12551 -10.12504 -10.11695 -10.11358  -0.93072
  Beta  occ. eigenvalues --   -0.92746  -0.81878  -0.80807  -0.79378  -0.77800
  Beta  occ. eigenvalues --   -0.76211  -0.73782  -0.71730  -0.71527  -0.70265
  Beta  occ. eigenvalues --   -0.67283  -0.64710  -0.62163  -0.60895  -0.58712
  Beta  occ. eigenvalues --   -0.57363  -0.56929  -0.56500  -0.55902  -0.54237
  Beta  occ. eigenvalues --   -0.51136  -0.48172  -0.47559  -0.46485  -0.45404
  Beta  occ. eigenvalues --   -0.44480  -0.42969  -0.42541  -0.42171  -0.41952
  Beta  occ. eigenvalues --   -0.41188  -0.40169  -0.39659  -0.39470  -0.38684
  Beta  occ. eigenvalues --   -0.38559  -0.37333  -0.36875  -0.36444  -0.36158
  Beta  occ. eigenvalues --   -0.35789  -0.35499  -0.34514  -0.34218  -0.33989
  Beta  occ. eigenvalues --   -0.33241  -0.33120  -0.32603  -0.32156  -0.32036
  Beta  occ. eigenvalues --   -0.31737  -0.31538  -0.31450  -0.31130  -0.30615
  Beta  occ. eigenvalues --   -0.30149  -0.29949  -0.29215  -0.28440  -0.22329
  Beta  occ. eigenvalues --   -0.21580  -0.19585  -0.19061  -0.18058  -0.09633
  Beta virt. eigenvalues --   -0.00273  -0.00043   0.00101   0.00591   0.00847
  Beta virt. eigenvalues --    0.00985   0.01393   0.01693   0.01872   0.02019
  Beta virt. eigenvalues --    0.02463   0.02548   0.03352   0.03498   0.03893

 Mulliken charges and spin densities:
               1          2
     1  C    0.111168   0.000000
     2  C   -0.490189  -0.000000
     3  C   -0.468441   0.000000
     4  C    0.194244  -0.000000
     5  C   -0.138434   0.000000
     6  C   -0.005107  -0.000000
     7  C   -0.765186   0.000000
     8  C    0.938831  -0.000000
     9  C    1.008042  -0.000000
    10  C   -0.976161   0.000000
    11  O   -0.685437   0.000000
    12  O   -0.660417   0.000000
    13  H    0.147332  -0.000000
    14  C   -0.456392   0.000000
    15  H    0.147895   0.000000
    16  C   -0.570339   0.000000
    17  C   -1.026826  -0.000000
    18  C   -0.327418   0.000000
    19  C   -0.080506   0.000000
    20  H    0.143877  -0.000000
    21  H    0.139899  -0.000000
    22  H    0.180452  -0.000000
    23  H    0.161550   0.000000
    24  H    0.163519   0.000000
    25  H    0.134967  -0.000000
    26  H    0.143276   0.000000
    27  H    0.119623   0.000000
    28  H    0.190118   0.000000
    29  H    0.114522  -0.000000
    30  H    0.098874   0.000000
    31  H    0.124822   0.000000
    32  H    0.123382  -0.000000
    33  C    0.044904   0.000000
    34  C    0.045204  -0.000000
    35  C   -0.047463  -0.000000
    36  C   -0.285924  -0.000000
    37  C   -0.480215   0.000000
    38  H    0.130911   0.000000
    39  H    0.129700   0.000000
    40  H    0.128208   0.000000
    41  H    0.129826   0.000000
    42  H    0.128592  -0.000000
    43  H    0.128043   0.000000
    44  H    0.126805   0.000000
    45  H    0.126991   0.000000
    46  H    0.124335   0.000000
    47  H    0.123342   0.000000
    48  C   -0.281952   0.000000
    49  C   -0.697765  -0.000000
    50  H    0.130972   0.000000
    51  H    0.131249   0.000000
    52  H    0.140374   0.000000
    53  H    0.148060  -0.000000
    54  H    0.140261   0.000000
 Sum of Mulliken charges =  -2.00000  -0.00000

 Dipole moment (field-independent basis, Debye):
    X=             42.3368    Y=             -1.2143    Z=             -0.5174  Tot=             42.3574
 Quadrupole moment (field-independent basis, Debye-Ang):
   XX=           -375.5067   YY=           -199.4578   ZZ=           -171.4390
   XY=             21.8544   XZ=            -10.1430   YZ=             13.3320

 Normal termination of Gaussian 16 at Sun Jan 21 09:05:10 2024.
