 Gaussian 16, Revision A.03,
 Gaussian 16:  ES64L-G16RevA.03 25-Dec-2016

 ----------------------------------------------------------------------
 #P UB3LYP/6-311++G(d,p) nosym opt freq SCRF=(PCM,Solvent=n,n-DiMethylF
 ormamide)
 ----------------------------------------------------------------------

 -------
 Radical
 -------
 Symbolic Z-matrix:
 Charge = -1 Multiplicity = 2

 SCF Done:  E(UB3LYP) =  -649.997448334     A.U. after   20 cycles
 SCF Done:  E(UB3LYP) =  -649.997812896     A.U. after   15 cycles
 SCF Done:  E(UB3LYP) =  -649.997830239     A.U. after   14 cycles
 SCF Done:  E(UB3LYP) =  -649.997832466     A.U. after   12 cycles
 Optimization completed.
    -- Stationary point found.
 Normal termination of Gaussian 16 at Sun Feb 11 19:53:49 2024.

 ----------------------------------------------------------------------
 #P Geom=AllCheck Guess=TCheck SCRF=Check GenChk UB3LYP/6-311++G(d,p) F
 req
 ----------------------------------------------------------------------

 Structure from the checkpoint file:  "281-rad.chk"
 -------
 Radical
 -------
 Charge = -1 Multiplicity = 2

                          Input orientation:
 ---------------------------------------------------------------------
 Center     Atomic      Atomic             Coordinates (Angstroms)
 Number     Number       Type             X           Y           Z
 ---------------------------------------------------------------------
      1          6           0        3.290833   -0.264945   -0.101936
      2          6           0        1.794417   -0.418584   -0.144931
      3          6           0        0.971133    0.738806    0.106325
      4          8           0        1.483686    1.869038    0.355153
      5          6           0       -0.494110    0.566596    0.064134
      6          6           0       -1.340209    1.664806    0.306408
      7          6           0       -2.718992    1.530490    0.274864
      8          6           0       -3.296288    0.276974   -0.004539
      9          6           0       -2.486841   -0.818161   -0.247256
     10          6           0       -1.080241   -0.699678   -0.218780
     11          6           0       -0.231222   -1.845260   -0.472956
     12          8           0       -0.654293   -3.022039   -0.737855
     13          6           0        1.194430   -1.630643   -0.420676
     14          8           0        1.933510   -2.750691   -0.670577
     15          1           0        3.791478   -1.225075   -0.224972
     16          1           0        3.610315    0.177570    0.846483
     17          1           0        3.641989    0.408703   -0.891302
     18          1           0       -0.883653    2.623869    0.519840
     19          1           0       -3.353718    2.389135    0.465029
     20          1           0       -4.375555    0.171085   -0.029339
     21          1           0       -2.918559   -1.788295   -0.463802
     22          1           0        1.251451   -3.437572   -0.823737
 ---------------------------------------------------------------------

 SCF Done:  E(UB3LYP) =  -649.997832466     A.U. after    1 cycles

 Alpha  occ. eigenvalues --  -19.14362 -19.08482 -19.07309 -10.22211 -10.22194
 Alpha  occ. eigenvalues --  -10.22069 -10.17482 -10.17289 -10.17254 -10.17145
 Alpha  occ. eigenvalues --  -10.17112 -10.16983 -10.16536 -10.15582  -1.06286
 Alpha  occ. eigenvalues --   -0.99551  -0.99365  -0.85845  -0.80743  -0.75500
 Alpha  occ. eigenvalues --   -0.75024  -0.69724  -0.66013  -0.61894  -0.59513
 Alpha  occ. eigenvalues --   -0.57050  -0.53654  -0.50519  -0.48210  -0.45923
 Alpha  occ. eigenvalues --   -0.45116  -0.43935  -0.42656  -0.41610  -0.40834
 Alpha  occ. eigenvalues --   -0.40165  -0.39107  -0.38473  -0.37926  -0.36851
 Alpha  occ. eigenvalues --   -0.35907  -0.34419  -0.34172  -0.33633  -0.26708
 Alpha  occ. eigenvalues --   -0.25844  -0.25744  -0.23921  -0.22855  -0.15126
 Alpha virt. eigenvalues --   -0.03315  -0.00762  -0.00533   0.00569   0.01293
 Alpha virt. eigenvalues --    0.02528   0.02915   0.03677   0.04783   0.05010
 Alpha virt. eigenvalues --    0.05301   0.05417   0.05822   0.07154   0.07358

  Beta  occ. eigenvalues --  -19.14316 -19.07843 -19.06776 -10.22092 -10.22072
  Beta  occ. eigenvalues --  -10.21783 -10.17465 -10.17248 -10.17181 -10.17071
  Beta  occ. eigenvalues --  -10.17062 -10.17000 -10.16458 -10.15589  -1.06081
  Beta  occ. eigenvalues --   -0.98612  -0.98277  -0.85610  -0.80357  -0.75263
  Beta  occ. eigenvalues --   -0.74830  -0.69344  -0.65346  -0.61708  -0.59224
  Beta  occ. eigenvalues --   -0.56810  -0.53478  -0.50283  -0.47901  -0.45785
  Beta  occ. eigenvalues --   -0.45019  -0.42917  -0.42576  -0.41183  -0.40448
  Beta  occ. eigenvalues --   -0.39359  -0.38973  -0.37781  -0.37671  -0.36714
  Beta  occ. eigenvalues --   -0.34280  -0.34186  -0.33474  -0.32613  -0.25272
  Beta  occ. eigenvalues --   -0.25033  -0.24700  -0.23411  -0.21953
  Beta virt. eigenvalues --   -0.08570  -0.02548  -0.00502   0.00326   0.00574
  Beta virt. eigenvalues --    0.01314   0.02533   0.02928   0.03794   0.04822
  Beta virt. eigenvalues --    0.05309   0.05425   0.05632   0.07091   0.07275

 Mulliken charges and spin densities:
               1          2
     1  C   -0.217075  -0.000228
     2  C    1.328481   0.044299
     3  C   -0.703490   0.077786
     4  O   -0.479239   0.196090
     5  C    0.231597   0.057641
     6  C    0.061023  -0.000261
     7  C   -0.489128   0.068767
     8  C   -0.333371   0.000634
     9  C   -0.139094   0.068396
    10  C    1.029907   0.028431
    11  C   -1.174738   0.141093
    12  O   -0.524580   0.233895
    13  C   -0.782417   0.074305
    14  O   -0.296062   0.015526
    15  H    0.176074  -0.000140
    16  H    0.161366   0.002925
    17  H    0.164574   0.003802
    18  H    0.170581  -0.000144
    19  H    0.175715  -0.004910
    20  H    0.186390  -0.000685
    21  H    0.161754  -0.004040
    22  H    0.291731  -0.003182
 Sum of Mulliken charges =  -1.00000   1.00000

 Dipole moment (field-independent basis, Debye):
    X=             -3.0133    Y=              2.4097    Z=              0.8404  Tot=              3.9488
 Quadrupole moment (field-independent basis, Debye-Ang):
   XX=            -92.1863   YY=           -112.3191   ZZ=            -88.2687
   XY=             -8.9663   XZ=             -1.8096   YZ=             -5.8310

  Exact polarizability: 293.467   0.794 286.581   0.290  39.298 118.739
 Approx polarizability: 312.608   9.196 338.878   2.161  47.645 135.541

                      1                      2                      3
                      A                      A                      A
 Frequencies --     52.4782                86.0272               116.4580
 Red. masses --      1.1042                 4.7915                 3.7675
 Frc consts  --      0.0018                 0.0209                 0.0301
 IR Inten    --      1.3773                11.7545                 0.2885

                      4                      5                      6
                      A                      A                      A
 Frequencies --    158.0585               177.5958               252.9562
 Red. masses --      5.3261                 7.1399                 4.2279
 Frc consts  --      0.0784                 0.1327                 0.1594
 IR Inten    --      0.2318                 2.6675                 7.2764

                      7                      8                      9
                      A                      A                      A
 Frequencies --    295.1425               297.9643               329.6864
 Red. masses --      3.6690                 4.4518                 5.4654
 Frc consts  --      0.1883                 0.2329                 0.3500
 IR Inten    --      3.1283                 0.9389                27.2221

                     10                     11                     12
                      A                      A                      A
 Frequencies --    376.0541               413.2191               424.4349
 Red. masses --     11.0389                 5.5150                 7.2537
 Frc consts  --      0.9198                 0.5548                 0.7699
 IR Inten    --     31.5902                 0.1168                 7.7092

                     13                     14                     15
                      A                      A                      A
 Frequencies --    432.8720               446.6098               519.8111
 Red. masses --      7.9970                 3.6267                10.0280
 Frc consts  --      0.8829                 0.4262                 1.5964
 IR Inten    --      8.8926                 2.8616                 0.4505

                     16                     17                     18
                      A                      A                      A
 Frequencies --    538.2014               619.7462               651.0282
 Red. masses --      4.2337                 6.9577                 1.1343
 Frc consts  --      0.7225                 1.5745                 0.2833
 IR Inten    --      2.6481                24.8476               136.7061

                     19                     20                     21
                      A                      A                      A
 Frequencies --    671.1526               686.1407               703.8111
 Red. masses --      6.3672                 4.7370                 3.4016
 Frc consts  --      1.6898                 1.3139                 0.9928
 IR Inten    --      9.9904                21.6249                78.4072

                     22                     23                     24
                      A                      A                      A
 Frequencies --    706.4638               749.8359               783.3748
 Red. masses --      5.5561                 4.2809                 1.7633
 Frc consts  --      1.6338                 1.4181                 0.6375
 IR Inten    --      4.7991                10.2287                43.8971

                     25                     26                     27
                      A                      A                      A
 Frequencies --    850.3301               878.7411               937.5299
 Red. masses --      3.5104                 1.3680                 5.6635
 Frc consts  --      1.4955                 0.6224                 2.9330
 IR Inten    --     39.6074                 0.0068                61.1185

                     28                     29                     30
                      A                      A                      A
 Frequencies --    980.0987               995.8171              1007.8423
 Red. masses --      1.3653                 1.2818                 2.5649
 Frc consts  --      0.7727                 0.7489                 1.5350
 IR Inten    --      2.6614                 0.0392                 4.6687

                     31                     32                     33
                      A                      A                      A
 Frequencies --   1040.2340              1045.0094              1088.3837
 Red. masses --      2.1491                 1.4580                 2.8330
 Frc consts  --      1.3701                 0.9381                 1.9772
 IR Inten    --     39.9833                 0.7405               287.0733

                     34                     35                     36
                      A                      A                      A
 Frequencies --   1110.2803              1155.6816              1195.6898
 Red. masses --      2.1510                 1.3224                 2.8757
 Frc consts  --      1.5623                 1.0406                 2.4223
 IR Inten    --     26.3035                 3.0512                58.8013

                     37                     38                     39
                      A                      A                      A
 Frequencies --   1204.3106              1255.2864              1290.6605
 Red. masses --      2.1682                 2.9093                 2.7517
 Frc consts  --      1.8528                 2.7010                 2.7007
 IR Inten    --     26.8577               128.6537                51.2406

                     40                     41                     42
                      A                      A                      A
 Frequencies --   1326.5773              1350.8347              1395.4266
 Red. masses --      1.7939                 8.8577                 1.3239
 Frc consts  --      1.8600                 9.5231                 1.5189
 IR Inten    --    274.1402                56.8556                21.6462

                     43                     44                     45
                      A                      A                      A
 Frequencies --   1418.7936              1458.0113              1468.1372
 Red. masses --      2.8651                 2.9125                 1.1367
 Frc consts  --      3.3980                 3.6478                 1.4436
 IR Inten    --    792.0674               207.6828                70.4368

                     46                     47                     48
                      A                      A                      A
 Frequencies --   1472.7186              1475.9160              1500.9632
 Red. masses --      2.8503                 1.2623                 3.5570
 Frc consts  --      3.6423                 1.6201                 4.7214
 IR Inten    --    220.7283               128.3083               940.9468

                     49                     50                     51
                      A                      A                      A
 Frequencies --   1530.6518              1575.1953              1623.8691
 Red. masses --      5.1186                 5.4884                 5.7980
 Frc consts  --      7.0657                 8.0235                 9.0080
 IR Inten    --     25.8457                 7.6003                 5.8917

                     52                     53                     54
                      A                      A                      A
 Frequencies --   1635.7502              3018.5428              3058.7588
 Red. masses --      6.2178                 1.0411                 1.0971
 Frc consts  --      9.8021                 5.5890                 6.0479
 IR Inten    --     11.1321                81.5167                41.2537

                     55                     56                     57
                      A                      A                      A
 Frequencies --   3120.5318              3158.7319              3172.0948
 Red. masses --      1.0979                 1.0858                 1.0896
 Frc consts  --      6.2988                 6.3829                 6.4598
 IR Inten    --     21.1738                 8.5737                18.1263

                     58                     59                     60
                      A                      A                      A
 Frequencies --   3185.4074              3189.6967              3531.3682
 Red. masses --      1.0922                 1.0952                 1.0640
 Frc consts  --      6.5295                 6.5651                 7.8175
 IR Inten    --     21.4620                36.4438               189.3406

 - Thermochemistry -
 -------------------
 Temperature   298.150 Kelvin.  Pressure   1.00000 Atm.
 Atom     1 has atomic number  6 and mass  12.00000

 Molecular mass:   188.04734 amu.
 Principal axes and moments of inertia in atomic units:
                           1         2         3
     Eigenvalues --  1643.994202735.614084368.53242
           X            0.91292   0.40813  -0.00275
           Y           -0.39889   0.89080  -0.21764
           Z           -0.08638   0.19979   0.97602
 This molecule is an asymmetric top.
 Rotational symmetry number  1.
 Warning -- assumption of classical behavior for rotation
           may cause significant error
 Rotational temperatures (Kelvin)      0.05269     0.03166     0.01983
 Rotational constants (GHZ):           1.09778     0.65972     0.41312
 Zero-point vibrational energy     425828.7 (Joules/Mol)
                                  101.77550 (Kcal/Mol)
 Warning -- explicit consideration of  17 degrees of freedom as
           vibrations may cause significant error
 Vibrational temperatures:     75.50   123.77   167.56   227.41   255.52
          (Kelvin)            363.95   424.64   428.70   474.35   541.06
                              594.53   610.67   622.81   642.57   747.89
                              774.35   891.68   936.68   965.64   987.20
                             1012.63  1016.44  1078.85  1127.10  1223.44
                             1264.31  1348.90  1410.14  1432.76  1450.06
                             1496.66  1503.54  1565.94  1597.45  1662.77
                             1720.33  1732.73  1806.08  1856.97  1908.65
                             1943.55  2007.71  2041.33  2097.75  2112.32
                             2118.91  2123.51  2159.55  2202.27  2266.35
                             2336.39  2353.48  4343.01  4400.87  4489.75
                             4544.71  4563.94  4583.09  4589.26  5080.85

 Zero-point correction=                           0.162190 (Hartree/Particle)
 Thermal correction to Energy=                    0.173602
 Thermal correction to Enthalpy=                  0.174546
 Thermal correction to Gibbs Free Energy=         0.124029
 Sum of electronic and zero-point Energies=           -649.835643
 Sum of electronic and thermal Energies=              -649.824230
 Sum of electronic and thermal Enthalpies=            -649.823286
 Sum of electronic and thermal Free Energies=         -649.873803

                     E (Thermal)             CV                S
                      KCal/Mol        Cal/Mol-Kelvin    Cal/Mol-Kelvin
 Total                  108.937             44.556            106.322
 Electronic               0.000              0.000              1.377
 Translational            0.889              2.981             41.600
 Rotational               0.889              2.981             31.352
 Vibrational            107.160             38.594             31.992
 Vibration     1          0.596              1.977              4.722
 Vibration     2          0.601              1.959              3.748
 Vibration     3          0.608              1.936              3.158
 Vibration     4          0.621              1.894              2.573
 Vibration     5          0.628              1.870              2.354
 Vibration     6          0.664              1.758              1.710
 Vibration     7          0.689              1.683              1.444
 Vibration     8          0.691              1.678              1.428
 Vibration     9          0.712              1.616              1.262
 Vibration    10          0.747              1.521              1.055
 Vibration    11          0.777              1.442              0.915
 Vibration    12          0.786              1.417              0.877
 Vibration    13          0.794              1.399              0.849
 Vibration    14          0.806              1.368              0.806
 Vibration    15          0.875              1.206              0.610
 Vibration    16          0.893              1.166              0.569
 Vibration    17          0.980              0.990              0.417

                           ! Non-Optimized Parameters !
 Normal termination of Gaussian 16 at Sun Feb 11 20:21:19 2024.
