 Gaussian 16, Revision A.03,
 Gaussian 16:  ES64L-G16RevA.03 25-Dec-2016

 ----------------------------------------------------------------------
 #P UB3LYP/6-311++G(d,p) nosym opt freq SCRF=(PCM,Solvent=n,n-DiMethylF
 ormamide)
 ----------------------------------------------------------------------

 -------
 Radical
 -------
 Symbolic Z-matrix:
 Charge = -1 Multiplicity = 2

 SCF Done:  E(UB3LYP) =  -1760.59401272     A.U. after   28 cycles
 SCF Done:  E(UB3LYP) =  -1760.59413604     A.U. after   19 cycles
 SCF Done:  E(UB3LYP) =  -1760.59416106     A.U. after   21 cycles
 SCF Done:  E(UB3LYP) =  -1760.59416151     A.U. after   20 cycles
 Optimization completed.
    -- Stationary point found.
 Normal termination of Gaussian 16 at Sat Feb 10 10:13:12 2024.

 ----------------------------------------------------------------------
 #P Geom=AllCheck Guess=TCheck SCRF=Check GenChk UB3LYP/6-311++G(d,p) F
 req
 ----------------------------------------------------------------------

 Structure from the checkpoint file:  "026-rad.chk"
 -------
 Radical
 -------
 Charge = -1 Multiplicity = 2

                          Input orientation:
 ---------------------------------------------------------------------
 Center     Atomic      Atomic             Coordinates (Angstroms)
 Number     Number       Type             X           Y           Z
 ---------------------------------------------------------------------
      1         17           0       -2.656637   -1.738087   -0.011385
      2          6           0       -1.202907   -0.743922   -0.006120
      3          6           0       -1.318468    0.612211   -0.038271
      4          6           0       -0.165737    1.481999   -0.035377
      5          8           0       -0.278256    2.733678   -0.065276
      6          6           0        1.125237    0.804901    0.003381
      7          6           0        1.227414   -0.563649    0.035602
      8         17           0        2.785037   -1.360625    0.082735
      9          6           0        0.066504   -1.449950    0.033569
     10          8           0        0.164829   -2.697258    0.061854
     11         17           0        2.542866    1.830962    0.006684
     12          1           0       -2.289882    1.089738   -0.067394
 ---------------------------------------------------------------------

 SCF Done:  E(UB3LYP) =  -1760.59416151     A.U. after    4 cycles

 Alpha  occ. eigenvalues -- -101.56089-101.56052-101.55704 -19.09885 -19.09652
 Alpha  occ. eigenvalues --  -10.25326 -10.24835 -10.24574 -10.24354 -10.23966
 Alpha  occ. eigenvalues --  -10.18641  -9.47542  -9.47504  -9.47154  -7.24001
 Alpha  occ. eigenvalues --   -7.23958  -7.23596  -7.23060  -7.23027  -7.22960
 Alpha  occ. eigenvalues --   -7.22925  -7.22668  -7.22597  -1.02873  -1.02183
 Alpha  occ. eigenvalues --   -0.90521  -0.88008  -0.85515  -0.80940  -0.73188
 Alpha  occ. eigenvalues --   -0.69818  -0.60820  -0.58700  -0.52128  -0.48963
 Alpha  occ. eigenvalues --   -0.46395  -0.44922  -0.44457  -0.42911  -0.41338
 Alpha  occ. eigenvalues --   -0.40405  -0.40226  -0.37887  -0.34916  -0.34002
 Alpha  occ. eigenvalues --   -0.33422  -0.32091  -0.31147  -0.28808  -0.26821
 Alpha  occ. eigenvalues --   -0.26203  -0.25567  -0.18225
 Alpha virt. eigenvalues --   -0.03121  -0.01807   0.00648   0.00994   0.01055
 Alpha virt. eigenvalues --    0.02610   0.03015   0.03901   0.04999   0.05412
 Alpha virt. eigenvalues --    0.05728   0.07174   0.07784   0.07906   0.08620

  Beta  occ. eigenvalues -- -101.56085-101.56046-101.55701 -19.09190 -19.08941
  Beta  occ. eigenvalues --  -10.25194 -10.24725 -10.24470 -10.24216 -10.23852
  Beta  occ. eigenvalues --  -10.18532  -9.47538  -9.47499  -9.47151  -7.24004
  Beta  occ. eigenvalues --   -7.23962  -7.23601  -7.23040  -7.23001  -7.22959
  Beta  occ. eigenvalues --   -7.22923  -7.22653  -7.22596  -1.01705  -1.00958
  Beta  occ. eigenvalues --   -0.90210  -0.87827  -0.85390  -0.80576  -0.72929
  Beta  occ. eigenvalues --   -0.68830  -0.60411  -0.58283  -0.51906  -0.48593
  Beta  occ. eigenvalues --   -0.46129  -0.44378  -0.43453  -0.42216  -0.40854
  Beta  occ. eigenvalues --   -0.40045  -0.38286  -0.37081  -0.33815  -0.33353
  Beta  occ. eigenvalues --   -0.33081  -0.32054  -0.31104  -0.26202  -0.26164
  Beta  occ. eigenvalues --   -0.25546  -0.24901
  Beta virt. eigenvalues --   -0.11092  -0.01685  -0.01622   0.00688   0.01136
  Beta virt. eigenvalues --    0.02652   0.03055   0.03472   0.03996   0.05112
  Beta virt. eigenvalues --    0.05453   0.05795   0.07256   0.07850   0.08016

 Mulliken charges and spin densities:
               1          2
     1  Cl   0.211023   0.004192
     2  C    1.227235   0.093194
     3  C   -0.466982   0.078967
     4  C   -1.172485   0.105614
     5  O   -0.417250   0.253537
     6  C    0.455988   0.081003
     7  C    0.653495   0.056297
     8  Cl   0.303415   0.004295
     9  C   -1.952298   0.069432
    10  O   -0.356756   0.252452
    11  Cl   0.305124   0.008203
    12  H    0.209491  -0.007184
 Sum of Mulliken charges =  -1.00000   1.00000

 Dipole moment (field-independent basis, Debye):
    X=             -1.4033    Y=              0.8072    Z=             -0.0428  Tot=              1.6194
 Quadrupole moment (field-independent basis, Debye-Ang):
   XX=            -94.6074   YY=           -125.8204   ZZ=            -85.5003
   XY=             -1.1262   XZ=             -0.1446   YZ=              0.8626

  Exact polarizability: 205.578  11.452 265.751   2.011  -3.762  85.439
 Approx polarizability: 210.711   6.201 313.176   1.992  -4.641  97.204

                      1                      2                      3
                      A                      A                      A
 Frequencies --     73.6829                90.7940               163.9924
 Red. masses --     21.1879                18.5666                11.0009
 Frc consts  --      0.0678                 0.0902                 0.1743
 IR Inten    --      5.3137                 2.5896                10.8012

                      4                      5                      6
                      A                      A                      A
 Frequencies --    198.0721               210.5517               257.5964
 Red. masses --     24.3978                30.0968                 7.1468
 Frc consts  --      0.5640                 0.7861                 0.2794
 IR Inten    --      1.3037                 0.6469                 0.0630

                      7                      8                      9
                      A                      A                      A
 Frequencies --    271.3270               315.5295               348.3897
 Red. masses --     18.4207                23.7679                19.1406
 Frc consts  --      0.7990                 1.3942                 1.3688
 IR Inten    --      0.6308                 0.1535                 3.5492

                     10                     11                     12
                      A                      A                      A
 Frequencies --    379.6943               390.7765               493.5264
 Red. masses --     10.1205                18.5762                14.1066
 Frc consts  --      0.8597                 1.6713                 2.0244
 IR Inten    --      0.0653                 2.0075                 0.0203

                     13                     14                     15
                      A                      A                      A
 Frequencies --    504.7389               585.2975               671.6777
 Red. masses --      5.8920                 9.1406                 7.3608
 Frc consts  --      0.8844                 1.8449                 1.9566
 IR Inten    --      0.7665                81.9533                16.5243

                     16                     17                     18
                      A                      A                      A
 Frequencies --    687.1676               765.5006               774.3280
 Red. masses --      5.7017                 7.3344                11.3232
 Frc consts  --      1.5863                 2.5323                 4.0001
 IR Inten    --      1.6753                 4.6203               131.3742

                     19                     20                     21
                      A                      A                      A
 Frequencies --    863.6496               871.7775               972.2454
 Red. masses --      1.5858                 9.6068                11.7463
 Frc consts  --      0.6969                 4.3017                 6.5419
 IR Inten    --     39.9033               243.5331                30.8667

                     22                     23                     24
                      A                      A                      A
 Frequencies --   1067.3284              1150.1025              1264.0515
 Red. masses --      3.5284                11.3859                 1.8869
 Frc consts  --      2.3682                 8.8734                 1.7763
 IR Inten    --    338.3169                68.0918                47.8234

                     25                     26                     27
                      A                      A                      A
 Frequencies --   1362.3711              1474.3238              1514.6882
 Red. masses --      6.0267                 9.1823                11.6697
 Frc consts  --      6.5905                11.7595                15.7745
 IR Inten    --     91.6799                 2.6629               720.1490

                     28                     29                     30
                      A                      A                      A
 Frequencies --   1532.0066              1613.1451              3194.9204
 Red. masses --     11.2616                 9.2931                 1.0919
 Frc consts  --     15.5730                14.2481                 6.5667
 IR Inten    --    571.1594                20.9753                 1.8035

 - Thermochemistry -
 -------------------
 Temperature   298.150 Kelvin.  Pressure   1.00000 Atm.
 Atom     1 has atomic number 17 and mass  34.96885

 Molecular mass:   209.90421 amu.
 Principal axes and moments of inertia in atomic units:
                           1         2         3
     Eigenvalues --  1710.907163214.023174924.93008
           X            0.85647  -0.51586  -0.01873
           Y            0.51618   0.85619   0.02209
           Z            0.00464  -0.02859   0.99958
 This molecule is an asymmetric top.
 Rotational symmetry number  1.
 Warning -- assumption of classical behavior for rotation
           may cause significant error
 Rotational temperatures (Kelvin)      0.05062     0.02695     0.01759
 Rotational constants (GHZ):           1.05484     0.56152     0.36645
 Zero-point vibrational energy     143930.2 (Joules/Mol)
                                   34.40015 (Kcal/Mol)
 Warning -- explicit consideration of  14 degrees of freedom as
           vibrations may cause significant error
 Vibrational temperatures:    106.01   130.63   235.95   284.98   302.94
          (Kelvin)            370.62   390.38   453.98   501.26   546.30
                              562.24   710.07   726.21   842.11   966.39
                              988.68  1101.38  1114.09  1242.60  1254.29
                             1398.84  1535.65  1654.74  1818.69  1960.15
                             2121.22  2179.30  2204.22  2320.96  4596.78

 Zero-point correction=                           0.054820 (Hartree/Particle)
 Thermal correction to Energy=                    0.064550
 Thermal correction to Enthalpy=                  0.065495
 Thermal correction to Gibbs Free Energy=         0.017630
 Sum of electronic and zero-point Energies=          -1760.539341
 Sum of electronic and thermal Energies=             -1760.529611
 Sum of electronic and thermal Enthalpies=           -1760.528667
 Sum of electronic and thermal Free Energies=        -1760.576532

                     E (Thermal)             CV                S
                      KCal/Mol        Cal/Mol-Kelvin    Cal/Mol-Kelvin
 Total                   40.506             34.454            100.740
 Electronic               0.000              0.000              1.377
 Translational            0.889              2.981             41.928
 Rotational               0.889              2.981             31.671
 Vibrational             38.729             28.493             25.763
 Vibration     1          0.599              1.966              4.052
 Vibration     2          0.602              1.956              3.643
 Vibration     3          0.623              1.887              2.503
 Vibration     4          0.637              1.843              2.151
 Vibration     5          0.643              1.825              2.039
 Vibration     6          0.667              1.750              1.678
 Vibration     7          0.675              1.726              1.588
 Vibration     8          0.703              1.644              1.333
 Vibration     9          0.726              1.579              1.173
 Vibration    10          0.750              1.513              1.040
 Vibration    11          0.758              1.490              0.997
 Vibration    12          0.849              1.264              0.675
 Vibration    13          0.860              1.239              0.646
 Vibration    14          0.942              1.063              0.476

 Optimization completed.
    -- Stationary point found.
 Normal termination of Gaussian 16 at Sat Feb 10 10:21:08 2024.
