 Q-Chem 5.4, Q-Chem, Inc., Pleasanton, CA (2021)
 Q-Chem 5.4.0 for Intel X86 EM64T Linux

User input:
--------------------------------------------------------------
$molecule
-2 1
C                 -3.4415970000     -2.7536440000     -0.3532310000
O                 -2.1596400000     -2.2348370000     -0.1924180000
C                 -2.0038290000     -0.8478990000     -0.2019930000
C                 -3.0865460000     -0.0074970000     -0.3614360000
C                 -2.9358910000      1.4015920000     -0.3718990000
C                 -1.6921310000      2.0114230000     -0.2224170000
O                 -1.5451550000      3.3137540000     -0.2309510000
C                 -0.5243780000      1.1243450000     -0.0512740000
C                  0.7495870000      1.7255960000      0.1014750000
O                  0.8926280000      3.0955720000      0.0903750000
C                  1.8936150000      0.9360700000      0.2672110000
C                  3.1946280000      1.5118480000      0.4240900000
C                  4.3136950000      0.7286290000      0.5863430000
C                  4.1999770000     -0.6906770000      0.6018660000
C                  2.9506850000     -1.2674220000      0.4518210000
C                  1.7774990000     -0.5031060000      0.2830160000
C                  0.4959290000     -1.1923210000      0.1313980000
O                  0.4541080000     -2.4605490000      0.1534860000
C                 -0.6718320000     -0.3234480000     -0.0394320000
H                 -3.3349690000     -3.8425980000     -0.3172110000
H                 -4.1343600000     -2.4379660000      0.4467750000
H                 -3.8983690000     -2.4730090000     -1.3186980000
H                 -4.0840830000     -0.4147000000     -0.4829920000
H                 -3.8046100000      2.0430010000     -0.4992760000
H                 -0.0715500000      3.4237020000     -0.0421990000
H                  3.2698280000      2.5937930000      0.4107970000
H                  5.2905250000      1.1963630000      0.7034200000
H                  5.0849870000     -1.3105830000      0.7301990000
H                  2.8212480000     -2.3454300000      0.4580660000
$end
$rem
MAX_SCF_CYCLES=200
BASIS  =  6-311++G(d,p)
GUI  =  2
JOB_TYPE  =  SP
METHOD  =  B3LYP
SOLVENT_METHOD = COSMO
$end
$solvent
dielectric 37.219
opticaldielectric 1.43
$end

--------------------------------------------------------------

             Standard Nuclear Orientation (Angstroms)
    I     Atom           X                Y                Z
 ----------------------------------------------------------------
    1      C       4.0313600724     2.1802613390    -0.0032615262
    2      O       2.6636765957     1.9197704317     0.0013934653
    3      C       2.2463070932     0.5879415343     0.0008930315
    4      C       3.1583293260    -0.4475240091     0.0003936355
    5      C       2.7418268968    -1.8020954829     0.0001443699
    6      C       1.3952106846    -2.1595900409     0.0004138083
    7      O       1.0025935268    -3.4100269901     0.0003102964
    8      C       0.4079409010    -1.0618001105     0.0005428745
    9      C      -0.9668333435    -1.4050453418    -0.0000324464
   10      O      -1.3683191670    -2.7227049322    -0.0007506927
   11      C      -1.9491094499    -0.4076720775    -0.0001490701
   12      C      -3.3458238541    -0.7206493351    -0.0006603741
   13      C      -4.3045836155     0.2656815746    -0.0008718067
   14      C      -3.9226987654     1.6374563932    -0.0005941020
   15      C      -2.5769932348     1.9614241141    -0.0000119266
   16      C      -1.5611015420     0.9831585893     0.0003008037
   17      C      -0.1621376431     1.4113248145     0.0011328146
   18      O       0.1198744395     2.6487042532     0.0018005101
   19      C       0.8286041434     0.3314083342     0.0009327545
   20      H       4.1326386375     3.2703207661    -0.0042010405
   21      H       4.5468261038     1.7764478411     0.8860146982
   22      H       4.5406723635     1.7752374617    -0.8954945901
   23      H       4.2228071435    -0.2412301295     0.0002454968
   24      H       3.4798487062    -2.6006107423    -0.0003995405
   25      H      -0.4764450651    -3.2320623320    -0.0006898866
   26      H      -3.6255729574    -1.7685888065    -0.0008346361
   27      H      -5.3599971858    -0.0040980469    -0.0012168663
   28      H      -4.6808360919     2.4179839557    -0.0007561380
   29      H      -2.2443308296     2.9949761600     0.0002668277
 ----------------------------------------------------------------

   11    -878.7444996790      7.81e-06  Convergence criterion met
 Total energy in the final basis set =     -878.7444996790
    6    -879.0163023156      3.13e-06  Convergence criterion met
 Total energy in the final basis set =     -879.0163023156

                    Orbital Energies (a.u.)
 --------------------------------------------------------------

 Alpha MOs
 -- Occupied --
-19.1270 -19.0953 -19.0506 -19.0332 -10.2017 -10.2016 -10.1981 -10.1953
-10.1887 -10.1580 -10.1556 -10.1547 -10.1533 -10.1532 -10.1526 -10.1524
-10.1451 -10.1422 -10.1297  -1.0430  -1.0129  -0.9594  -0.9569  -0.8384
 -0.8133  -0.7647  -0.7342  -0.7216  -0.7117  -0.6690  -0.6471  -0.6104
 -0.6022  -0.5557  -0.5458  -0.5145  -0.5138  -0.4866  -0.4674  -0.4511
 -0.4491  -0.4405  -0.4254  -0.4198  -0.4089  -0.4043  -0.4004  -0.3884
 -0.3762  -0.3648  -0.3630  -0.3606  -0.3540  -0.3424  -0.3266  -0.3258
 -0.3164  -0.3149  -0.3115  -0.2688  -0.2506  -0.2381  -0.2284  -0.2237
 -0.2024  -0.1796  -0.1221

          Ground-State Mulliken Net Atomic Charges

     Atom                 Charge (a.u.)
  ----------------------------------------
      1 C                    -0.286175
      2 O                    -0.191290
      3 C                    -0.310279
      4 C                    -0.169444
      5 C                    -0.303136
      6 C                    -0.450848
      7 O                    -0.702700
      8 C                     0.695292
      9 C                     0.102990
     10 O                    -0.552866
     11 C                     0.194592
     12 C                    -0.196888
     13 C                    -0.511341
     14 C                    -0.555275
     15 C                    -0.037038
     16 C                    -0.029094
     17 C                    -0.202707
     18 O                    -0.645315
     19 C                     0.185320
     20 H                     0.194680
     21 H                     0.146942
     22 H                     0.147107
     23 H                     0.195327
     24 H                     0.163762
     25 H                     0.424321
     26 H                     0.166494
     27 H                     0.185419
     28 H                     0.185420
     29 H                     0.156730
  ----------------------------------------
  Sum of atomic charges =    -2.000000

                    Cartesian Multipole Moments
 -----------------------------------------------------------------
    Charge (ESU x 10^10)
                -9.6064
    Dipole Moment (Debye)
         X       0.6819      Y       4.1993      Z      -0.0123
       Tot       4.2543
    Quadrupole Moments (Debye-Ang)
        XX    -129.5045     XY       7.6687     YY    -184.3787
        XZ      -0.0326     YZ      -0.0287     ZZ    -122.4157

 Total job time:  84.85s(wall), 653.93s(cpu)
        *  Thank you very much for using Q-Chem.  Have a nice day.  *
