 Gaussian 16, Revision A.03,
 Gaussian 16:  ES64L-G16RevA.03 25-Dec-2016

 ----------------------------------------------------------------------
 #P UB3LYP/6-311++G(d,p) nosym opt freq SCRF=(PCM,Solvent=n,n-DiMethylF
 ormamide)
 ----------------------------------------------------------------------

 -------
 Radical
 -------
 Symbolic Z-matrix:
 Charge = -1 Multiplicity = 2

 SCF Done:  E(UB3LYP) =  -573.743668333     A.U. after   19 cycles
 SCF Done:  E(UB3LYP) =  -573.744029868     A.U. after   14 cycles
 SCF Done:  E(UB3LYP) =  -573.743527288     A.U. after   16 cycles
 SCF Done:  E(UB3LYP) =  -573.744093833     A.U. after   15 cycles
 SCF Done:  E(UB3LYP) =  -573.744111174     A.U. after   14 cycles
 SCF Done:  E(UB3LYP) =  -573.744115822     A.U. after   13 cycles
 SCF Done:  E(UB3LYP) =  -573.744116290     A.U. after   11 cycles
 Optimization completed.
    -- Stationary point found.
 Normal termination of Gaussian 16 at Sat Feb 10 10:30:13 2024.

 ----------------------------------------------------------------------
 #P Geom=AllCheck Guess=TCheck SCRF=Check GenChk UB3LYP/6-311++G(d,p) F
 req
 ----------------------------------------------------------------------

 Structure from the checkpoint file:  "059-rad.chk"
 -------
 Radical
 -------
 Charge = -1 Multiplicity = 2

                          Input orientation:
 ---------------------------------------------------------------------
 Center     Atomic      Atomic             Coordinates (Angstroms)
 Number     Number       Type             X           Y           Z
 ---------------------------------------------------------------------
      1          6           0       -0.503986    1.163326   -0.352528
      2          6           0       -1.470305    0.145948   -0.800838
      3          6           0       -1.293261   -1.173002   -0.502291
      4          6           0       -0.162686   -1.662592    0.257474
      5          6           0        0.776821   -0.671327    0.696090
      6          6           0        0.634120    0.686077    0.441393
      7          8           0       -0.671632    2.361183   -0.688546
      8          8           0       -0.014951   -2.897619    0.522730
      9          6           0        1.637904    1.630004    0.994981
     10          6           0        3.008782    1.083968    1.376528
     11          8           0        1.408651    2.822849    1.175311
     12          1           0        3.426590    0.439736    0.600254
     13          1           0        2.942811    0.492606    2.295140
     14          1           0        3.677142    1.924824    1.559161
     15          1           0        1.616135   -1.038882    1.274815
     16          6           0       -2.646887    0.622024   -1.608172
     17          1           0       -2.013433   -1.913328   -0.841193
     18          1           0       -3.235921    1.356866   -1.050932
     19          1           0       -3.296390   -0.212189   -1.880015
     20          1           0       -2.318353    1.122186   -2.524392
 ---------------------------------------------------------------------

 SCF Done:  E(UB3LYP) =  -573.744116290     A.U. after    2 cycles

 Alpha  occ. eigenvalues --  -19.10416 -19.08187 -19.08158 -10.25759 -10.23137
 Alpha  occ. eigenvalues --  -10.22290 -10.17959 -10.17610 -10.17268 -10.16569
 Alpha  occ. eigenvalues --  -10.16467 -10.15983  -1.03577  -1.00554  -0.99862
 Alpha  occ. eigenvalues --   -0.83383  -0.78429  -0.73378  -0.70263  -0.67151
 Alpha  occ. eigenvalues --   -0.62038  -0.56372  -0.52674  -0.48908  -0.47447
 Alpha  occ. eigenvalues --   -0.45877  -0.44312  -0.42487  -0.42359  -0.42128
 Alpha  occ. eigenvalues --   -0.40563  -0.39301  -0.39204  -0.38627  -0.37582
 Alpha  occ. eigenvalues --   -0.36630  -0.36417  -0.35260  -0.28565  -0.26749
 Alpha  occ. eigenvalues --   -0.25883  -0.24695  -0.22707  -0.16925
 Alpha virt. eigenvalues --   -0.05226  -0.00248   0.00677   0.01195   0.01740
 Alpha virt. eigenvalues --    0.02659   0.03072   0.03659   0.04460   0.04702
 Alpha virt. eigenvalues --    0.05160   0.05867   0.06257   0.07391   0.07594

  Beta  occ. eigenvalues --  -19.10331 -19.07577 -19.07436 -10.25753 -10.23050
  Beta  occ. eigenvalues --  -10.22173 -10.17842 -10.17502 -10.17010 -10.16564
  Beta  occ. eigenvalues --  -10.16469 -10.15991  -1.03404  -0.99565  -0.98539
  Beta  occ. eigenvalues --   -0.82804  -0.78186  -0.73190  -0.69893  -0.66405
  Beta  occ. eigenvalues --   -0.61703  -0.56004  -0.52422  -0.48696  -0.47148
  Beta  occ. eigenvalues --   -0.45660  -0.43937  -0.42197  -0.41983  -0.41787
  Beta  occ. eigenvalues --   -0.40054  -0.39087  -0.38555  -0.37821  -0.36415
  Beta  occ. eigenvalues --   -0.36371  -0.35402  -0.34286  -0.26463  -0.25461
  Beta  occ. eigenvalues --   -0.24940  -0.24009  -0.22288
  Beta virt. eigenvalues --   -0.09904  -0.04003  -0.00224   0.00686   0.01771
  Beta virt. eigenvalues --    0.02576   0.03033   0.03114   0.03679   0.04753
  Beta virt. eigenvalues --    0.04973   0.05778   0.05888   0.06301   0.07421

 Mulliken charges and spin densities:
               1          2
     1  C   -1.589691  -0.003426
     2  C    1.310892   0.092025
     3  C   -0.477352  -0.011527
     4  C   -0.354024   0.133403
     5  C   -0.682482   0.183316
     6  C    1.613739   0.082152
     7  O   -0.421966   0.216608
     8  O   -0.495089   0.264235
     9  C    0.088550   0.016649
    10  C   -0.606470   0.002278
    11  O   -0.361876   0.030971
    12  H    0.161423  -0.000281
    13  H    0.179792   0.000593
    14  H    0.184380  -0.000276
    15  H    0.179566  -0.012724
    16  C   -0.379727  -0.000098
    17  H    0.164622  -0.002219
    18  H    0.167749   0.003938
    19  H    0.148894  -0.000297
    20  H    0.169068   0.004682
 Sum of Mulliken charges =  -1.00000   1.00000

 Dipole moment (field-independent basis, Debye):
    X=              0.5410    Y=             -2.6889    Z=             -1.2311  Tot=              3.0065
 Quadrupole moment (field-independent basis, Debye-Ang):
   XX=            -68.2968   YY=           -126.7533   ZZ=            -74.8016
   XY=             -1.3667   XZ=              0.7553   YZ=              2.3005

  Exact polarizability: 180.593   7.563 274.872  49.153 -13.902 131.304
 Approx polarizability: 179.169  -2.800 319.113  42.237 -21.949 142.546

                      1                      2                      3
                      A                      A                      A
 Frequencies --     47.3835                74.3243               145.1413
 Red. masses --      4.0067                 6.6097                 3.4475
 Frc consts  --      0.0053                 0.0215                 0.0428
 IR Inten    --     16.4000                 6.7158                 7.4696

                      4                      5                      6
                      A                      A                      A
 Frequencies --    148.2621               157.7133               189.9956
 Red. masses --      1.1184                 1.2703                 5.2883
 Frc consts  --      0.0145                 0.0186                 0.1125
 IR Inten    --      1.6525                 3.6895                 7.9719

                      7                      8                      9
                      A                      A                      A
 Frequencies --    202.8906               294.6737               331.4012
 Red. masses --      2.6571                 3.3539                 5.0849
 Frc consts  --      0.0644                 0.1716                 0.3290
 IR Inten    --      0.1405                 1.7053                11.1233

                     10                     11                     12
                      A                      A                      A
 Frequencies --    334.9422               390.8369               413.0347
 Red. masses --      6.1924                 4.6428                 7.5096
 Frc consts  --      0.4093                 0.4179                 0.7548
 IR Inten    --      0.8420                 2.9047                27.8813

                     13                     14                     15
                      A                      A                      A
 Frequencies --    449.7412               472.5726               522.4558
 Red. masses --      4.5415                 7.6863                 5.8168
 Frc consts  --      0.5412                 1.0114                 0.9355
 IR Inten    --      2.5615                 0.8176                 7.4992

                     16                     17                     18
                      A                      A                      A
 Frequencies --    578.5128               602.7312               651.4384
 Red. masses --      2.9519                 3.4175                 2.8678
 Frc consts  --      0.5821                 0.7315                 0.7170
 IR Inten    --      2.1697                24.6450                 0.2306

                     19                     20                     21
                      A                      A                      A
 Frequencies --    656.4646               774.0983               803.2455
 Red. masses --      4.1259                 5.4731                 5.1403
 Frc consts  --      1.0476                 1.9323                 1.9540
 IR Inten    --     14.2983                11.8686                49.9665

                     22                     23                     24
                      A                      A                      A
 Frequencies --    857.6791               867.1872               895.8946
 Red. masses --      4.9525                 1.4920                 1.5533
 Frc consts  --      2.1465                 0.6610                 0.7345
 IR Inten    --     15.0362                10.3204                54.2733

                     25                     26                     27
                      A                      A                      A
 Frequencies --    946.5658               992.9574              1022.3244
 Red. masses --      2.5478                 2.4555                 1.6529
 Frc consts  --      1.3450                 1.4264                 1.0178
 IR Inten    --     80.5820                67.0621                65.2062

                     28                     29                     30
                      A                      A                      A
 Frequencies --   1034.1027              1051.8954              1112.9863
 Red. masses --      1.8993                 1.5224                 2.5778
 Frc consts  --      1.1967                 0.9925                 1.8814
 IR Inten    --      3.0799                 2.8893                25.2605

                     31                     32                     33
                      A                      A                      A
 Frequencies --   1189.3602              1236.4860              1279.2037
 Red. masses --      3.0819                 1.9707                 2.5644
 Frc consts  --      2.5686                 1.7752                 2.4724
 IR Inten    --    147.8043               349.9951                10.5927

                     34                     35                     36
                      A                      A                      A
 Frequencies --   1337.1785              1378.5033              1399.6399
 Red. masses --      2.1839                 1.3412                 1.4709
 Frc consts  --      2.3007                 1.5016                 1.6978
 IR Inten    --    103.2101                62.1801                34.5072

                     37                     38                     39
                      A                      A                      A
 Frequencies --   1412.6916              1456.9605              1460.6104
 Red. masses --      3.8766                 3.7829                 1.0467
 Frc consts  --      4.5582                 4.7312                 1.3157
 IR Inten    --      5.1087               409.0134                10.4091

                     40                     41                     42
                      A                      A                      A
 Frequencies --   1464.3291              1469.9850              1471.2255
 Red. masses --      1.0935                 1.0811                 1.3290
 Frc consts  --      1.3815                 1.3764                 1.6949
 IR Inten    --     11.2141                12.7372                75.2286

                     43                     44                     45
                      A                      A                      A
 Frequencies --   1509.9082              1545.9602              1639.9606
 Red. masses --      4.4813                 6.5756                 6.4124
 Frc consts  --      6.0194                 9.2594                10.1610
 IR Inten    --    798.4466                91.0926               220.1918

                     46                     47                     48
                      A                      A                      A
 Frequencies --   1678.2486              3023.3094              3034.5316
 Red. masses --     10.0747                 1.0360                 1.0384
 Frc consts  --     16.7185                 5.5795                 5.6335
 IR Inten    --    755.0692                56.2818                 5.6632

                     49                     50                     51
                      A                      A                      A
 Frequencies --   3068.9397              3096.2623              3103.0228
 Red. masses --      1.0992                 1.0970                 1.1020
 Frc consts  --      6.0994                 6.1963                 6.2520
 IR Inten    --     29.9365                15.0814                31.0708

                     52                     53                     54
                      A                      A                      A
 Frequencies --   3133.1802              3143.9451              3180.6464
 Red. masses --      1.1033                 1.0901                 1.0887
 Frc consts  --      6.3814                 6.3486                 6.4891
 IR Inten    --     28.2013                42.3665                15.8259

 - Thermochemistry -
 -------------------
 Temperature   298.150 Kelvin.  Pressure   1.00000 Atm.
 Atom     1 has atomic number  6 and mass  12.00000

 Molecular mass:   164.04734 amu.
 Principal axes and moments of inertia in atomic units:
                           1         2         3
     Eigenvalues --  1449.268132154.686743540.32842
           X            0.70255  -0.49299  -0.51320
           Y            0.61418   0.78432   0.08735
           Z            0.35946  -0.37656   0.85381
 This molecule is an asymmetric top.
 Rotational symmetry number  1.
 Warning -- assumption of classical behavior for rotation
           may cause significant error
 Rotational temperatures (Kelvin)      0.05976     0.04020     0.02446
 Rotational constants (GHZ):           1.24528     0.83759     0.50977
 Zero-point vibrational energy     387216.5 (Joules/Mol)
                                   92.54696 (Kcal/Mol)
 Warning -- explicit consideration of  17 degrees of freedom as
           vibrations may cause significant error
 Vibrational temperatures:     68.17   106.94   208.83   213.32   226.91
          (Kelvin)            273.36   291.91   423.97   476.81   481.91
                              562.33   594.26   647.08   679.93   751.70
                              832.35   867.20   937.27   944.51  1113.75
                             1155.69  1234.01  1247.69  1288.99  1361.90
                             1428.64  1470.90  1487.84  1513.44  1601.34
                             1711.22  1779.03  1840.49  1923.90  1983.36
                             2013.77  2032.55  2096.24  2101.49  2106.84
                             2114.98  2116.77  2172.42  2224.29  2359.54
                             2414.63  4349.87  4366.01  4415.52  4454.83
                             4464.56  4507.95  4523.44  4576.24

 Zero-point correction=                           0.147483 (Hartree/Particle)
 Thermal correction to Energy=                    0.158782
 Thermal correction to Enthalpy=                  0.159726
 Thermal correction to Gibbs Free Energy=         0.109363
 Sum of electronic and zero-point Energies=           -573.596633
 Sum of electronic and thermal Energies=              -573.585334
 Sum of electronic and thermal Enthalpies=            -573.584390
 Sum of electronic and thermal Free Energies=         -573.634754

                     E (Thermal)             CV                S
                      KCal/Mol        Cal/Mol-Kelvin    Cal/Mol-Kelvin
 Total                   99.637             41.667            105.999
 Electronic               0.000              0.000              1.377
 Translational            0.889              2.981             41.193
 Rotational               0.889              2.981             30.781
 Vibrational             97.860             35.706             32.647
 Vibration     1          0.595              1.979              4.924
 Vibration     2          0.599              1.966              4.035
 Vibration     3          0.617              1.908              2.735
 Vibration     4          0.618              1.905              2.694
 Vibration     5          0.621              1.894              2.577
 Vibration     6          0.633              1.854              2.228
 Vibration     7          0.639              1.836              2.107
 Vibration     8          0.689              1.684              1.447
 Vibration     9          0.714              1.613              1.253
 Vibration    10          0.716              1.606              1.236
 Vibration    11          0.759              1.490              0.997
 Vibration    12          0.777              1.442              0.916
 Vibration    13          0.809              1.361              0.797
 Vibration    14          0.829              1.311              0.730
 Vibration    15          0.877              1.200              0.604
 Vibration    16          0.935              1.078              0.488
 Vibration    17          0.961              1.026              0.445

                           ! Non-Optimized Parameters !
 Normal termination of Gaussian 16 at Sat Feb 10 10:54:47 2024.
