 Q-Chem 5.4, Q-Chem, Inc., Pleasanton, CA (2021)
 Q-Chem 5.4.0 for Intel X86 EM64T Linux

User input:
--------------------------------------------------------------
$molecule
0 1
O                 -0.1318410000      0.0728710000      2.2362150000
C                 -0.4905000000      0.3568560000      1.1082430000
C                 -1.8341810000      0.0138350000      0.5718600000
C                 -2.7286760000     -0.6655840000      1.4130200000
C                 -3.9825610000     -1.0368410000      0.9471990000
C                 -4.3557680000     -0.7375410000     -0.3653900000
C                 -3.4722810000     -0.0655930000     -1.2082750000
C                 -2.2151760000      0.3116950000     -0.7439810000
C                  0.4833620000      1.1800340000      0.2385430000
O                  0.1206260000      2.2868500000     -0.1149970000
C                  1.8312590000      0.6307720000     -0.0652010000
C                  2.7241500000      1.4330120000     -0.7921560000
C                  3.9818870000      0.9518520000     -1.1292030000
C                  4.3606690000     -0.3376190000     -0.7476590000
C                  3.4789430000     -1.1419000000     -0.0277890000
C                  2.2179430000     -0.6619110000      0.3153280000
H                 -2.4187080000     -0.8900960000      2.4264400000
H                 -4.6713180000     -1.5586790000      1.6016850000
H                 -5.3352770000     -1.0277740000     -0.7289580000
H                 -3.7639420000      0.1696890000     -2.2252500000
H                 -1.5415640000      0.8496880000     -1.3981610000
H                  2.4098530000      2.4288570000     -1.0802850000
H                  4.6693060000      1.5764030000     -1.6881660000
H                  5.3431640000     -0.7132220000     -1.0112460000
H                  3.7749520000     -2.1406810000      0.2713160000
H                  1.5456790000     -1.2849720000      0.8906530000
$end
$rem
MAX_SCF_CYCLES=200
BASIS  =  6-311++G(d,p)
GUI  =  2
JOB_TYPE  =  SP
METHOD  =  B3LYP
SOLVENT_METHOD = PCM
$end
$pcm
theory = CPCM
$end
$solvent
dielectric 37.219
opticaldielectric 1.43
$end

--------------------------------------------------------------

             Standard Nuclear Orientation (Angstroms)
    I     Atom           X                Y                Z
 ----------------------------------------------------------------
    1      O      -0.1318410000     0.0728710000     2.2362150000
    2      C      -0.4905000000     0.3568560000     1.1082430000
    3      C      -1.8341810000     0.0138350000     0.5718600000
    4      C      -2.7286760000    -0.6655840000     1.4130200000
    5      C      -3.9825610000    -1.0368410000     0.9471990000
    6      C      -4.3557680000    -0.7375410000    -0.3653900000
    7      C      -3.4722810000    -0.0655930000    -1.2082750000
    8      C      -2.2151760000     0.3116950000    -0.7439810000
    9      C       0.4833620000     1.1800340000     0.2385430000
   10      O       0.1206260000     2.2868500000    -0.1149970000
   11      C       1.8312590000     0.6307720000    -0.0652010000
   12      C       2.7241500000     1.4330120000    -0.7921560000
   13      C       3.9818870000     0.9518520000    -1.1292030000
   14      C       4.3606690000    -0.3376190000    -0.7476590000
   15      C       3.4789430000    -1.1419000000    -0.0277890000
   16      C       2.2179430000    -0.6619110000     0.3153280000
   17      H      -2.4187080000    -0.8900960000     2.4264400000
   18      H      -4.6713180000    -1.5586790000     1.6016850000
   19      H      -5.3352770000    -1.0277740000    -0.7289580000
   20      H      -3.7639420000     0.1696890000    -2.2252500000
   21      H      -1.5415640000     0.8496880000    -1.3981610000
   22      H       2.4098530000     2.4288570000    -1.0802850000
   23      H       4.6693060000     1.5764030000    -1.6881660000
   24      H       5.3431640000    -0.7132220000    -1.0112460000
   25      H       3.7749520000    -2.1406810000     0.2713160000
   26      H       1.5456790000    -1.2849720000     0.8906530000
 ----------------------------------------------------------------

    8    -690.1502079027      6.54e-06  Convergence criterion met
 Total energy in the final basis set =     -690.1502079027

                    Orbital Energies (a.u.)
 --------------------------------------------------------------

 Alpha MOs
 -- Occupied --
-19.1427 -19.1427 -10.2880 -10.2878 -10.2027 -10.2027 -10.1966 -10.1966
-10.1939 -10.1939 -10.1935 -10.1935 -10.1889 -10.1889 -10.1887 -10.1887
 -1.0861  -1.0668  -0.8783  -0.8782  -0.7868  -0.7797  -0.7662  -0.7655
 -0.6967  -0.6494  -0.6290  -0.6220  -0.6013  -0.5647  -0.5431  -0.5128
 -0.4993  -0.4824  -0.4754  -0.4671  -0.4591  -0.4568  -0.4474  -0.4404
 -0.4392  -0.4253  -0.4147  -0.3828  -0.3768  -0.3755  -0.3743  -0.3603
 -0.3597  -0.3301  -0.2822  -0.2752  -0.2741  -0.2738  -0.2592

          Ground-State Mulliken Net Atomic Charges

     Atom                 Charge (a.u.)
  ----------------------------------------
      1 O                    -0.268031
      2 C                    -0.174316
      3 C                     1.235812
      4 C                     0.478964
      5 C                    -0.515955
      6 C                    -0.292780
      7 C                    -0.526846
      8 C                    -1.003447
      9 C                    -0.177127
     10 O                    -0.268293
     11 C                     1.236303
     12 C                     0.477463
     13 C                    -0.515982
     14 C                    -0.293124
     15 C                    -0.526232
     16 C                    -1.001985
     17 H                     0.219554
     18 H                     0.221152
     19 H                     0.206038
     20 H                     0.233317
     21 H                     0.187690
     22 H                     0.219592
     23 H                     0.221201
     24 H                     0.205995
     25 H                     0.233359
     26 H                     0.187677
  ----------------------------------------
  Sum of atomic charges =     0.000000

                    Cartesian Multipole Moments
 -----------------------------------------------------------------
    Charge (ESU x 10^10)
                -0.0000
    Dipole Moment (Debye)
         X       0.0176      Y      -3.5290      Z      -3.3216
       Tot       4.8464
    Quadrupole Moments (Debye-Ang)
        XX     -61.6442     XY       3.5079     YY     -96.6052
        XZ      -3.5419     YZ      -4.7220     ZZ     -95.6888

 Total job time:  33.61s(wall), 247.68s(cpu)
        *  Thank you very much for using Q-Chem.  Have a nice day.  *
