 Gaussian 16, Revision A.03,
 Gaussian 16:  ES64L-G16RevA.03 25-Dec-2016

 ----------------------------------------------------------------
 #P UB3LYP/6-311++G(d,p) SCRF=(PCM,Solvent=n,n-DiMethylFormamide)
 ----------------------------------------------------------------

 ------------------
 Quinone PCM in DMF
 ------------------
 Symbolic Z-matrix:
 Charge =  0 Multiplicity = 1

                         Standard orientation:
 ---------------------------------------------------------------------
 Center     Atomic      Atomic             Coordinates (Angstroms)
 Number     Number       Type             X           Y           Z
 ---------------------------------------------------------------------
      1          6           0       -5.009380   -0.682332   -0.292621
      2          6           0       -3.651876   -0.737747    0.339148
      3          8           0       -3.378817   -0.565830    1.492175
      4          8           0       -2.696946   -1.039949   -0.616866
      5          6           0       -1.362341   -0.949930   -0.273293
      6          6           0       -0.677208   -2.152919   -0.136947
      7          6           0        0.678349   -2.152586    0.136245
      8          6           0        1.362656   -0.949234    0.273314
      9          8           0        2.697201   -1.038399    0.617613
     10          6           0        3.652287   -0.737688   -0.338512
     11          6           0        5.009761   -0.681701    0.293322
     12          8           0        3.379556   -0.567042   -1.491847
     13          6           0        0.697051    0.278791    0.140103
     14          6           0        1.425427    1.576590    0.306474
     15          8           0        2.617568    1.649769    0.559816
     16          6           0        0.650363    2.825923    0.148229
     17          6           0       -0.651799    2.825561   -0.149163
     18          6           0       -1.426265    1.575813   -0.306925
     19          8           0       -2.618452    1.648311   -0.560333
     20          6           0       -0.697343    0.278444   -0.140042
     21          1           0       -5.772285   -0.681254    0.483075
     22          1           0       -5.072143    0.241603   -0.872878
     23          1           0       -5.154682   -1.519965   -0.976364
     24          1           0       -1.226492   -3.079040   -0.250925
     25          1           0        1.228137   -3.078444    0.249915
     26          1           0        5.154323   -1.517471    0.979487
     27          1           0        5.073298    0.243879    0.870879
     28          1           0        5.772729   -0.683466   -0.482309
     29          1           0        1.220685    3.739029    0.277488
     30          1           0       -1.222545    3.738341   -0.278833
 ---------------------------------------------------------------------

 SCF Done:  E(UB3LYP) =  -991.151324315     A.U. after   15 cycles

 The electronic state is 1-A.
 Alpha  occ. eigenvalues --  -19.19258 -19.19257 -19.14406 -19.14405 -19.13789
 Alpha  occ. eigenvalues --  -19.13787 -10.32883 -10.32882 -10.29619 -10.29618
 Alpha  occ. eigenvalues --  -10.27557 -10.27556 -10.23081 -10.23036 -10.21715
 Alpha  occ. eigenvalues --  -10.21631 -10.21326 -10.21267 -10.18576 -10.18576
 Alpha  occ. eigenvalues --   -1.13722  -1.13678  -1.07846  -1.07671  -1.05669
 Alpha  occ. eigenvalues --   -1.05615  -0.90538  -0.85182  -0.81095  -0.79572
 Alpha  occ. eigenvalues --   -0.77439  -0.75069  -0.71464  -0.68075  -0.66928
 Alpha  occ. eigenvalues --   -0.64411  -0.62165  -0.56198  -0.55435  -0.54806
 Alpha  occ. eigenvalues --   -0.52260  -0.51455  -0.50982  -0.50706  -0.50561
 Alpha  occ. eigenvalues --   -0.49733  -0.49006  -0.46804  -0.46618  -0.46275
 Alpha  occ. eigenvalues --   -0.46053  -0.43887  -0.43870  -0.43169  -0.42962
 Alpha  occ. eigenvalues --   -0.42285  -0.41566  -0.41204  -0.40211  -0.39577
 Alpha  occ. eigenvalues --   -0.39550  -0.38100  -0.34851  -0.34529  -0.31554
 Alpha  occ. eigenvalues --   -0.30980  -0.30869  -0.29679  -0.29527  -0.28225
 Alpha  occ. eigenvalues --   -0.27616
 Alpha virt. eigenvalues --   -0.13639  -0.06703  -0.04829  -0.01856  -0.01688
 Alpha virt. eigenvalues --   -0.00631  -0.00031   0.00593   0.01258   0.01276
 Alpha virt. eigenvalues --    0.02619   0.02648   0.03206   0.03672   0.03715

  Beta  occ. eigenvalues --  -19.19258 -19.19257 -19.14406 -19.14405 -19.13789
  Beta  occ. eigenvalues --  -19.13787 -10.32883 -10.32882 -10.29619 -10.29618
  Beta  occ. eigenvalues --  -10.27557 -10.27556 -10.23081 -10.23036 -10.21715
  Beta  occ. eigenvalues --  -10.21631 -10.21326 -10.21267 -10.18576 -10.18576
  Beta  occ. eigenvalues --   -1.13722  -1.13678  -1.07846  -1.07671  -1.05669
  Beta  occ. eigenvalues --   -1.05615  -0.90538  -0.85182  -0.81095  -0.79572
  Beta  occ. eigenvalues --   -0.77439  -0.75069  -0.71464  -0.68075  -0.66928
  Beta  occ. eigenvalues --   -0.64411  -0.62165  -0.56198  -0.55435  -0.54806
  Beta  occ. eigenvalues --   -0.52260  -0.51455  -0.50982  -0.50706  -0.50561
  Beta  occ. eigenvalues --   -0.49733  -0.49006  -0.46804  -0.46618  -0.46275
  Beta  occ. eigenvalues --   -0.46053  -0.43887  -0.43870  -0.43169  -0.42962
  Beta  occ. eigenvalues --   -0.42285  -0.41566  -0.41204  -0.40211  -0.39577
  Beta  occ. eigenvalues --   -0.39550  -0.38100  -0.34851  -0.34529  -0.31554
  Beta  occ. eigenvalues --   -0.30980  -0.30869  -0.29679  -0.29527  -0.28225
  Beta  occ. eigenvalues --   -0.27616
  Beta virt. eigenvalues --   -0.13639  -0.06703  -0.04829  -0.01856  -0.01688
  Beta virt. eigenvalues --   -0.00631  -0.00031   0.00593   0.01258   0.01276
  Beta virt. eigenvalues --    0.02619   0.02648   0.03206   0.03672   0.03715

 Mulliken charges and spin densities:
               1          2
     1  C   -0.492652   0.000000
     2  C    0.032655  -0.000000
     3  O   -0.250595   0.000000
     4  O    0.002990  -0.000000
     5  C   -0.323701  -0.000000
     6  C    0.078216   0.000000
     7  C    0.078821   0.000000
     8  C   -0.324435  -0.000000
     9  O    0.003365  -0.000000
    10  C    0.032701   0.000000
    11  C   -0.492904  -0.000000
    12  O   -0.250645  -0.000000
    13  C    0.424470  -0.000000
    14  C   -0.199329   0.000000
    15  O   -0.265705  -0.000000
    16  C   -0.050403   0.000000
    17  C   -0.050217  -0.000000
    18  C   -0.199369   0.000000
    19  O   -0.265641  -0.000000
    20  C    0.424710   0.000000
    21  H    0.175968  -0.000000
    22  H    0.202806  -0.000000
    23  H    0.186046   0.000000
    24  H    0.239227   0.000000
    25  H    0.239186  -0.000000
    26  H    0.186009  -0.000000
    27  H    0.202835   0.000000
    28  H    0.175966  -0.000000
    29  H    0.239813   0.000000
    30  H    0.239814  -0.000000
 Sum of Mulliken charges =  -0.00000   0.00000

 Dipole moment (field-independent basis, Debye):
    X=             -0.0019    Y=             -1.8646    Z=              0.0002  Tot=              1.8646
 Quadrupole moment (field-independent basis, Debye-Ang):
   XX=           -105.9102   YY=            -94.6381   ZZ=           -126.1215
   XY=             -0.0004   XZ=             12.6635   YZ=             -0.0074

 Normal termination of Gaussian 16 at Sun Jan 21 08:04:36 2024.
