 Gaussian 16, Revision A.03,
 Gaussian 16:  ES64L-G16RevA.03 25-Dec-2016

 --------------------------------------
 #P UB3LYP/6-311++G(d,p) nosym opt freq
 --------------------------------------

 -------
 Radical
 -------
 Symbolic Z-matrix:
 Charge = -1 Multiplicity = 2

 SCF Done:  E(UB3LYP) =  -839.076622190     A.U. after   21 cycles
 SCF Done:  E(UB3LYP) =  -839.086832061     A.U. after   18 cycles
 SCF Done:  E(UB3LYP) =  -839.087968214     A.U. after   16 cycles
 SCF Done:  E(UB3LYP) =  -839.088127171     A.U. after   17 cycles
 SCF Done:  E(UB3LYP) =  -839.088865253     A.U. after   16 cycles
 SCF Done:  E(UB3LYP) =  -839.088907033     A.U. after   16 cycles
 SCF Done:  E(UB3LYP) =  -839.089214224     A.U. after   16 cycles
 SCF Done:  E(UB3LYP) =  -839.089299586     A.U. after   15 cycles
 SCF Done:  E(UB3LYP) =  -839.089358995     A.U. after   14 cycles
 SCF Done:  E(UB3LYP) =  -839.089382242     A.U. after   14 cycles
 SCF Done:  E(UB3LYP) =  -839.089392264     A.U. after   12 cycles
 SCF Done:  E(UB3LYP) =  -839.089397040     A.U. after   13 cycles
 SCF Done:  E(UB3LYP) =  -839.089398916     A.U. after   12 cycles
 SCF Done:  E(UB3LYP) =  -839.089399416     A.U. after   12 cycles
 SCF Done:  E(UB3LYP) =  -839.089399548     A.U. after    9 cycles
 SCF Done:  E(UB3LYP) =  -839.089399598     A.U. after    9 cycles
 Optimization completed.
    -- Stationary point found.
 Normal termination of Gaussian 16 at Thu Dec 21 08:12:59 2023.

 ----------------------------------------------------------------------
 #P Geom=AllCheck Guess=TCheck SCRF=Check GenChk UB3LYP/6-311++G(d,p) F
 req
 ----------------------------------------------------------------------

 Structure from the checkpoint file:  "156-rad.chk"
 -------
 Radical
 -------
 Charge = -1 Multiplicity = 2

                          Input orientation:
 ---------------------------------------------------------------------
 Center     Atomic      Atomic             Coordinates (Angstroms)
 Number     Number       Type             X           Y           Z
 ---------------------------------------------------------------------
      1          6           0       -1.839695    1.916074   -5.143730
      2          6           0       -1.748075    0.600120   -5.550417
      3          6           0       -1.324083   -0.390492   -4.637173
      4          6           0       -1.514744    2.295551   -3.822227
      5          6           0       -1.091646    1.301543   -2.905370
      6          6           0       -1.003491   -0.039575   -3.341102
      7          6           0       -1.614675    3.698788   -3.433462
      8          6           0       -0.757894    1.630495   -1.523477
      9          6           0       -1.249600    4.046396   -2.063982
     10          6           0       -0.868962    3.022216   -1.114502
     11          6           0       -1.294821    5.414117   -1.640637
     12          6           0       -1.005770    5.723071   -0.315078
     13          6           0       -0.669018    4.739443    0.616492
     14          6           0       -0.592378    3.392295    0.250110
     15          8           0       -2.015109    4.551063   -4.286645
     16          8           0       -0.386595    0.696600   -0.739440
     17          7           0       -1.566036    6.451451   -2.538762
     18          7           0       -0.276802    2.425090    1.181064
     19          6           0        0.223382    2.729013    2.491732
     20          1           0       -2.160188    2.698196   -5.821567
     21          1           0       -2.000222    0.325728   -6.570650
     22          1           0       -1.251300   -1.426495   -4.955270
     23          1           0       -0.677705   -0.777692   -2.618038
     24          1           0       -1.029681    6.764952   -0.005178
     25          1           0       -0.462412    5.032684    1.638541
     26          1           0       -1.955826    6.105013   -3.416880
     27          1           0       -2.032062    7.247298   -2.128249
     28          1           0       -0.149666    1.499327    0.764677
     29          1           0       -0.524491    3.238302    3.118271
     30          1           0        1.121672    3.369888    2.474339
     31          1           0        0.486041    1.793109    2.990089
 ---------------------------------------------------------------------

 SCF Done:  E(UB3LYP) =  -839.089399598     A.U. after    2 cycles

 Alpha  occ. eigenvalues --  -18.94697 -18.94638 -14.18846 -14.17863 -10.09767
 Alpha  occ. eigenvalues --  -10.09739 -10.09574 -10.08660 -10.08300 -10.05696
 Alpha  occ. eigenvalues --  -10.05647 -10.04954 -10.04949 -10.04884 -10.04845
 Alpha  occ. eigenvalues --  -10.04727 -10.04670 -10.04522 -10.04456  -0.87409
 Alpha  occ. eigenvalues --   -0.87122  -0.80823  -0.78338  -0.73589  -0.70456
 Alpha  occ. eigenvalues --   -0.65992  -0.62890  -0.62173  -0.61231  -0.56456
 Alpha  occ. eigenvalues --   -0.54138  -0.51243  -0.50092  -0.46054  -0.44144
 Alpha  occ. eigenvalues --   -0.42240  -0.40522  -0.39265  -0.37158  -0.35394
 Alpha  occ. eigenvalues --   -0.35066  -0.34102  -0.33342  -0.33222  -0.31419
 Alpha  occ. eigenvalues --   -0.30333  -0.29506  -0.29332  -0.28821  -0.27479
 Alpha  occ. eigenvalues --   -0.26875  -0.25813  -0.25317  -0.25123  -0.25043
 Alpha  occ. eigenvalues --   -0.22768  -0.21993  -0.21507  -0.20215  -0.14599
 Alpha  occ. eigenvalues --   -0.13616  -0.13376  -0.12379  -0.11738  -0.10832
 Alpha  occ. eigenvalues --   -0.06520  -0.00922
 Alpha virt. eigenvalues --    0.07385   0.07750   0.08347   0.08652   0.09825
 Alpha virt. eigenvalues --    0.10264   0.10297   0.11347   0.11917   0.11950
 Alpha virt. eigenvalues --    0.13128   0.13638   0.14295   0.14683   0.15698

  Beta  occ. eigenvalues --  -18.94200 -18.94123 -14.18802 -14.17817 -10.09611
  Beta  occ. eigenvalues --  -10.09577 -10.09575 -10.08636 -10.08277 -10.05647
  Beta  occ. eigenvalues --  -10.05598 -10.04963 -10.04959 -10.04867 -10.04828
  Beta  occ. eigenvalues --  -10.04642 -10.04584 -10.04398 -10.04337  -0.86570
  Beta  occ. eigenvalues --   -0.86245  -0.80681  -0.78199  -0.73389  -0.70284
  Beta  occ. eigenvalues --   -0.65594  -0.62708  -0.62013  -0.61074  -0.56247
  Beta  occ. eigenvalues --   -0.53509  -0.51067  -0.49878  -0.45959  -0.43985
  Beta  occ. eigenvalues --   -0.42024  -0.40411  -0.39189  -0.37042  -0.35123
  Beta  occ. eigenvalues --   -0.34982  -0.33975  -0.33244  -0.33099  -0.31299
  Beta  occ. eigenvalues --   -0.30299  -0.29233  -0.28673  -0.28474  -0.27105
  Beta  occ. eigenvalues --   -0.26688  -0.25516  -0.25174  -0.24806  -0.23385
  Beta  occ. eigenvalues --   -0.22618  -0.21360  -0.20831  -0.19465  -0.13646
  Beta  occ. eigenvalues --   -0.12764  -0.12012  -0.11911  -0.11289  -0.10389
  Beta  occ. eigenvalues --   -0.05453
  Beta virt. eigenvalues --    0.04399   0.07393   0.08338   0.08563   0.08685
  Beta virt. eigenvalues --    0.10237   0.10266   0.10859   0.11403   0.11923
  Beta virt. eigenvalues --    0.11958   0.13373   0.13806   0.14297   0.14689

 Mulliken charges and spin densities:
               1          2
     1  C    0.083062   0.015327
     2  C   -0.552120   0.037227
     3  C   -0.536716   0.038947
     4  C    0.193629   0.042409
     5  C    0.242077   0.037324
     6  C    0.004673   0.015098
     7  C   -0.564551   0.074141
     8  C   -0.319628   0.082867
     9  C    0.699221   0.018388
    10  C    0.279186   0.010168
    11  C    0.004499   0.029269
    12  C   -0.433217   0.099856
    13  C   -0.146667   0.091977
    14  C   -0.240183   0.018933
    15  O   -0.375212   0.189401
    16  O   -0.391109   0.184151
    17  N   -0.388542   0.019849
    18  N   -0.231745   0.020762
    19  C   -0.371377  -0.004100
    20  H    0.162351  -0.000438
    21  H    0.119033  -0.003242
    22  H    0.120878  -0.003283
    23  H    0.154105  -0.000536
    24  H    0.111438  -0.007585
    25  H    0.126080  -0.007046
    26  H    0.295346  -0.003035
    27  H    0.203676  -0.001430
    28  H    0.381724  -0.003297
    29  H    0.119193   0.002375
    30  H    0.127838   0.005510
    31  H    0.123058   0.000012
 Sum of Mulliken charges =  -1.00000   1.00000

 Dipole moment (field-independent basis, Debye):
    X=              5.1630    Y=            -13.3720    Z=             11.9690  Tot=             18.6742
 Quadrupole moment (field-independent basis, Debye-Ang):
   XX=           -126.7904   YY=           -171.2293   ZZ=           -162.2981
   XY=             13.7210   XZ=            -16.2098   YZ=             39.6421

  Exact polarizability: 131.234 -11.320 306.586  52.620  55.601 331.834
 Approx polarizability: 210.607 -32.389 520.445  85.134  52.067 521.613

                      1                      2                      3
                      A                      A                      A
 Frequencies --     45.8901                60.5968                70.1732
 Red. masses --      4.6264                 4.2759                 5.3064
 Frc consts  --      0.0057                 0.0093                 0.0154
 IR Inten    --      7.2584                 0.7104                 4.1676

                      4                      5                      6
                      A                      A                      A
 Frequencies --    112.0524               133.7588               177.2141
 Red. masses --      3.7582                 4.9109                 6.6622
 Frc consts  --      0.0278                 0.0518                 0.1233
 IR Inten    --      1.0933                 0.4486                 0.8082

                      7                      8                      9
                      A                      A                      A
 Frequencies --    183.0136               219.6905               252.3375
 Red. masses --      3.8249                 1.1539                 3.8650
 Frc consts  --      0.0755                 0.0328                 0.1450
 IR Inten    --      2.5995                 0.5095                 4.5521

                     10                     11                     12
                      A                      A                      A
 Frequencies --    257.7067               326.1753               336.0363
 Red. masses --      4.7648                 4.8763                 3.7516
 Frc consts  --      0.1864                 0.3057                 0.2496
 IR Inten    --      2.0904                 2.8422                33.7567

                     13                     14                     15
                      A                      A                      A
 Frequencies --    350.7823               388.2177               407.5040
 Red. masses --      3.3840                 4.8388                 2.5700
 Frc consts  --      0.2453                 0.4297                 0.2514
 IR Inten    --     24.9997                20.1273                53.2109

                     16                     17                     18
                      A                      A                      A
 Frequencies --    413.1336               416.4698               439.0423
 Red. masses --      5.2485                 4.5040                 3.5496
 Frc consts  --      0.5278                 0.4603                 0.4031
 IR Inten    --      3.5240                15.3691                 2.5482

                     19                     20                     21
                      A                      A                      A
 Frequencies --    446.4957               461.3126               498.8650
 Red. masses --      5.0662                 5.5299                 4.7148
 Frc consts  --      0.5951                 0.6934                 0.6913
 IR Inten    --     47.3894                 5.1895                 1.5269

                     22                     23                     24
                      A                      A                      A
 Frequencies --    503.6096               551.4798               591.7087
 Red. masses --      5.8693                 5.6167                 2.9380
 Frc consts  --      0.8771                 1.0064                 0.6061
 IR Inten    --      1.5887                12.0908                39.9367

                     25                     26                     27
                      A                      A                      A
 Frequencies --    620.2249               644.8096               665.1180
 Red. masses --      4.5565                 4.7257                 5.7283
 Frc consts  --      1.0327                 1.1577                 1.4931
 IR Inten    --      9.2944                 1.1651                 8.9147

                     28                     29                     30
                      A                      A                      A
 Frequencies --    695.7145               717.5283               730.4182
 Red. masses --      1.5609                 2.7443                 2.1447
 Frc consts  --      0.4451                 0.8324                 0.6742
 IR Inten    --     62.2887                10.3460                50.3882

                     31                     32                     33
                      A                      A                      A
 Frequencies --    736.1338               754.5109               777.9319
 Red. masses --      3.4012                 2.3408                 1.7504
 Frc consts  --      1.0859                 0.7851                 0.6241
 IR Inten    --     37.0778                60.7350                31.8330

                     34                     35                     36
                      A                      A                      A
 Frequencies --    779.6717               796.7083               803.6291
 Red. masses --      1.7784                 2.6166                 4.3092
 Frc consts  --      0.6369                 0.9785                 1.6397
 IR Inten    --     69.9726                40.5156                10.4618

                     37                     38                     39
                      A                      A                      A
 Frequencies --    860.7749               864.4140               867.0110
 Red. masses --      1.4086                 5.4569                 1.5143
 Frc consts  --      0.6149                 2.4023                 0.6707
 IR Inten    --      3.5171                21.3295                 0.0956

                     40                     41                     42
                      A                      A                      A
 Frequencies --    901.3157               952.5018               981.0834
 Red. masses --      6.5315                 5.4089                 1.3373
 Frc consts  --      3.1262                 2.8913                 0.7584
 IR Inten    --     14.6670                14.0552                 1.9139

                     43                     44                     45
                      A                      A                      A
 Frequencies --    981.4201              1030.6574              1055.3181
 Red. masses --      1.2773                 2.7350                 2.2832
 Frc consts  --      0.7249                 1.7117                 1.4982
 IR Inten    --      0.5637                42.8633                 1.9605

                     46                     47                     48
                      A                      A                      A
 Frequencies --   1110.1942              1110.9899              1144.5456
 Red. masses --      2.1082                 2.0111                 1.3007
 Frc consts  --      1.5309                 1.4625                 1.0039
 IR Inten    --     22.7008                22.4757                 7.9705

                     49                     50                     51
                      A                      A                      A
 Frequencies --   1148.0930              1160.8027              1178.3147
 Red. masses --      1.3257                 1.6410                 2.4632
 Frc consts  --      1.0296                 1.3028                 2.0150
 IR Inten    --      8.5631                37.1380                 7.4511

                     52                     53                     54
                      A                      A                      A
 Frequencies --   1193.0261              1203.5013              1232.1221
 Red. masses --      1.3617                 1.9814                 3.2833
 Frc consts  --      1.1419                 1.6908                 2.9368
 IR Inten    --     57.3634                 6.8590                 1.5345

                     55                     56                     57
                      A                      A                      A
 Frequencies --   1250.7924              1278.0747              1296.2443
 Red. masses --      1.9999                 3.1050                 2.9914
 Frc consts  --      1.8434                 2.9883                 2.9614
 IR Inten    --     38.9373                17.3134                12.8256

                     58                     59                     60
                      A                      A                      A
 Frequencies --   1326.4126              1357.8290              1367.5790
 Red. masses --      3.9278                 3.5806                10.0148
 Frc consts  --      4.0715                 3.8895                11.0356
 IR Inten    --    121.5802                32.8034                 1.5406

                     61                     62                     63
                      A                      A                      A
 Frequencies --   1395.9751              1422.7540              1455.1911
 Red. masses --      3.0869                 3.0303                 1.3923
 Frc consts  --      3.5443                 3.6141                 1.7371
 IR Inten    --    264.0353               115.0732                46.7528

                     64                     65                     66
                      A                      A                      A
 Frequencies --   1468.0022              1475.4533              1478.7184
 Red. masses --      3.6870                 1.0467                 2.7033
 Frc consts  --      4.6814                 1.3425                 3.4828
 IR Inten    --     99.0397                 4.1632                43.4713

                     67                     68                     69
                      A                      A                      A
 Frequencies --   1489.1473              1517.8539              1522.2591
 Red. masses --      2.6471                 1.2677                 2.9404
 Frc consts  --      3.4585                 1.7208                 4.0145
 IR Inten    --     22.1527               254.0592               482.0949

                     70                     71                     72
                      A                      A                      A
 Frequencies --   1554.6413              1578.6653              1605.9624
 Red. masses --      2.9132                 2.9559                 2.4309
 Frc consts  --      4.1484                 4.3404                 3.6939
 IR Inten    --    101.3833               251.3203                18.8837

                     73                     74                     75
                      A                      A                      A
 Frequencies --   1611.3395              1622.9590              1633.0261
 Red. masses --      1.7080                 4.7662                 7.3270
 Frc consts  --      2.6129                 7.3968                11.5123
 IR Inten    --    182.2045                 6.1089                62.4713

                     76                     77                     78
                      A                      A                      A
 Frequencies --   2922.2068              2958.5008              3081.0172
 Red. masses --      1.0580                 1.0837                 1.0908
 Frc consts  --      5.3231                 5.5885                 6.1010
 IR Inten    --    256.4973               141.0044                42.9909

                     79                     80                     81
                      A                      A                      A
 Frequencies --   3128.4195              3132.8847              3152.3885
 Red. masses --      1.0873                 1.0848                 1.0916
 Frc consts  --      6.2695                 6.2730                 6.3914
 IR Inten    --     51.5111                18.7346                60.9767

                     82                     83                     84
                      A                      A                      A
 Frequencies --   3179.4802              3187.5384              3189.8030
 Red. masses --      1.0899                 1.0911                 1.0924
 Frc consts  --      6.4914                 6.5318                 6.5485
 IR Inten    --     35.1651                 9.0319                29.6265

                     85                     86                     87
                      A                      A                      A
 Frequencies --   3330.1718              3371.0269              3614.0577
 Red. masses --      1.0823                 1.0615                 1.0860
 Frc consts  --      7.0716                 7.1071                 8.3574
 IR Inten    --    147.6248                80.1532                13.0572

 - Thermochemistry -
 -------------------
 Temperature   298.150 Kelvin.  Pressure   1.00000 Atm.
 Atom     1 has atomic number  6 and mass  12.00000

 Molecular mass:   252.08988 amu.
 Principal axes and moments of inertia in atomic units:
                           1         2         3
     Eigenvalues --  3050.691305417.802438450.53368
           X            0.16679  -0.24032   0.95626
           Y            0.48782   0.86294   0.13178
           Z            0.85686  -0.44450  -0.26116
 This molecule is an asymmetric top.
 Rotational symmetry number  1.
 Warning -- assumption of classical behavior for rotation
           may cause significant error
 Rotational temperatures (Kelvin)      0.02839     0.01599     0.01025
 Rotational constants (GHZ):           0.59158     0.33311     0.21357
 Zero-point vibrational energy     623841.3 (Joules/Mol)
                                  149.10166 (Kcal/Mol)
 Warning -- explicit consideration of  25 degrees of freedom as
           vibrations may cause significant error
 Vibrational temperatures:     66.03    87.19   100.96   161.22   192.45
          (Kelvin)            254.97   263.32   316.09   363.06   370.78
                              469.29   483.48   504.70   558.56   586.31
                              594.41   599.21   631.68   642.41   663.73
                              717.76   724.58   793.46   851.34   892.37
                              927.74   956.96  1000.98  1032.36  1050.91
                             1059.13  1085.57  1119.27  1121.77  1146.29
                             1156.24  1238.46  1243.70  1247.44  1296.79
                             1370.44  1411.56  1412.04  1482.89  1518.37
                             1597.32  1598.47  1646.75  1651.85  1670.14
                             1695.33  1716.50  1731.57  1772.75  1799.61
                             1838.86  1865.01  1908.41  1953.61  1967.64
                             2008.50  2047.03  2093.70  2112.13  2122.85
                             2127.55  2142.55  2183.85  2190.19  2236.78
                             2271.35  2310.62  2318.36  2335.08  2349.56
                             4204.40  4256.62  4432.90  4501.10  4507.52
                             4535.58  4574.56  4586.16  4589.42  4791.37
                             4850.16  5199.82

 Zero-point correction=                           0.237609 (Hartree/Particle)
 Thermal correction to Energy=                    0.252871
 Thermal correction to Enthalpy=                  0.253815
 Thermal correction to Gibbs Free Energy=         0.194777
 Sum of electronic and zero-point Energies=           -838.851791
 Sum of electronic and thermal Energies=              -838.836529
 Sum of electronic and thermal Enthalpies=            -838.835584
 Sum of electronic and thermal Free Energies=         -838.894622

                     E (Thermal)             CV                S
                      KCal/Mol        Cal/Mol-Kelvin    Cal/Mol-Kelvin
 Total                  158.679             61.637            124.256
 Electronic               0.000              0.000              1.377
 Translational            0.889              2.981             42.474
 Rotational               0.889              2.981             33.301
 Vibrational            156.902             55.676             47.103
 Vibration     1          0.595              1.979              4.987
 Vibration     2          0.597              1.973              4.438
 Vibration     3          0.598              1.968              4.148
 Vibration     4          0.607              1.939              3.233
 Vibration     5          0.613              1.920              2.891
 Vibration     6          0.628              1.870              2.358
 Vibration     7          0.631              1.863              2.297
 Vibration     8          0.647              1.811              1.962
 Vibration     9          0.664              1.759              1.714
 Vibration    10          0.667              1.750              1.677
 Vibration    11          0.710              1.623              1.279
 Vibration    12          0.717              1.604              1.231
 Vibration    13          0.728              1.574              1.163
 Vibration    14          0.756              1.495              1.007
 Vibration    15          0.772              1.454              0.935
 Vibration    16          0.777              1.442              0.916
 Vibration    17          0.780              1.434              0.904
 Vibration    18          0.799              1.385              0.830
 Vibration    19          0.806              1.369              0.806
 Vibration    20          0.819              1.336              0.762
 Vibration    21          0.854              1.253              0.661
 Vibration    22          0.859              1.242              0.649
 Vibration    23          0.907              1.136              0.541
 Vibration    24          0.949              1.049              0.464
 Vibration    25          0.980              0.989              0.416

                           ! Non-Optimized Parameters !
 Normal termination of Gaussian 16 at Thu Dec 21 09:54:52 2023.
