 Gaussian 16, Revision A.03,
 Gaussian 16:  ES64L-G16RevA.03 25-Dec-2016

 ----------------------------------------------------------------
 #P UB3LYP/6-311++G(d,p) SCRF=(PCM,Solvent=n,n-DiMethylFormamide)
 ----------------------------------------------------------------

 ------------------
 Quinone PCM in DMF
 ------------------
 Symbolic Z-matrix:
 Charge =  0 Multiplicity = 1

                         Standard orientation:
 ---------------------------------------------------------------------
 Center     Atomic      Atomic             Coordinates (Angstroms)
 Number     Number       Type             X           Y           Z
 ---------------------------------------------------------------------
      1          6           0        0.059037    1.322255   -0.144613
      2          6           0        1.511583    1.600986   -0.047279
      3          6           0        2.406434    0.611756    0.058129
      4          6           0        1.969962   -0.807149    0.071155
      5          6           0        0.517564   -1.080630   -0.042389
      6          6           0       -0.400024   -0.104076   -0.143828
      7          8           0       -0.741924    2.244818   -0.221703
      8          8           0        2.779475   -1.714974    0.167813
      9          6           0       -1.901729   -0.321359   -0.274710
     10          6           0       -2.340923   -1.776144   -0.246714
     11          8           0       -2.588067    0.346744    0.786326
     12          1           0        1.789690    2.649082   -0.058253
     13          1           0        3.473385    0.787245    0.138871
     14          1           0        0.249806   -2.130687   -0.039282
     15          1           0       -2.202896    0.121220   -1.235314
     16          1           0       -1.900911   -2.344162   -1.069533
     17          1           0       -3.426705   -1.815631   -0.344209
     18          1           0       -2.069633   -2.247942    0.700745
     19          1           0       -2.440042    1.294337    0.668984
 ---------------------------------------------------------------------

 SCF Done:  E(UB3LYP) =  -535.469872956     A.U. after   14 cycles

 The electronic state is 1-A.
 Alpha  occ. eigenvalues --  -19.15391 -19.14906 -19.13463 -10.29750 -10.29291
 Alpha  occ. eigenvalues --  -10.24641 -10.22426 -10.21816 -10.21734 -10.21471
 Alpha  occ. eigenvalues --  -10.16954  -1.08518  -1.07844  -1.03825  -0.87304
 Alpha  occ. eigenvalues --   -0.81462  -0.75766  -0.71771  -0.66625  -0.62030
 Alpha  occ. eigenvalues --   -0.59888  -0.54244  -0.52688  -0.51914  -0.49463
 Alpha  occ. eigenvalues --   -0.48080  -0.45843  -0.45510  -0.44347  -0.42968
 Alpha  occ. eigenvalues --   -0.42474  -0.40558  -0.39824  -0.38527  -0.36255
 Alpha  occ. eigenvalues --   -0.32017  -0.30629  -0.30441  -0.29942  -0.28076
 Alpha virt. eigenvalues --   -0.14361  -0.03847  -0.01374  -0.00455   0.00685
 Alpha virt. eigenvalues --    0.01009   0.02378   0.02562   0.03150   0.04377
 Alpha virt. eigenvalues --    0.05206   0.05873   0.06385   0.06538   0.07951

  Beta  occ. eigenvalues --  -19.15391 -19.14906 -19.13463 -10.29750 -10.29291
  Beta  occ. eigenvalues --  -10.24641 -10.22426 -10.21816 -10.21734 -10.21471
  Beta  occ. eigenvalues --  -10.16954  -1.08518  -1.07844  -1.03825  -0.87304
  Beta  occ. eigenvalues --   -0.81462  -0.75766  -0.71771  -0.66625  -0.62030
  Beta  occ. eigenvalues --   -0.59888  -0.54244  -0.52688  -0.51914  -0.49463
  Beta  occ. eigenvalues --   -0.48080  -0.45843  -0.45510  -0.44347  -0.42968
  Beta  occ. eigenvalues --   -0.42474  -0.40558  -0.39824  -0.38527  -0.36255
  Beta  occ. eigenvalues --   -0.32017  -0.30629  -0.30441  -0.29942  -0.28076
  Beta virt. eigenvalues --   -0.14361  -0.03847  -0.01374  -0.00455   0.00685
  Beta virt. eigenvalues --    0.01009   0.02378   0.02562   0.03150   0.04377
  Beta virt. eigenvalues --    0.05206   0.05873   0.06385   0.06538   0.07951

 Mulliken charges and spin densities:
               1          2
     1  C   -0.695090  -0.000000
     2  C    0.209792   0.000000
     3  C    0.163990  -0.000000
     4  C   -0.372113   0.000000
     5  C   -1.241136  -0.000000
     6  C    1.727659   0.000000
     7  O   -0.266960   0.000000
     8  O   -0.278255   0.000000
     9  C   -0.202388  -0.000000
    10  C   -0.538711   0.000000
    11  O   -0.255500  -0.000000
    12  H    0.244787  -0.000000
    13  H    0.247775  -0.000000
    14  H    0.224388   0.000000
    15  H    0.224342  -0.000000
    16  H    0.158849   0.000000
    17  H    0.179574  -0.000000
    18  H    0.169118   0.000000
    19  H    0.299877   0.000000
 Sum of Mulliken charges =  -0.00000  -0.00000

 Dipole moment (field-independent basis, Debye):
    X=              0.8280    Y=              0.8086    Z=             -1.7547  Tot=              2.1019
 Quadrupole moment (field-independent basis, Debye-Ang):
   XX=            -72.4185   YY=            -68.1106   ZZ=            -65.4734
   XY=             13.4948   XZ=              3.8104   YZ=              2.2523

 Normal termination of Gaussian 16 at Wed Jan 24 22:49:26 2024.
