 Gaussian 16, Revision A.03,
 Gaussian 16:  ES64L-G16RevA.03 25-Dec-2016

 --------------------------------------
 #P UB3LYP/6-311++G(d,p) nosym opt freq
 --------------------------------------

 --------
 Oxidized
 --------
 Symbolic Z-matrix:
 Charge =  0 Multiplicity = 1

 SCF Done:  E(UB3LYP) =  -535.458907491     A.U. after   15 cycles
 Optimization completed.
    -- Stationary point found.
 Normal termination of Gaussian 16 at Wed Jan 10 16:49:20 2024.

 ----------------------------------------------------------------------
 #P Geom=AllCheck Guess=TCheck SCRF=Check GenChk UB3LYP/6-311++G(d,p) F
 req
 ----------------------------------------------------------------------

 Structure from the checkpoint file:  "095.chk"
 --------
 Oxidized
 --------
 Charge =  0 Multiplicity = 1

                          Input orientation:
 ---------------------------------------------------------------------
 Center     Atomic      Atomic             Coordinates (Angstroms)
 Number     Number       Type             X           Y           Z
 ---------------------------------------------------------------------
      1          6           0        2.143122    3.856191    5.445606
      2          6           0        3.081379    3.231597    4.483000
      3          6           0        2.672172    2.299828    3.614206
      4          6           0        1.252763    1.866131    3.580272
      5          6           0        0.315658    2.505434    4.534354
      6          6           0        0.704201    3.439090    5.419360
      7          8           0        2.544918    4.693303    6.243358
      8          8           0        0.871750    1.016515    2.791740
      9          6           0       -0.211341    4.139343    6.414794
     10          6           0       -1.659667    3.679573    6.382576
     11          8           0        0.265964    3.936199    7.746759
     12          1           0        4.108873    3.573510    4.540619
     13          1           0        3.338197    1.821030    2.905077
     14          1           0       -0.710349    2.163911    4.463678
     15          1           0       -0.174936    5.212493    6.177388
     16          1           0       -2.115742    3.857809    5.406096
     17          1           0       -2.221249    4.239956    7.131297
     18          1           0       -1.737890    2.617478    6.626922
     19          1           0        1.123939    4.375799    7.811909
 ---------------------------------------------------------------------

 SCF Done:  E(UB3LYP) =  -535.458907491     A.U. after    1 cycles

 Alpha  occ. eigenvalues --  -19.15685 -19.14961 -19.13076 -10.30162 -10.29475
 Alpha  occ. eigenvalues --  -10.25078 -10.22990 -10.22771 -10.22687 -10.22096
 Alpha  occ. eigenvalues --  -10.17665  -1.08795  -1.07849  -1.03559  -0.87998
 Alpha  occ. eigenvalues --   -0.82217  -0.76337  -0.72339  -0.67278  -0.62748
 Alpha  occ. eigenvalues --   -0.60313  -0.54530  -0.53038  -0.52352  -0.49809
 Alpha  occ. eigenvalues --   -0.48835  -0.46206  -0.45900  -0.44597  -0.43179
 Alpha  occ. eigenvalues --   -0.42989  -0.40821  -0.40481  -0.39031  -0.36311
 Alpha  occ. eigenvalues --   -0.32567  -0.31176  -0.30383  -0.30083  -0.28104
 Alpha virt. eigenvalues --   -0.14792  -0.04676  -0.01816  -0.01205  -0.00281
 Alpha virt. eigenvalues --    0.00777   0.01919   0.02203   0.02809   0.03880
 Alpha virt. eigenvalues --    0.04998   0.05378   0.05607   0.06344   0.07546

  Beta  occ. eigenvalues --  -19.15685 -19.14961 -19.13076 -10.30162 -10.29475
  Beta  occ. eigenvalues --  -10.25078 -10.22990 -10.22771 -10.22687 -10.22096
  Beta  occ. eigenvalues --  -10.17665  -1.08795  -1.07849  -1.03559  -0.87998
  Beta  occ. eigenvalues --   -0.82217  -0.76337  -0.72339  -0.67278  -0.62748
  Beta  occ. eigenvalues --   -0.60313  -0.54530  -0.53038  -0.52352  -0.49809
  Beta  occ. eigenvalues --   -0.48835  -0.46206  -0.45900  -0.44597  -0.43179
  Beta  occ. eigenvalues --   -0.42989  -0.40821  -0.40481  -0.39031  -0.36311
  Beta  occ. eigenvalues --   -0.32567  -0.31176  -0.30383  -0.30083  -0.28104
  Beta virt. eigenvalues --   -0.14792  -0.04676  -0.01816  -0.01205  -0.00281
  Beta virt. eigenvalues --    0.00777   0.01919   0.02203   0.02809   0.03880
  Beta virt. eigenvalues --    0.04998   0.05378   0.05607   0.06344   0.07546

 Mulliken charges and spin densities:
               1          2
     1  C   -0.697509  -0.000000
     2  C    0.219656   0.000000
     3  C    0.175414  -0.000000
     4  C   -0.469971  -0.000000
     5  C   -1.201926   0.000000
     6  C    1.654748  -0.000000
     7  O   -0.228856   0.000000
     8  O   -0.212184   0.000000
     9  C   -0.163690   0.000000
    10  C   -0.510514  -0.000000
    11  O   -0.198857   0.000000
    12  H    0.224888   0.000000
    13  H    0.227648   0.000000
    14  H    0.210404   0.000000
    15  H    0.201244  -0.000000
    16  H    0.139889  -0.000000
    17  H    0.179782   0.000000
    18  H    0.166626  -0.000000
    19  H    0.283209   0.000000
 Sum of Mulliken charges =  -0.00000   0.00000

 Dipole moment (field-independent basis, Debye):
    X=              0.5501    Y=              1.0153    Z=             -1.0913  Tot=              1.5888
 Quadrupole moment (field-independent basis, Debye-Ang):
   XX=            -56.6470   YY=            -64.2721   ZZ=            -86.8080
   XY=             -1.5820   XZ=             -1.4126   YZ=             -4.2664

  Exact polarizability: 102.696   9.375 100.167  -1.526  38.620 108.824
 Approx polarizability: 140.691  36.121 186.113  25.742  86.042 185.994

                      1                      2                      3
                      A                      A                      A
 Frequencies --     62.6677                87.8518               132.4600
 Red. masses --      4.3784                 6.8983                 5.0407
 Frc consts  --      0.0101                 0.0314                 0.0521
 IR Inten    --      4.0380                 7.1743                 4.3031

                      4                      5                      6
                      A                      A                      A
 Frequencies --    189.0953               233.5859               265.8731
 Red. masses --      4.5702                 5.0930                 1.0675
 Frc consts  --      0.0963                 0.1637                 0.0445
 IR Inten    --      0.6435                 0.1230                 0.5101

                      7                      8                      9
                      A                      A                      A
 Frequencies --    297.7888               331.6142               412.9671
 Red. masses --      5.1149                 4.0515                 3.9581
 Frc consts  --      0.2672                 0.2625                 0.3977
 IR Inten    --      0.8041                 5.6050                 2.7619

                     10                     11                     12
                      A                      A                      A
 Frequencies --    427.6833               446.4115               471.2343
 Red. masses --      6.4814                 4.4062                 5.7095
 Frc consts  --      0.6985                 0.5173                 0.7470
 IR Inten    --     33.7703                 4.2402                 2.5271

                     13                     14                     15
                      A                      A                      A
 Frequencies --    520.3310               530.9991               583.1896
 Red. masses --      2.5505                 1.1785                 3.6501
 Frc consts  --      0.4068                 0.1958                 0.7314
 IR Inten    --     29.8055               130.5706                 5.1973

                     16                     17                     18
                      A                      A                      A
 Frequencies --    647.4664               700.1939               786.1369
 Red. masses --      4.4055                 3.2896                 3.9564
 Frc consts  --      1.0881                 0.9502                 1.4406
 IR Inten    --      2.8690                 4.9342                 0.6226

                     19                     20                     21
                      A                      A                      A
 Frequencies --    790.8999               841.9160               861.2966
 Red. masses --      4.6292                 2.5371                 2.7726
 Frc consts  --      1.7061                 1.0596                 1.2118
 IR Inten    --      2.9098                12.9694                11.6473

                     22                     23                     24
                      A                      A                      A
 Frequencies --    910.8185               937.7722              1009.6093
 Red. masses --      2.5303                 1.5279                 2.5728
 Frc consts  --      1.2367                 0.7917                 1.5451
 IR Inten    --     26.0423                46.0552                14.3790

                     25                     26                     27
                      A                      A                      A
 Frequencies --   1014.0485              1071.6008              1099.9543
 Red. masses --      1.2507                 1.6684                 2.0189
 Frc consts  --      0.7578                 1.1288                 1.4392
 IR Inten    --      0.0319                 1.6010                72.4264

                     28                     29                     30
                      A                      A                      A
 Frequencies --   1117.9305              1141.9491              1232.9475
 Red. masses --      2.1014                 1.6933                 1.6864
 Frc consts  --      1.5474                 1.3010                 1.5104
 IR Inten    --     40.9223                12.8466                 7.9374

                     31                     32                     33
                      A                      A                      A
 Frequencies --   1285.7277              1289.6116              1338.0120
 Red. masses --      3.0866                 1.1811                 1.8305
 Frc consts  --      3.0063                 1.1574                 1.9309
 IR Inten    --    102.4069                87.2411                26.6708

                     34                     35                     36
                      A                      A                      A
 Frequencies --   1370.5499              1388.0957              1402.4519
 Red. masses --      1.3171                 1.7520                 1.4149
 Frc consts  --      1.4576                 1.9889                 1.6397
 IR Inten    --     11.1826                 2.3135                12.0679

                     37                     38                     39
                      A                      A                      A
 Frequencies --   1433.8509              1490.4592              1503.1233
 Red. masses --      1.6905                 1.0502                 1.0459
 Frc consts  --      2.0478                 1.3745                 1.3923
 IR Inten    --     36.3007                 5.8336                 4.0677

                     40                     41                     42
                      A                      A                      A
 Frequencies --   1649.3867              1679.3324              1711.8763
 Red. masses --      7.9938                 9.7451                10.2645
 Frc consts  --     12.8129                16.1924                17.7229
 IR Inten    --     28.4470                14.0577               294.0449

                     43                     44                     45
                      A                      A                      A
 Frequencies --   1725.5191              2979.3175              3040.4745
 Red. masses --      9.2781                 1.0821                 1.0357
 Frc consts  --     16.2760                 5.6593                 5.6412
 IR Inten    --    171.5529                24.4376                 9.1033

                     46                     47                     48
                      A                      A                      A
 Frequencies --   3109.1468              3118.7328              3177.2532
 Red. masses --      1.1027                 1.1014                 1.0874
 Frc consts  --      6.2805                 6.3116                 6.4678
 IR Inten    --     18.7353                14.4334                 0.7107

                     49                     50                     51
                      A                      A                      A
 Frequencies --   3191.5442              3195.2895              3777.5483
 Red. masses --      1.0918                 1.0992                 1.0658
 Frc consts  --      6.5521                 6.6123                 8.9608
 IR Inten    --      1.4564                 1.6040                64.4896

 - Thermochemistry -
 -------------------
 Temperature   298.150 Kelvin.  Pressure   1.00000 Atm.
 Atom     1 has atomic number  6 and mass  12.00000

 Molecular mass:   152.04734 amu.
 Principal axes and moments of inertia in atomic units:
                           1         2         3
     Eigenvalues --  1037.559432005.683032920.83407
           X           -0.40495   0.88687  -0.22245
           Y            0.48818   0.41542   0.76753
           Z            0.77311   0.20222  -0.60118
 This molecule is an asymmetric top.
 Rotational symmetry number  1.
 Warning -- assumption of classical behavior for rotation
           may cause significant error
 Rotational temperatures (Kelvin)      0.08348     0.04318     0.02965
 Rotational constants (GHZ):           1.73941     0.89981     0.61789
 Zero-point vibrational energy     382898.3 (Joules/Mol)
                                   91.51489 (Kcal/Mol)
 Warning -- explicit consideration of  15 degrees of freedom as
           vibrations may cause significant error
 Vibrational temperatures:     90.16   126.40   190.58   272.07   336.08
          (Kelvin)            382.53   428.45   477.12   594.17   615.34
                              642.29   678.00   748.64   763.99   839.08
                              931.56  1007.42  1131.08  1137.93  1211.33
                             1239.21  1310.46  1349.25  1452.60  1458.99
                             1541.79  1582.59  1608.45  1643.01  1773.94
                             1849.88  1855.46  1925.10  1971.92  1997.16
                             2017.82  2062.99  2144.44  2162.66  2373.10
                             2416.18  2463.01  2482.64  4286.57  4374.56
                             4473.37  4487.16  4571.36  4591.92  4597.31
                             5435.05

 Zero-point correction=                           0.145838 (Hartree/Particle)
 Thermal correction to Energy=                    0.155848
 Thermal correction to Enthalpy=                  0.156793
 Thermal correction to Gibbs Free Energy=         0.110280
 Sum of electronic and zero-point Energies=           -535.313069
 Sum of electronic and thermal Energies=              -535.303059
 Sum of electronic and thermal Enthalpies=            -535.302115
 Sum of electronic and thermal Free Energies=         -535.348628

                     E (Thermal)             CV                S
                      KCal/Mol        Cal/Mol-Kelvin    Cal/Mol-Kelvin
 Total                   97.796             37.827             97.894
 Electronic               0.000              0.000              0.000
 Translational            0.889              2.981             40.967
 Rotational               0.889              2.981             30.187
 Vibrational             96.019             31.865             26.740
 Vibration     1          0.597              1.972              4.371
 Vibration     2          0.601              1.958              3.707
 Vibration     3          0.613              1.921              2.910
 Vibration     4          0.633              1.855              2.237
 Vibration     5          0.654              1.790              1.851
 Vibration     6          0.672              1.736              1.623
 Vibration     7          0.691              1.678              1.429
 Vibration     8          0.714              1.612              1.252
 Vibration     9          0.777              1.442              0.916
 Vibration    10          0.789              1.410              0.866
 Vibration    11          0.806              1.369              0.807
 Vibration    12          0.828              1.314              0.734
 Vibration    13          0.875              1.205              0.609
 Vibration    14          0.886              1.181              0.585
 Vibration    15          0.940              1.068              0.479

 Optimization completed.
    -- Stationary point found.
 Normal termination of Gaussian 16 at Wed Jan 10 16:55:50 2024.
