 Q-Chem 5.4, Q-Chem, Inc., Pleasanton, CA (2021)
 Q-Chem 5.4.0 for Intel X86 EM64T Linux

User input:
--------------------------------------------------------------
$molecule
-2 1
C                  2.4685440000     -4.8368420000      2.0676440000
C                  2.4821570000     -3.9618100000      0.9099920000
C                  2.0733140000     -2.6256680000      0.8642870000
C                  1.6266210000     -1.9692210000      2.0735610000
C                  1.6448480000     -2.8283330000      3.2488500000
C                  2.0182510000     -4.1851580000      3.2625490000
O                  2.7920920000     -6.0725430000      2.0206170000
O                  1.2127620000     -0.7635210000      2.0740300000
C                  2.0659620000     -5.0145720000      4.5211360000
C                  2.1603900000     -1.7938770000     -0.4124760000
C                  0.7655820000     -1.3506550000     -0.9009430000
C                  3.1027610000     -0.5818430000     -0.2514490000
N                  2.9148760000     -4.6037420000     -0.3361590000
N                  1.1625110000     -2.2446360000      4.4819160000
H                  2.3483350000     -4.4250910000      5.3988400000
H                  2.7825200000     -5.8241320000      4.3631160000
H                  1.0939300000     -5.4715310000      4.7487960000
H                  2.5826360000     -2.4179630000     -1.2028650000
H                  0.8472020000     -0.7578430000     -1.8241230000
H                  0.2815770000     -0.7492940000     -0.1287590000
H                  0.1465770000     -2.2274400000     -1.1131760000
H                  3.1632850000     -0.0153270000     -1.1925750000
H                  4.1130000000     -0.9161250000      0.0077190000
H                  2.7365130000      0.0714560000      0.5423940000
O                  4.0763560000     -5.0039770000     -0.4270650000
O                  2.0972970000     -4.7237420000     -1.2641840000
O                  0.3092540000     -2.8675380000      5.1546050000
O                  1.6004670000     -1.1462420000      4.8507640000
$end
$rem
MAX_SCF_CYCLES=200
BASIS  =  6-311++G(d,p)
GUI  =  2
JOB_TYPE  =  SP
METHOD  =  B3LYP
SOLVENT_METHOD = PCM
$end
$pcm
theory = CPCM
$end
$solvent
dielectric 37.219
opticaldielectric 1.43
$end

--------------------------------------------------------------

             Standard Nuclear Orientation (Angstroms)
    I     Atom           X                Y                Z
 ----------------------------------------------------------------
    1      C       2.4685440000    -4.8368420000     2.0676440000
    2      C       2.4821570000    -3.9618100000     0.9099920000
    3      C       2.0733140000    -2.6256680000     0.8642870000
    4      C       1.6266210000    -1.9692210000     2.0735610000
    5      C       1.6448480000    -2.8283330000     3.2488500000
    6      C       2.0182510000    -4.1851580000     3.2625490000
    7      O       2.7920920000    -6.0725430000     2.0206170000
    8      O       1.2127620000    -0.7635210000     2.0740300000
    9      C       2.0659620000    -5.0145720000     4.5211360000
   10      C       2.1603900000    -1.7938770000    -0.4124760000
   11      C       0.7655820000    -1.3506550000    -0.9009430000
   12      C       3.1027610000    -0.5818430000    -0.2514490000
   13      N       2.9148760000    -4.6037420000    -0.3361590000
   14      N       1.1625110000    -2.2446360000     4.4819160000
   15      H       2.3483350000    -4.4250910000     5.3988400000
   16      H       2.7825200000    -5.8241320000     4.3631160000
   17      H       1.0939300000    -5.4715310000     4.7487960000
   18      H       2.5826360000    -2.4179630000    -1.2028650000
   19      H       0.8472020000    -0.7578430000    -1.8241230000
   20      H       0.2815770000    -0.7492940000    -0.1287590000
   21      H       0.1465770000    -2.2274400000    -1.1131760000
   22      H       3.1632850000    -0.0153270000    -1.1925750000
   23      H       4.1130000000    -0.9161250000     0.0077190000
   24      H       2.7365130000     0.0714560000     0.5423940000
   25      O       4.0763560000    -5.0039770000    -0.4270650000
   26      O       2.0972970000    -4.7237420000    -1.2641840000
   27      O       0.3092540000    -2.8675380000     5.1546050000
   28      O       1.6004670000    -1.1462420000     4.8507640000
 ----------------------------------------------------------------

   11    -948.2872370361      6.58e-06  Convergence criterion met
 Total energy in the final basis set =     -948.2872370361

                    Orbital Energies (a.u.)
 --------------------------------------------------------------

 Alpha MOs
 -- Occupied --
-19.1587 -19.1559 -19.1407 -19.1368 -19.0416 -19.0395 -14.5407 -14.5234
-10.2110 -10.2053 -10.2020 -10.1952 -10.1656 -10.1648 -10.1604 -10.1466
-10.1408 -10.1403  -1.2230  -1.2025  -1.0478  -1.0269  -0.9682  -0.9632
 -0.8406  -0.8137  -0.7745  -0.7360  -0.7107  -0.6673  -0.6575  -0.6168
 -0.5855  -0.5704  -0.5414  -0.5384  -0.5330  -0.5187  -0.5062  -0.4972
 -0.4871  -0.4591  -0.4231  -0.4211  -0.4111  -0.3962  -0.3938  -0.3870
 -0.3794  -0.3668  -0.3601  -0.3584  -0.3388  -0.3291  -0.3281  -0.3255
 -0.3143  -0.3095  -0.3046  -0.3027  -0.3015  -0.2855  -0.2489  -0.2341
 -0.2233  -0.2147  -0.1434

          Ground-State Mulliken Net Atomic Charges

     Atom                 Charge (a.u.)
  ----------------------------------------
      1 C                    -0.421245
      2 C                    -0.709921
      3 C                     1.558555
      4 C                    -1.029369
      5 C                    -1.688481
      6 C                     2.236512
      7 O                    -0.622664
      8 O                    -0.542279
      9 C                    -0.311895
     10 C                     0.019025
     11 C                    -0.679373
     12 C                    -0.705161
     13 N                    -0.194470
     14 N                    -0.238994
     15 H                     0.176706
     16 H                     0.159667
     17 H                     0.188409
     18 H                     0.174973
     19 H                     0.144596
     20 H                     0.185359
     21 H                     0.135249
     22 H                     0.145759
     23 H                     0.140031
     24 H                     0.176668
     25 O                    -0.033312
     26 O                    -0.071102
     27 O                    -0.128932
     28 O                    -0.064311
  ----------------------------------------
  Sum of atomic charges =    -2.000000

                    Cartesian Multipole Moments
 -----------------------------------------------------------------
    Charge (ESU x 10^10)
                -9.6064
    Dipole Moment (Debye)
         X     -18.7250      Y      33.0510      Z     -21.2309
       Tot      43.5172
    Quadrupole Moments (Debye-Ang)
        XX    -163.5821     XY      84.1702     YY    -283.8314
        XZ     -25.9917     YZ      49.6137     ZZ    -201.7989

 Total job time:  58.68s(wall), 419.82s(cpu)
        *  Thank you very much for using Q-Chem.  Have a nice day.  *
