 Q-Chem 5.4, Q-Chem, Inc., Pleasanton, CA (2021)
 Q-Chem 5.4.0 for Intel X86 EM64T Linux

User input:
--------------------------------------------------------------
$molecule
-1 1
C                  5.0502890000     -2.9056590000     -0.3705900000
C                  5.8206070000     -2.0421900000     -1.1381990000
C                  5.2836020000     -0.8283590000     -1.5817470000
C                  3.7335170000     -2.5682270000     -0.0358500000
C                  3.1945660000     -1.3490750000     -0.4815430000
C                  3.9786940000     -0.4846600000     -1.2550620000
C                  2.9261830000     -3.5086040000      0.7877590000
C                  1.5667810000     -3.1335520000      1.1191770000
C                  1.0218940000     -1.8857010000      0.6603250000
C                  1.8011550000     -0.9677840000     -0.1404110000
C                  0.7765430000     -4.0069450000      1.9001960000
C                 -0.5681360000     -3.6396530000      2.2302790000
C                 -0.3012840000     -1.5558230000      1.0018550000
C                 -1.0719980000     -2.4457430000      1.7843630000
O                  3.4394230000     -4.5828420000      1.1651520000
O                  1.3406970000      0.1225740000     -0.5475340000
O                  1.2467090000     -5.1630080000      2.3385880000
H                  5.4424570000     -3.8504410000     -0.0152890000
H                  6.8402030000     -2.3095080000     -1.3941340000
H                  5.8870360000     -0.1552820000     -2.1812200000
H                  2.1792500000     -5.2414220000      2.0147780000
O                 -0.8757460000     -0.4110050000      0.6101440000
H                 -2.0910530000     -2.1836360000      2.0432920000
H                 -0.1938050000      0.0767960000      0.0795530000
H                  3.5391830000      0.4483170000     -1.5854290000
S                 -1.6647980000     -4.7274550000      3.2482930000
O                 -1.7607860000     -5.9687830000      2.4520560000
O                 -0.9430040000     -4.8452330000      4.5325600000
O                 -2.9217590000     -3.9447070000      3.3196080000
$end

$rem
BASIS  =  6-311++G(d,p)
GUI  =  2
JOB_TYPE  =  SP
METHOD  =  B3LYP
SCF_CONVERGENCE  = 8
SOLVENT_METHOD = sm12
$end

$smx
solvent dimethylformamide
charges CM5
$end

--------------------------------------------------------------

             Standard Nuclear Orientation (Angstroms)
    I     Atom           X                Y                Z
 ----------------------------------------------------------------
    1      C       5.0502890000    -2.9056590000    -0.3705900000
    2      C       5.8206070000    -2.0421900000    -1.1381990000
    3      C       5.2836020000    -0.8283590000    -1.5817470000
    4      C       3.7335170000    -2.5682270000    -0.0358500000
    5      C       3.1945660000    -1.3490750000    -0.4815430000
    6      C       3.9786940000    -0.4846600000    -1.2550620000
    7      C       2.9261830000    -3.5086040000     0.7877590000
    8      C       1.5667810000    -3.1335520000     1.1191770000
    9      C       1.0218940000    -1.8857010000     0.6603250000
   10      C       1.8011550000    -0.9677840000    -0.1404110000
   11      C       0.7765430000    -4.0069450000     1.9001960000
   12      C      -0.5681360000    -3.6396530000     2.2302790000
   13      C      -0.3012840000    -1.5558230000     1.0018550000
   14      C      -1.0719980000    -2.4457430000     1.7843630000
   15      O       3.4394230000    -4.5828420000     1.1651520000
   16      O       1.3406970000     0.1225740000    -0.5475340000
   17      O       1.2467090000    -5.1630080000     2.3385880000
   18      H       5.4424570000    -3.8504410000    -0.0152890000
   19      H       6.8402030000    -2.3095080000    -1.3941340000
   20      H       5.8870360000    -0.1552820000    -2.1812200000
   21      H       2.1792500000    -5.2414220000     2.0147780000
   22      O      -0.8757460000    -0.4110050000     0.6101440000
   23      H      -2.0910530000    -2.1836360000     2.0432920000
   24      H      -0.1938050000     0.0767960000     0.0795530000
   25      H       3.5391830000     0.4483170000    -1.5854290000
   26      S      -1.6647980000    -4.7274550000     3.2482930000
   27      O      -1.7607860000    -5.9687830000     2.4520560000
   28      O      -0.9430040000    -4.8452330000     4.5325600000
   29      O      -2.9217590000    -3.9447070000     3.3196080000
 ----------------------------------------------------------------

   16   -1462.8418528757      4.79e-09  Convergence criterion met
 Total energy in the final basis set =    -1462.9513492222

                    Orbital Energies (a.u.)
 --------------------------------------------------------------

 Alpha MOs
 -- Occupied --
-89.0384 -19.1656 -19.1620 -19.1376 -19.1371 -19.0807 -19.0797 -19.0797
-10.2868 -10.2867 -10.2764 -10.2714 -10.2190 -10.2123 -10.2117 -10.2115
-10.2109 -10.2043 -10.1989 -10.1985 -10.1981 -10.1978  -8.0969  -6.0595
 -6.0593  -6.0592  -1.1029  -1.0950  -1.0934  -1.0580  -1.0562  -0.9657
 -0.9654  -0.8970  -0.8801  -0.8229  -0.7818  -0.7787  -0.7679  -0.7080
 -0.6785  -0.6634  -0.6366  -0.6103  -0.5958  -0.5715  -0.5620  -0.5445
 -0.5349  -0.5033  -0.5005  -0.4885  -0.4736  -0.4650  -0.4636  -0.4573
 -0.4519  -0.4488  -0.4414  -0.4412  -0.4372  -0.4276  -0.4266  -0.4038
 -0.4000  -0.3852  -0.3834  -0.3776  -0.3679  -0.3372  -0.3234  -0.3212
 -0.3103  -0.2982  -0.2929  -0.2884  -0.2849  -0.2792  -0.2734  -0.2723
 -0.2437  -0.2349

          Ground-State Mulliken Net Atomic Charges

     Atom                 Charge (a.u.)
  ----------------------------------------
      1 C                     1.144887
      2 C                     0.859259
      3 C                     1.171979
      4 C                    -0.367611
      5 C                    -0.136595
      6 C                     1.231120
      7 C                    -0.751955
      8 C                     1.381448
      9 C                     1.504933
     10 C                    -0.985321
     11 C                    -1.297623
     12 C                    -2.024720
     13 C                    -0.979339
     14 C                    -1.615287
     15 O                    -0.313047
     16 O                    -0.268359
     17 O                    -0.323289
     18 H                     0.235210
     19 H                     0.368302
     20 H                     0.385854
     21 H                     0.409168
     22 O                    -0.238232
     23 H                     0.197660
     24 H                     0.392031
     25 H                     0.254421
     26 S                    -0.194145
     27 O                    -0.377529
     28 O                    -0.378511
     29 O                    -0.284709
  ----------------------------------------
  Sum of atomic charges =    -1.000000

                    Cartesian Multipole Moments
 -----------------------------------------------------------------
    Charge (ESU x 10^10)
                -4.8032
    Dipole Moment (Debye)
         X      11.2472      Y      23.7877      Z     -17.4608
       Tot      31.5790
    Quadrupole Moments (Debye-Ang)
        XX    -135.3769     XY     -38.9355     YY    -267.4347
        XZ      18.1488     YZ      82.9515     ZZ    -196.6235

 Total job time:  823.35s(wall), 6386.05s(cpu)
        *  Thank you very much for using Q-Chem.  Have a nice day.  *
