 Gaussian 16, Revision A.03,
 Gaussian 16:  ES64L-G16RevA.03 25-Dec-2016

 ----------------------------------------------------------------
 #P UB3LYP/6-311++G(d,p) SCRF=(PCM,Solvent=n,n-DiMethylFormamide)
 ----------------------------------------------------------------

 -------
 Reduced
 -------
 Symbolic Z-matrix:
 Charge = -2 Multiplicity = 1

                         Standard orientation:
 ---------------------------------------------------------------------
 Center     Atomic      Atomic             Coordinates (Angstroms)
 Number     Number       Type             X           Y           Z
 ---------------------------------------------------------------------
      1          6           0        0.035113   -1.390568   -0.099178
      2          6           0        1.227541   -0.703930   -0.062734
      3          6           0        1.227539    0.703853    0.062668
      4          6           0       -1.207686   -0.719147   -0.080413
      5          6           0       -1.207671    0.719191    0.080362
      6          6           0        0.035163    1.390563    0.099129
      7          6           0       -2.433470   -1.486138   -0.180578
      8          6           0       -3.631704   -0.701832   -0.074054
      9          6           0       -3.631664    0.701873    0.074096
     10          6           0       -2.433425    1.486184    0.180591
     11          8           0       -2.435171   -2.765367   -0.348884
     12          8           0       -2.435173    2.765413    0.348914
     13          1           0        0.004975   -2.474745   -0.117939
     14          1           0        0.005062    2.474738    0.117944
     15         35           0        2.885188   -1.755001    0.221096
     16         35           0        2.885297    1.754972   -0.221079
     17          6           0       -4.937333   -1.459089   -0.153727
     18          6           0       -4.937307    1.459135    0.153704
     19          1           0       -4.714364   -2.528571   -0.144224
     20          1           0       -5.498862   -1.236400   -1.075977
     21          1           0       -5.609208   -1.218910    0.682892
     22          1           0       -5.609454    1.218268   -0.682481
     23          1           0       -4.714466    2.528639    0.143423
     24          1           0       -5.498493    1.237063    1.076320
 ---------------------------------------------------------------------

 SCF Done:  E(UB3LYP) =  -5761.24312142     A.U. after   17 cycles

 The electronic state is 1-A.
 Alpha  occ. eigenvalues -- -482.82069-482.82069 -62.47338 -62.47338 -56.29364
 Alpha  occ. eigenvalues --  -56.29364 -56.28993 -56.28993 -56.28983 -56.28983
 Alpha  occ. eigenvalues --  -19.01743 -19.01742 -10.21642 -10.21596 -10.17197
 Alpha  occ. eigenvalues --  -10.17196 -10.16454 -10.16452 -10.14404 -10.14366
 Alpha  occ. eigenvalues --  -10.13586 -10.13586 -10.13195 -10.13147  -8.68279
 Alpha  occ. eigenvalues --   -8.68278  -6.51368  -6.51368  -6.50153  -6.50152
 Alpha  occ. eigenvalues --   -6.50129  -6.50128  -2.62461  -2.62461  -2.62121
 Alpha  occ. eigenvalues --   -2.62121  -2.62105  -2.62104  -2.61140  -2.61139
 Alpha  occ. eigenvalues --   -2.61139  -2.61138  -0.93651  -0.93273  -0.85913
 Alpha  occ. eigenvalues --   -0.79457  -0.78578  -0.77122  -0.72490  -0.71519
 Alpha  occ. eigenvalues --   -0.69839  -0.64461  -0.62521  -0.58497  -0.55407
 Alpha  occ. eigenvalues --   -0.52241  -0.48108  -0.45277  -0.44701  -0.42097
 Alpha  occ. eigenvalues --   -0.41645  -0.40823  -0.38739  -0.38568  -0.37338
 Alpha  occ. eigenvalues --   -0.36914  -0.36150  -0.35605  -0.35430  -0.33930
 Alpha  occ. eigenvalues --   -0.33873  -0.31924  -0.31274  -0.30772  -0.30465
 Alpha  occ. eigenvalues --   -0.29676  -0.28325  -0.27324  -0.23579  -0.22350
 Alpha  occ. eigenvalues --   -0.20503  -0.20227  -0.19281  -0.11296
 Alpha virt. eigenvalues --   -0.04143  -0.01847  -0.00169   0.00385   0.00410
 Alpha virt. eigenvalues --    0.00916   0.01717   0.03074   0.03402   0.03460
 Alpha virt. eigenvalues --    0.04291   0.04654   0.05447   0.05715   0.05892

  Beta  occ. eigenvalues -- -482.82069-482.82069 -62.47338 -62.47338 -56.29364
  Beta  occ. eigenvalues --  -56.29364 -56.28993 -56.28993 -56.28983 -56.28983
  Beta  occ. eigenvalues --  -19.01743 -19.01742 -10.21642 -10.21596 -10.17197
  Beta  occ. eigenvalues --  -10.17196 -10.16454 -10.16452 -10.14404 -10.14366
  Beta  occ. eigenvalues --  -10.13586 -10.13586 -10.13195 -10.13147  -8.68279
  Beta  occ. eigenvalues --   -8.68278  -6.51368  -6.51368  -6.50153  -6.50152
  Beta  occ. eigenvalues --   -6.50129  -6.50128  -2.62461  -2.62461  -2.62121
  Beta  occ. eigenvalues --   -2.62121  -2.62105  -2.62104  -2.61140  -2.61139
  Beta  occ. eigenvalues --   -2.61139  -2.61138  -0.93651  -0.93273  -0.85913
  Beta  occ. eigenvalues --   -0.79457  -0.78578  -0.77122  -0.72490  -0.71519
  Beta  occ. eigenvalues --   -0.69839  -0.64461  -0.62521  -0.58497  -0.55407
  Beta  occ. eigenvalues --   -0.52241  -0.48108  -0.45277  -0.44701  -0.42097
  Beta  occ. eigenvalues --   -0.41645  -0.40823  -0.38739  -0.38568  -0.37338
  Beta  occ. eigenvalues --   -0.36914  -0.36150  -0.35605  -0.35430  -0.33930
  Beta  occ. eigenvalues --   -0.33873  -0.31924  -0.31274  -0.30772  -0.30465
  Beta  occ. eigenvalues --   -0.29676  -0.28325  -0.27324  -0.23579  -0.22350
  Beta  occ. eigenvalues --   -0.20503  -0.20227  -0.19281  -0.11296
  Beta virt. eigenvalues --   -0.04143  -0.01847  -0.00169   0.00385   0.00410
  Beta virt. eigenvalues --    0.00916   0.01717   0.03074   0.03402   0.03460
  Beta virt. eigenvalues --    0.04291   0.04654   0.05447   0.05715   0.05892

 Mulliken charges and spin densities:
               1          2
     1  C   -0.313078  -0.000000
     2  C    0.125573   0.000000
     3  C    0.125762   0.000000
     4  C    0.315807   0.000000
     5  C    0.315322   0.000000
     6  C   -0.313130  -0.000000
     7  C   -1.011504  -0.000000
     8  C    0.704413   0.000000
     9  C    0.704462  -0.000000
    10  C   -1.011565   0.000000
    11  O   -0.663224   0.000000
    12  O   -0.663238  -0.000000
    13  H    0.202394   0.000000
    14  H    0.202388   0.000000
    15  Br  -0.218699  -0.000000
    16  Br  -0.218750   0.000000
    17  C   -0.582358  -0.000000
    18  C   -0.582195  -0.000000
    19  H    0.171270   0.000000
    20  H    0.139977  -0.000000
    21  H    0.129566   0.000000
    22  H    0.129523   0.000000
    23  H    0.171277   0.000000
    24  H    0.140008  -0.000000
 Sum of Mulliken charges =  -2.00000   0.00000

 Dipole moment (field-independent basis, Debye):
    X=             13.2791    Y=             -0.0007    Z=             -0.0000  Tot=             13.2791
 Quadrupole moment (field-independent basis, Debye-Ang):
   XX=           -190.3145   YY=           -186.1602   ZZ=           -130.1239
   XY=              0.0000   XZ=              0.0007   YZ=             -6.9317

 Normal termination of Gaussian 16 at Sun Jan 21 08:45:36 2024.
