 Q-Chem 5.4, Q-Chem, Inc., Pleasanton, CA (2021)
 Q-Chem 5.4.0 for Intel X86 EM64T Linux

User input:
--------------------------------------------------------------
$molecule
-2 1
C                 -2.1811100000     -0.3805740000      0.0028100000
C                 -0.6944090000     -0.1299550000      0.0016540000
C                 -0.1932670000      1.1834550000     -0.0436570000
C                  1.1971880000      1.5258970000     -0.0496270000
O                  1.6450150000      2.7540800000     -0.0918980000
C                  2.0429100000      0.3711330000     -0.0029740000
C                  1.5545690000     -0.9429690000      0.0427610000
C                  0.1672820000     -1.2781040000      0.0472780000
O                 -0.2917200000     -2.5057580000      0.0878740000
H                 -2.4868700000     -0.9823180000      0.8730350000
H                 -2.4976080000     -0.9664200000     -0.8757900000
H                 -2.7417710000      0.5644660000      0.0117360000
H                 -0.8998290000      2.0174580000     -0.0772350000
H                  3.1212020000      0.5477510000     -0.0033760000
H                  2.2584170000     -1.7781430000      0.0774090000
$end
$rem
MAX_SCF_CYCLES=200
BASIS  =  6-311++G(d,p)
GUI  =  2
JOB_TYPE  =  SP
METHOD  =  B3LYP
SOLVENT_METHOD = COSMO
$end
$solvent
dielectric 37.219
opticaldielectric 1.43
$end

--------------------------------------------------------------

             Standard Nuclear Orientation (Angstroms)
    I     Atom           X                Y                Z
 ----------------------------------------------------------------
    1      C       1.8452129607    -1.7088284907     0.0004839472
    2      C       0.7460709499    -0.6768508359     0.0006916915
    3      C      -0.6034282948    -1.0732015110     0.0003045998
    4      C      -1.7175115837    -0.1734876225    -0.0004800219
    5      O      -2.9668544740    -0.5606718928    -0.0006345984
    6      C      -1.3092841893     1.1991930592     0.0000098158
    7      C       0.0330298431     1.6061638317     0.0007293164
    8      C       1.1393446108     0.7045161453     0.0003097006
    9      O       2.3949863221     1.0824407775    -0.0011326104
   10      H       2.5313718395    -1.5657813820     0.8499544219
   11      H       2.4803577845    -1.6294135435    -0.8970731812
   12      H       1.4327774057    -2.7263266925     0.0464769288
   13      H      -0.8403094231    -2.1408183010     0.0005627197
   14      H      -2.1023707563     1.9508054950     0.0004102884
   15      H       0.2725125851     2.6723558898     0.0015121967
 ----------------------------------------------------------------

   12    -420.8534791143      4.87e-06  Convergence criterion met
 Total energy in the final basis set =     -420.8534791143
    5    -421.1683343371      8.01e-06  Convergence criterion met
 Total energy in the final basis set =     -421.1683343371

                    Orbital Energies (a.u.)
 --------------------------------------------------------------

 Alpha MOs
 -- Occupied --
-19.0208 -19.0184 -10.1700 -10.1657 -10.1391 -10.1317 -10.1233 -10.1219
-10.1213  -0.9273  -0.9230  -0.7812  -0.7238  -0.6616  -0.6305  -0.5518
 -0.5149  -0.4333  -0.4274  -0.4017  -0.3912  -0.3688  -0.3588  -0.3518
 -0.3427  -0.3216  -0.3099  -0.3090  -0.2277  -0.2088  -0.2014  -0.1976
 -0.1233

          Ground-State Mulliken Net Atomic Charges

     Atom                 Charge (a.u.)
  ----------------------------------------
      1 C                    -0.495664
      2 C                     1.122335
      3 C                    -0.688663
      4 C                    -0.348794
      5 O                    -0.810018
      6 C                    -0.046761
      7 C                    -0.015338
      8 C                    -0.750719
      9 O                    -0.796582
     10 H                     0.144381
     11 H                     0.145825
     12 H                     0.136248
     13 H                     0.117011
     14 H                     0.143685
     15 H                     0.143054
  ----------------------------------------
  Sum of atomic charges =    -2.000000

                    Cartesian Multipole Moments
 -----------------------------------------------------------------
    Charge (ESU x 10^10)
                -9.6064
    Dipole Moment (Debye)
         X       3.2046      Y      -2.6859      Z       0.0033
       Tot       4.1813
    Quadrupole Moments (Debye-Ang)
        XX    -123.9995     XY     -17.9903     YY     -68.3957
        XZ      -0.0008     YZ       0.0110     ZZ     -62.6987

 Total job time:  15.41s(wall), 98.29s(cpu)
        *  Thank you very much for using Q-Chem.  Have a nice day.  *
