 Gaussian 16, Revision A.03,
 Gaussian 16:  ES64L-G16RevA.03 25-Dec-2016

 ----------------------------------------------------------------------
 #P UB3LYP/6-311++G(d,p) nosym opt freq SCRF=(PCM,Solvent=n,n-DiMethylF
 ormamide)
 ----------------------------------------------------------------------

 -------
 Reduced
 -------
 Symbolic Z-matrix:
 Charge = -2 Multiplicity = 1

 SCF Done:  E(UB3LYP) =  -767.820130127     A.U. after   17 cycles
 SCF Done:  E(UB3LYP) =  -767.820726412     A.U. after   13 cycles
 SCF Done:  E(UB3LYP) =  -767.820967733     A.U. after   12 cycles
 SCF Done:  E(UB3LYP) =  -767.820986284     A.U. after   11 cycles
 SCF Done:  E(UB3LYP) =  -767.820993005     A.U. after   12 cycles
 SCF Done:  E(UB3LYP) =  -767.820997584     A.U. after   10 cycles
 SCF Done:  E(UB3LYP) =  -767.821001059     A.U. after   11 cycles
 SCF Done:  E(UB3LYP) =  -767.821002590     A.U. after   10 cycles
 SCF Done:  E(UB3LYP) =  -767.821003060     A.U. after    9 cycles
 SCF Done:  E(UB3LYP) =  -767.821003207     A.U. after    9 cycles
 SCF Done:  E(UB3LYP) =  -767.821003251     A.U. after    8 cycles
 SCF Done:  E(UB3LYP) =  -767.821003274     A.U. after    8 cycles
 Optimization completed.
    -- Stationary point found.
 Normal termination of Gaussian 16 at Sat Feb 10 18:06:59 2024.

 ----------------------------------------------------------------------
 #P Geom=AllCheck Guess=TCheck SCRF=Check GenChk UB3LYP/6-311++G(d,p) F
 req
 ----------------------------------------------------------------------

 Structure from the checkpoint file:  "127-an.chk"
 -------
 Reduced
 -------
 Charge = -2 Multiplicity = 1

                          Input orientation:
 ---------------------------------------------------------------------
 Center     Atomic      Atomic             Coordinates (Angstroms)
 Number     Number       Type             X           Y           Z
 ---------------------------------------------------------------------
      1          6           0       -2.975832   -2.052789   -0.041427
      2          6           0       -2.324522   -0.682812   -0.059971
      3          6           0       -3.177477    0.395621   -0.108304
      4          6           0       -2.696571    1.726481   -0.115235
      5          6           0       -1.350806    2.011893   -0.085379
      6          6           0       -0.978873    3.482701   -0.072778
      7          6           0       -0.387534    0.927675   -0.051332
      8          6           0        1.030013    1.211650   -0.043226
      9          8           0        1.526587    2.415056   -0.098924
     10          6           0        1.911746    0.074850    0.030721
     11          6           0        3.321505    0.277201    0.065252
     12          6           0        4.214720   -0.767987    0.135993
     13          6           0        3.729543   -2.104803    0.173872
     14          6           0        2.372779   -2.335606    0.139586
     15          6           0        1.421103   -1.278173    0.067851
     16          6           0        0.015106   -1.588304    0.030999
     17          8           0       -0.375245   -2.831241    0.050129
     18          6           0       -0.891188   -0.463755   -0.025934
     19          1           0       -2.726444   -2.613345    0.860984
     20          1           0       -2.647846   -2.676831   -0.873363
     21          1           0       -4.063701   -1.933808   -0.092596
     22          1           0       -4.250150    0.223680   -0.134574
     23          1           0       -3.412313    2.543835   -0.138607
     24          1           0       -0.372598    3.764418   -0.934344
     25          1           0       -0.387259    3.748339    0.804646
     26          1           0       -1.894852    4.083737   -0.073316
     27          1           0        3.674868    1.301390    0.032334
     28          1           0        5.283391   -0.576132    0.162200
     29          1           0        4.427056   -2.935448    0.229074
     30          1           0        1.984796   -3.347487    0.165667
 ---------------------------------------------------------------------

 SCF Done:  E(UB3LYP) =  -767.821003274     A.U. after    1 cycles

 Alpha  occ. eigenvalues --  -19.00731 -19.00723 -10.16862 -10.16855 -10.15276
 Alpha  occ. eigenvalues --  -10.15272 -10.14660 -10.14616 -10.14297 -10.14290
 Alpha  occ. eigenvalues --  -10.13844 -10.13812 -10.13671 -10.13658 -10.13486
 Alpha  occ. eigenvalues --  -10.13439 -10.13126 -10.13084  -0.92461  -0.92041
 Alpha  occ. eigenvalues --   -0.82249  -0.81855  -0.75571  -0.74854  -0.71853
 Alpha  occ. eigenvalues --   -0.69987  -0.68559  -0.64439  -0.61491  -0.59732
 Alpha  occ. eigenvalues --   -0.58436  -0.54207  -0.50730  -0.50185  -0.47368
 Alpha  occ. eigenvalues --   -0.44035  -0.42984  -0.42843  -0.42267  -0.39872
 Alpha  occ. eigenvalues --   -0.39562  -0.38710  -0.37843  -0.37507  -0.36606
 Alpha  occ. eigenvalues --   -0.36412  -0.36321  -0.34839  -0.34292  -0.33249
 Alpha  occ. eigenvalues --   -0.32097  -0.31153  -0.31119  -0.30784  -0.29470
 Alpha  occ. eigenvalues --   -0.29246  -0.22576  -0.21572  -0.21139  -0.21079
 Alpha  occ. eigenvalues --   -0.18747  -0.18336  -0.10017
 Alpha virt. eigenvalues --   -0.01989  -0.00022   0.00512   0.00741   0.01069
 Alpha virt. eigenvalues --    0.02034   0.02164   0.02416   0.03878   0.04302
 Alpha virt. eigenvalues --    0.04357   0.04651   0.04662   0.06200   0.06437

  Beta  occ. eigenvalues --  -19.00731 -19.00723 -10.16862 -10.16855 -10.15276
  Beta  occ. eigenvalues --  -10.15272 -10.14660 -10.14616 -10.14297 -10.14290
  Beta  occ. eigenvalues --  -10.13844 -10.13812 -10.13671 -10.13658 -10.13486
  Beta  occ. eigenvalues --  -10.13439 -10.13126 -10.13084  -0.92461  -0.92041
  Beta  occ. eigenvalues --   -0.82249  -0.81855  -0.75571  -0.74854  -0.71853
  Beta  occ. eigenvalues --   -0.69987  -0.68559  -0.64439  -0.61491  -0.59732
  Beta  occ. eigenvalues --   -0.58436  -0.54207  -0.50730  -0.50185  -0.47368
  Beta  occ. eigenvalues --   -0.44035  -0.42984  -0.42843  -0.42267  -0.39872
  Beta  occ. eigenvalues --   -0.39562  -0.38710  -0.37843  -0.37507  -0.36606
  Beta  occ. eigenvalues --   -0.36412  -0.36321  -0.34839  -0.34292  -0.33249
  Beta  occ. eigenvalues --   -0.32097  -0.31153  -0.31119  -0.30784  -0.29470
  Beta  occ. eigenvalues --   -0.29246  -0.22576  -0.21572  -0.21139  -0.21079
  Beta  occ. eigenvalues --   -0.18747  -0.18336  -0.10017
  Beta virt. eigenvalues --   -0.01989  -0.00022   0.00512   0.00741   0.01069
  Beta virt. eigenvalues --    0.02034   0.02164   0.02416   0.03878   0.04302
  Beta virt. eigenvalues --    0.04357   0.04651   0.04662   0.06200   0.06437

 Mulliken charges and spin densities:
               1          2
     1  C   -0.343602   0.000000
     2  C    0.860119  -0.000000
     3  C   -0.476170   0.000000
     4  C   -0.460229   0.000000
     5  C    0.851021  -0.000000
     6  C   -0.345890  -0.000000
     7  C    0.158325  -0.000000
     8  C   -0.975846  -0.000000
     9  O   -0.630500  -0.000000
    10  C    0.140276   0.000000
    11  C   -0.031532  -0.000000
    12  C   -0.546570   0.000000
    13  C   -0.545305   0.000000
    14  C   -0.034166   0.000000
    15  C    0.138555   0.000000
    16  C   -0.943359  -0.000000
    17  O   -0.630139   0.000000
    18  C    0.162652   0.000000
    19  H    0.148377  -0.000000
    20  H    0.149982  -0.000000
    21  H    0.119145   0.000000
    22  H    0.104569   0.000000
    23  H    0.105158   0.000000
    24  H    0.150030   0.000000
    25  H    0.148558   0.000000
    26  H    0.118888   0.000000
    27  H    0.149662   0.000000
    28  H    0.153688   0.000000
    29  H    0.153731   0.000000
    30  H    0.150573   0.000000
 Sum of Mulliken charges =  -2.00000  -0.00000

 Dipole moment (field-independent basis, Debye):
    X=             -4.8995    Y=              1.7569    Z=              0.1611  Tot=              5.2075
 Quadrupole moment (field-independent basis, Debye-Ang):
   XX=           -142.5399   YY=           -165.2951   ZZ=           -119.1102
   XY=             -9.5646   XZ=             -0.0426   YZ=              1.5081

  Exact polarizability: 565.493 -55.796 430.617  12.136  -9.721 176.927
 Approx polarizability: 624.043 -52.312 497.795  13.103 -11.617 197.132

                      1                      2                      3
                      A                      A                      A
 Frequencies --     45.4302                51.2236                99.5963
 Red. masses --      3.8670                 5.8590                 3.2520
 Frc consts  --      0.0047                 0.0091                 0.0190
 IR Inten    --      0.1286                23.7668                 6.4168

                      4                      5                      6
                      A                      A                      A
 Frequencies --    134.2266               171.7594               203.4262
 Red. masses --      4.0806                 6.3628                 1.0939
 Frc consts  --      0.0433                 0.1106                 0.0267
 IR Inten    --      0.1941                 1.0628                 0.3943

                      7                      8                      9
                      A                      A                      A
 Frequencies --    215.3963               255.7539               268.2604
 Red. masses --      4.0770                 2.2346                 1.4627
 Frc consts  --      0.1114                 0.0861                 0.0620
 IR Inten    --     24.4289                 0.1088                 1.4895

                     10                     11                     12
                      A                      A                      A
 Frequencies --    313.6068               324.3854               327.8623
 Red. masses --      3.5256                 4.3936                 3.6930
 Frc consts  --      0.2043                 0.2724                 0.2339
 IR Inten    --      6.0703                 0.5237                 0.4868

                     13                     14                     15
                      A                      A                      A
 Frequencies --    348.4795               378.0840               391.8242
 Red. masses --      6.3132                12.1380                 7.2388
 Frc consts  --      0.4517                 1.0223                 0.6548
 IR Inten    --      6.1000                 2.0388                 0.0844

                     16                     17                     18
                      A                      A                      A
 Frequencies --    400.9259               446.4739               466.2027
 Red. masses --      4.6993                 3.2361                 5.3383
 Frc consts  --      0.4451                 0.3801                 0.6836
 IR Inten    --      6.4448                 2.1232                 3.0619

                     19                     20                     21
                      A                      A                      A
 Frequencies --    479.1001               505.1306               510.8743
 Red. masses --      4.1146                 3.8817                 8.6921
 Frc consts  --      0.5565                 0.5836                 1.3366
 IR Inten    --      0.0780                 0.0690                 1.5079

                     22                     23                     24
                      A                      A                      A
 Frequencies --    574.3388               587.7509               629.7579
 Red. masses --      3.4774                 5.0112                 4.0096
 Frc consts  --      0.6758                 1.0199                 0.9369
 IR Inten    --     44.9570                71.2791                 0.1789

                     25                     26                     27
                      A                      A                      A
 Frequencies --    650.7913               699.0343               715.5980
 Red. masses --      6.4347                 6.2926                 2.1613
 Frc consts  --      1.6057                 1.8117                 0.6521
 IR Inten    --      1.4881                 0.0269                84.4952

                     28                     29                     30
                      A                      A                      A
 Frequencies --    736.7785               753.1082               778.6657
 Red. masses --      4.9360                 5.4346                 2.1834
 Frc consts  --      1.5787                 1.8161                 0.7800
 IR Inten    --      0.2516                32.2980                31.6401

                     31                     32                     33
                      A                      A                      A
 Frequencies --    791.2610               809.6266               840.5305
 Red. masses --      1.2335                 3.8105                 6.3805
 Frc consts  --      0.4550                 1.4717                 2.6559
 IR Inten    --     67.7920                 0.0240                30.5238

                     34                     35                     36
                      A                      A                      A
 Frequencies --    855.0703               871.3151               880.8689
 Red. masses --      1.7528                 6.5427                 1.3321
 Frc consts  --      0.7551                 2.9266                 0.6090
 IR Inten    --      0.4231               106.3799                 0.1092

                     37                     38                     39
                      A                      A                      A
 Frequencies --    942.4542               971.7059               979.7345
 Red. masses --      6.3416                 1.8136                 1.3382
 Frc consts  --      3.3187                 1.0089                 0.7568
 IR Inten    --     54.3121                 6.1886                 3.8143

                     40                     41                     42
                      A                      A                      A
 Frequencies --    988.5657              1013.4479              1032.9140
 Red. masses --      1.2626                 2.0433                 1.4313
 Frc consts  --      0.7270                 1.2364                 0.8997
 IR Inten    --      1.6963               127.4451                41.6963

                     43                     44                     45
                      A                      A                      A
 Frequencies --   1048.1721              1053.4363              1073.9191
 Red. masses --      1.5227                 1.5243                 2.6611
 Frc consts  --      0.9857                 0.9966                 1.8082
 IR Inten    --      2.0561                 4.9112                11.2722

                     46                     47                     48
                      A                      A                      A
 Frequencies --   1097.0756              1106.7039              1156.3393
 Red. masses --      2.4508                 2.0359                 1.6763
 Frc consts  --      1.7379                 1.4692                 1.3206
 IR Inten    --    311.2879               737.9211               136.1490

                     49                     50                     51
                      A                      A                      A
 Frequencies --   1168.4868              1191.0605              1213.7877
 Red. masses --      1.7031                 2.5576                 2.7533
 Frc consts  --      1.3701                 2.1377                 2.3900
 IR Inten    --    541.6058                70.8638               170.1270

                     52                     53                     54
                      A                      A                      A
 Frequencies --   1231.6716              1243.9128              1258.5806
 Red. masses --      3.3465                 2.4320                 5.9995
 Frc consts  --      2.9911                 2.2171                 5.5992
 IR Inten    --     22.1292               525.3380                69.2348

                     55                     56                     57
                      A                      A                      A
 Frequencies --   1332.3919              1342.3524              1364.2491
 Red. masses --      3.1801                 8.3401                 2.2151
 Frc consts  --      3.3263                 8.8543                 2.4291
 IR Inten    --   2385.2523               404.0691               117.9739

                     58                     59                     60
                      A                      A                      A
 Frequencies --   1377.4566              1404.3111              1408.8879
 Red. masses --      2.6172                 1.2690                 1.2587
 Frc consts  --      2.9258                 1.4744                 1.4720
 IR Inten    --     22.9277                11.0176                 5.1233

                     61                     62                     63
                      A                      A                      A
 Frequencies --   1435.5315              1438.6328              1449.9889
 Red. masses --      2.5781                 5.7455                 1.0583
 Frc consts  --      3.1302                 7.0061                 1.3110
 IR Inten    --    226.2705                15.4933                 8.0060

                     64                     65                     66
                      A                      A                      A
 Frequencies --   1456.4129              1472.5863              1473.3418
 Red. masses --      1.0493                 1.2507                 2.6980
 Frc consts  --      1.3114                 1.5980                 3.4507
 IR Inten    --      6.3061                96.4607                27.7436

                     67                     68                     69
                      A                      A                      A
 Frequencies --   1479.3992              1483.6529              1547.6267
 Red. masses --      1.2016                 4.0016                 6.2043
 Frc consts  --      1.5495                 5.1898                 8.7555
 IR Inten    --     41.9800                 1.4865               191.1454

                     70                     71                     72
                      A                      A                      A
 Frequencies --   1592.8027              1599.5043              1603.4116
 Red. masses --      7.4612                 4.4801                 5.1475
 Frc consts  --     11.1528                 6.7532                 7.7971
 IR Inten    --      0.1948                91.4745                 0.3949

                     73                     74                     75
                      A                      A                      A
 Frequencies --   3012.5475              3013.0995              3085.2513
 Red. masses --      1.0463                 1.0464                 1.0907
 Frc consts  --      5.5947                 5.5970                 6.1171
 IR Inten    --    130.0282               179.1846                 7.2216

                     76                     77                     78
                      A                      A                      A
 Frequencies --   3085.4217              3097.8922              3099.7180
 Red. masses --      1.0907                 1.0984                 1.0968
 Frc consts  --      6.1174                 6.2107                 6.2092
 IR Inten    --     67.2507                30.3699                34.0653

                     79                     80                     81
                      A                      A                      A
 Frequencies --   3124.3764              3135.6432              3143.8151
 Red. masses --      1.0852                 1.0848                 1.0927
 Frc consts  --      6.2416                 6.2842                 6.3633
 IR Inten    --     68.9795                30.5818               129.1959

                     82                     83                     84
                      A                      A                      A
 Frequencies --   3152.2081              3175.8785              3180.6204
 Red. masses --      1.0902                 1.0908                 1.0917
 Frc consts  --      6.3825                 6.4825                 6.5070
 IR Inten    --     48.2244                42.3524                71.7587

 - Thermochemistry -
 -------------------
 Temperature   298.150 Kelvin.  Pressure   1.00000 Atm.
 Atom     1 has atomic number  6 and mass  12.00000

 Molecular mass:   236.08373 amu.
 Principal axes and moments of inertia in atomic units:
                           1         2         3
     Eigenvalues --  2659.168234690.714767326.99653
           X            0.93976   0.34084  -0.02628
           Y           -0.34015   0.93997   0.02742
           Z            0.03405  -0.01683   0.99928
 This molecule is an asymmetric top.
 Rotational symmetry number  1.
 Warning -- assumption of classical behavior for rotation
           may cause significant error
 Rotational temperatures (Kelvin)      0.03257     0.01846     0.01182
 Rotational constants (GHZ):           0.67869     0.38475     0.24631
 Zero-point vibrational energy     603237.9 (Joules/Mol)
                                  144.17732 (Kcal/Mol)
 Warning -- explicit consideration of  23 degrees of freedom as
           vibrations may cause significant error
 Vibrational temperatures:     65.36    73.70   143.30   193.12   247.12
          (Kelvin)            292.68   309.91   367.97   385.97   451.21
                              466.72   471.72   501.38   543.98   563.75
                              576.84   642.38   670.76   689.32   726.77
                              735.03   826.35   845.64   906.08   936.34
                             1005.75  1029.59  1060.06  1083.55  1120.33
                             1138.45  1164.87  1209.34  1230.26  1253.63
                             1267.37  1355.98  1398.07  1409.62  1422.33
                             1458.13  1486.13  1508.09  1515.66  1545.13
                             1578.45  1592.30  1663.71  1681.19  1713.67
                             1746.37  1772.10  1789.71  1810.82  1917.01
                             1931.35  1962.85  1981.85  2020.49  2027.08
                             2065.41  2069.87  2086.21  2095.45  2118.72
                             2119.81  2128.53  2134.65  2226.69  2291.69
                             2301.33  2306.95  4334.38  4335.18  4438.99
                             4439.23  4457.18  4459.80  4495.28  4511.49
                             4523.25  4535.32  4569.38  4576.20

 Zero-point correction=                           0.229761 (Hartree/Particle)
 Thermal correction to Energy=                    0.244127
 Thermal correction to Enthalpy=                  0.245071
 Thermal correction to Gibbs Free Energy=         0.188845
 Sum of electronic and zero-point Energies=           -767.591242
 Sum of electronic and thermal Energies=              -767.576876
 Sum of electronic and thermal Enthalpies=            -767.575932
 Sum of electronic and thermal Free Energies=         -767.632158

                     E (Thermal)             CV                S
                      KCal/Mol        Cal/Mol-Kelvin    Cal/Mol-Kelvin
 Total                  153.192             58.440            118.338
 Electronic               0.000              0.000              0.000
 Translational            0.889              2.981             42.279
 Rotational               0.889              2.981             32.880
 Vibrational            151.415             52.478             43.180
 Vibration     1          0.595              1.979              5.007
 Vibration     2          0.595              1.977              4.770
 Vibration     3          0.604              1.949              3.462
 Vibration     4          0.613              1.919              2.885
 Vibration     5          0.626              1.877              2.416
 Vibration     6          0.639              1.835              2.102
 Vibration     7          0.645              1.818              1.997
 Vibration     8          0.666              1.753              1.691
 Vibration     9          0.673              1.731              1.607
 Vibration    10          0.701              1.648              1.343
 Vibration    11          0.709              1.627              1.288
 Vibration    12          0.711              1.620              1.271
 Vibration    13          0.726              1.578              1.173
 Vibration    14          0.748              1.517              1.047
 Vibration    15          0.759              1.488              0.993
 Vibration    16          0.767              1.468              0.959
 Vibration    17          0.806              1.369              0.807
 Vibration    18          0.824              1.325              0.748
 Vibration    19          0.836              1.296              0.712
 Vibration    20          0.860              1.239              0.645
 Vibration    21          0.866              1.226              0.631
 Vibration    22          0.931              1.087              0.496
 Vibration    23          0.945              1.058              0.471

 Optimization completed on the basis of negligible forces.
    -- Stationary point found.
 Normal termination of Gaussian 16 at Sat Feb 10 18:47:41 2024.
