 Gaussian 16, Revision A.03,
 Gaussian 16:  ES64L-G16RevA.03 25-Dec-2016

 ----------------------------------------------------------------
 #P UB3LYP/6-311++G(d,p) SCRF=(PCM,Solvent=n,n-DiMethylFormamide)
 ----------------------------------------------------------------

 ------------------
 Radical PCM in DMF
 ------------------
 Symbolic Z-matrix:
 Charge = -1 Multiplicity = 2

                         Standard orientation:
 ---------------------------------------------------------------------
 Center     Atomic      Atomic             Coordinates (Angstroms)
 Number     Number       Type             X           Y           Z
 ---------------------------------------------------------------------
      1          6           0       -1.399111   -1.382199   -0.000139
      2          6           0       -2.611724   -0.711574    0.000026
      3          6           0       -2.611747    0.711559   -0.000021
      4          6           0       -0.163819   -0.706968   -0.000254
      5          6           0       -0.163836    0.707056   -0.000289
      6          6           0       -1.399156    1.382242   -0.000247
      7          6           0        1.092234   -1.470517   -0.000208
      8          6           0        2.316057   -0.695611    0.000027
      9          6           0        2.316052    0.695582    0.000128
     10          6           0        1.092251    1.470544   -0.000206
     11          8           0        1.085349   -2.734456   -0.000283
     12          8           0        1.085440    2.734487   -0.000342
     13          6           0        3.612292   -1.468579    0.000204
     14          6           0        3.612299    1.468517    0.000498
     15          1           0       -1.367631   -2.466921   -0.000143
     16          6           0       -3.910935   -1.484105    0.000331
     17          6           0       -3.910989    1.484064    0.000257
     18          1           0        3.394535   -2.536888   -0.000662
     19          1           0        4.224878   -1.235362    0.880624
     20          1           0        4.225914   -1.233938   -0.879089
     21          1           0        4.225030    1.235651   -0.879927
     22          1           0        4.225790    1.233537    0.879799
     23          1           0        3.394526    2.536825    0.001766
     24          1           0       -1.367768    2.466969   -0.000311
     25          1           0       -3.718928   -2.559465    0.000180
     26          1           0       -4.525980   -1.254534   -0.878879
     27          1           0       -4.525414   -1.254675    0.879971
     28          1           0       -4.525925    1.254605   -0.879057
     29          1           0       -3.719006    2.559427    0.000293
     30          1           0       -4.525553    1.254458    0.879792
 ---------------------------------------------------------------------

 SCF Done:  E(UB3LYP) =  -692.716288025     A.U. after   18 cycles

 The electronic state is 2-A.
 Alpha  occ. eigenvalues --  -19.06808 -19.06807 -10.21251 -10.21250 -10.17553
 Alpha  occ. eigenvalues --  -10.17509 -10.16292 -10.16246 -10.16194 -10.16193
 Alpha  occ. eigenvalues --  -10.16187 -10.16133 -10.16021 -10.16020 -10.14978
 Alpha  occ. eigenvalues --  -10.14977  -0.99280  -0.99026  -0.85707  -0.81465
 Alpha  occ. eigenvalues --   -0.77386  -0.75976  -0.71995  -0.69929  -0.69631
 Alpha  occ. eigenvalues --   -0.64782  -0.63367  -0.58961  -0.56542  -0.54300
 Alpha  occ. eigenvalues --   -0.49988  -0.47020  -0.46861  -0.43456  -0.43404
 Alpha  occ. eigenvalues --   -0.42713  -0.42037  -0.41652  -0.40391  -0.39615
 Alpha  occ. eigenvalues --   -0.39198  -0.38770  -0.38339  -0.38166  -0.37889
 Alpha  occ. eigenvalues --   -0.37310  -0.36401  -0.36208  -0.34916  -0.33027
 Alpha  occ. eigenvalues --   -0.32838  -0.32576  -0.25742  -0.24599  -0.24013
 Alpha  occ. eigenvalues --   -0.22810  -0.22806  -0.14409
 Alpha virt. eigenvalues --   -0.02416  -0.00607  -0.00581   0.00076   0.01161
 Alpha virt. eigenvalues --    0.02251   0.02272   0.03045   0.03689   0.03826
 Alpha virt. eigenvalues --    0.04351   0.04715   0.05331   0.05533   0.05745

  Beta  occ. eigenvalues --  -19.06202 -19.06201 -10.21073 -10.21071 -10.17524
  Beta  occ. eigenvalues --  -10.17479 -10.16247 -10.16200 -10.16196 -10.16195
  Beta  occ. eigenvalues --  -10.16049 -10.16009 -10.16009 -10.15992 -10.14989
  Beta  occ. eigenvalues --  -10.14988  -0.98218  -0.97937  -0.85552  -0.81006
  Beta  occ. eigenvalues --   -0.77264  -0.75863  -0.71627  -0.69794  -0.69450
  Beta  occ. eigenvalues --   -0.64659  -0.62700  -0.58912  -0.56240  -0.53951
  Beta  occ. eigenvalues --   -0.49833  -0.46831  -0.46634  -0.43236  -0.43068
  Beta  occ. eigenvalues --   -0.42298  -0.41974  -0.41458  -0.39790  -0.39559
  Beta  occ. eigenvalues --   -0.38716  -0.38304  -0.38068  -0.37840  -0.37778
  Beta  occ. eigenvalues --   -0.37241  -0.36257  -0.34781  -0.33928  -0.32874
  Beta  occ. eigenvalues --   -0.32440  -0.31771  -0.23947  -0.23453  -0.23325
  Beta  occ. eigenvalues --   -0.22260  -0.22163
  Beta virt. eigenvalues --   -0.07821  -0.01713  -0.00591   0.00084   0.00477
  Beta virt. eigenvalues --    0.01172   0.02255   0.02290   0.03141   0.03697
  Beta virt. eigenvalues --    0.03841   0.04362   0.04717   0.05422   0.05552

 Mulliken charges and spin densities:
               1          2
     1  C   -0.151910   0.028764
     2  C    0.374505   0.027899
     3  C    0.374555   0.027888
     4  C    0.137851   0.019688
     5  C    0.137807   0.019677
     6  C   -0.152021   0.028774
     7  C   -0.831233   0.104253
     8  C    0.320745   0.091697
     9  C    0.320659   0.091701
    10  C   -0.831197   0.104263
    11  O   -0.481968   0.222401
    12  O   -0.481974   0.222407
    13  C   -0.452246  -0.001390
    14  C   -0.452308  -0.001390
    15  H    0.122526  -0.002785
    16  C   -0.501421  -0.001513
    17  C   -0.501431  -0.001512
    18  H    0.182623  -0.001705
    19  H    0.147563   0.004957
    20  H    0.147460   0.004944
    21  H    0.147594   0.004961
    22  H    0.147429   0.004941
    23  H    0.182624  -0.001706
    24  H    0.122522  -0.002785
    25  H    0.173577   0.000099
    26  H    0.156014   0.001343
    27  H    0.156033   0.001343
    28  H    0.156032   0.001343
    29  H    0.173575   0.000099
    30  H    0.156016   0.001343
 Sum of Mulliken charges =  -1.00000   1.00000

 Dipole moment (field-independent basis, Debye):
    X=             -5.4046    Y=             -0.0002    Z=              0.0022  Tot=              5.4046
 Quadrupole moment (field-independent basis, Debye-Ang):
   XX=            -96.3730   YY=           -137.4422   ZZ=           -100.7096
   XY=             -0.0010   XZ=              0.0006   YZ=              0.0002

 Normal termination of Gaussian 16 at Sun Jan 21 08:27:35 2024.
