 Q-Chem 5.4, Q-Chem, Inc., Pleasanton, CA (2021)
 Q-Chem 5.4.0 for Intel X86 EM64T Linux

User input:
--------------------------------------------------------------
$molecule
0 1
C                 -4.8975970000     -0.7835000000     -2.6861910000
C                 -4.3003630000     -1.9165300000     -3.2286170000
C                 -2.9874400000     -2.2503100000     -2.8862720000
C                 -4.1852430000      0.0192610000     -1.7916710000
C                 -2.8684160000     -0.3145060000     -1.4505770000
C                 -2.2702750000     -1.4496110000     -2.0034680000
C                 -4.8309010000      1.2255610000     -1.2045630000
C                 -4.0862390000      2.0109290000     -0.1717630000
C                 -2.8165950000      1.6618980000      0.1737930000
C                 -2.0825470000      0.5527190000     -0.5267870000
O                 -5.9612520000      1.5552410000     -1.5309760000
O                 -0.8889420000      0.3815770000     -0.3704750000
H                 -5.9120290000     -0.5033130000     -2.9414100000
H                 -4.8548830000     -2.5405440000     -3.9202270000
H                 -2.5243810000     -3.1332580000     -3.3119100000
H                 -1.2485950000     -1.6844920000     -1.7321310000
C                 -4.8296190000      3.1712500000      0.4210430000
S                 -1.8969090000      2.6592260000      1.3257100000
C                 -1.0553070000      1.4483560000      2.3561560000
C                 -1.7649000000      0.5094870000      3.0690680000
C                 -1.0976200000     -0.4016920000      3.9276400000
C                  0.3227740000     -0.3091900000      4.0695350000
C                  1.0174350000      0.6869220000      3.3342110000
C                  0.3519190000      1.5412280000      2.4914940000
C                 -1.7984000000     -1.3928330000      4.6648190000
C                 -1.1265370000     -2.2540690000      5.4988350000
C                  0.2790200000     -2.1649160000      5.6363730000
C                  0.9853630000     -1.2142220000      4.9384440000
H                 -4.6503430000      4.0810280000     -0.1633130000
H                 -4.4971640000      3.3675190000      1.4410660000
H                 -5.9026800000      2.9848090000      0.3952740000
H                 -2.8447970000      0.4566130000      2.9849180000
H                  2.0956000000      0.7561110000      3.4338950000
H                  0.8934840000      2.2767580000      1.9099050000
H                 -2.8761890000     -1.4601640000      4.5591370000
H                 -1.6724050000     -3.0071880000      6.0558530000
H                  0.7969820000     -2.8507920000      6.2971650000
H                  2.0630020000     -1.1442060000      5.0436500000
$end

$rem
BASIS  =  6-311++G(d,p)
GUI  =  2
JOB_TYPE  =  SP
METHOD  =  B3LYP
SCF_CONVERGENCE  = 8
SOLVENT_METHOD = sm12
$end

$smx
solvent dimethylformamide
charges CM5
$end

--------------------------------------------------------------

             Standard Nuclear Orientation (Angstroms)
    I     Atom           X                Y                Z
 ----------------------------------------------------------------
    1      C      -4.8975970000    -0.7835000000    -2.6861910000
    2      C      -4.3003630000    -1.9165300000    -3.2286170000
    3      C      -2.9874400000    -2.2503100000    -2.8862720000
    4      C      -4.1852430000     0.0192610000    -1.7916710000
    5      C      -2.8684160000    -0.3145060000    -1.4505770000
    6      C      -2.2702750000    -1.4496110000    -2.0034680000
    7      C      -4.8309010000     1.2255610000    -1.2045630000
    8      C      -4.0862390000     2.0109290000    -0.1717630000
    9      C      -2.8165950000     1.6618980000     0.1737930000
   10      C      -2.0825470000     0.5527190000    -0.5267870000
   11      O      -5.9612520000     1.5552410000    -1.5309760000
   12      O      -0.8889420000     0.3815770000    -0.3704750000
   13      H      -5.9120290000    -0.5033130000    -2.9414100000
   14      H      -4.8548830000    -2.5405440000    -3.9202270000
   15      H      -2.5243810000    -3.1332580000    -3.3119100000
   16      H      -1.2485950000    -1.6844920000    -1.7321310000
   17      C      -4.8296190000     3.1712500000     0.4210430000
   18      S      -1.8969090000     2.6592260000     1.3257100000
   19      C      -1.0553070000     1.4483560000     2.3561560000
   20      C      -1.7649000000     0.5094870000     3.0690680000
   21      C      -1.0976200000    -0.4016920000     3.9276400000
   22      C       0.3227740000    -0.3091900000     4.0695350000
   23      C       1.0174350000     0.6869220000     3.3342110000
   24      C       0.3519190000     1.5412280000     2.4914940000
   25      C      -1.7984000000    -1.3928330000     4.6648190000
   26      C      -1.1265370000    -2.2540690000     5.4988350000
   27      C       0.2790200000    -2.1649160000     5.6363730000
   28      C       0.9853630000    -1.2142220000     4.9384440000
   29      H      -4.6503430000     4.0810280000    -0.1633130000
   30      H      -4.4971640000     3.3675190000     1.4410660000
   31      H      -5.9026800000     2.9848090000     0.3952740000
   32      H      -2.8447970000     0.4566130000     2.9849180000
   33      H       2.0956000000     0.7561110000     3.4338950000
   34      H       0.8934840000     2.2767580000     1.9099050000
   35      H      -2.8761890000    -1.4601640000     4.5591370000
   36      H      -1.6724050000    -3.0071880000     6.0558530000
   37      H       0.7969820000    -2.8507920000     6.2971650000
   38      H       2.0630020000    -1.1442060000     5.0436500000
 ----------------------------------------------------------------

   15   -1357.5813721437      8.76e-09  Convergence criterion met
 Total energy in the final basis set =    -1357.6086878707

                    Orbital Energies (a.u.)
 --------------------------------------------------------------

 Alpha MOs
 -- Occupied --
-88.8725 -19.1337 -19.1322 -10.2871 -10.2819 -10.2387 -10.2218 -10.2212
-10.2089 -10.2079 -10.2001 -10.1983 -10.1982 -10.1979 -10.1975 -10.1971
-10.1932 -10.1902 -10.1892 -10.1880 -10.1873 -10.1866 -10.1860 -10.1732
 -7.9583  -5.9223  -5.9182  -5.9123  -1.0701  -1.0655  -0.8942  -0.8913
 -0.8645  -0.8425  -0.7990  -0.7888  -0.7785  -0.7773  -0.7476  -0.7329
 -0.7063  -0.6812  -0.6471  -0.6356  -0.6233  -0.6129  -0.6071  -0.5869
 -0.5521  -0.5294  -0.5238  -0.5192  -0.5042  -0.4948  -0.4732  -0.4651
 -0.4620  -0.4588  -0.4556  -0.4521  -0.4513  -0.4369  -0.4325  -0.4282
 -0.4215  -0.4153  -0.4119  -0.4069  -0.3976  -0.3915  -0.3827  -0.3775
 -0.3703  -0.3685  -0.3515  -0.3474  -0.3437  -0.3098  -0.3030  -0.2903
 -0.2841  -0.2801  -0.2783  -0.2628  -0.2463  -0.2289

          Ground-State Mulliken Net Atomic Charges

     Atom                 Charge (a.u.)
  ----------------------------------------
      1 C                     0.010917
      2 C                     0.271215
      3 C                     0.296220
      4 C                     0.118733
      5 C                    -0.284728
      6 C                    -0.033457
      7 C                    -1.272492
      8 C                     0.524381
      9 C                     0.737369
     10 C                    -1.424670
     11 O                    -0.262414
     12 O                    -0.178766
     13 H                     0.197710
     14 H                     0.324673
     15 H                     0.321590
     16 H                     0.207082
     17 C                     0.112148
     18 S                    -0.244634
     19 C                     0.950979
     20 C                    -0.556235
     21 C                    -1.119665
     22 C                    -0.832679
     23 C                     0.226488
     24 C                    -0.184564
     25 C                    -0.235895
     26 C                    -0.036792
     27 C                    -0.083162
     28 C                     0.046044
     29 H                     0.241806
     30 H                     0.213573
     31 H                     0.180069
     32 H                     0.241851
     33 H                     0.274523
     34 H                     0.236671
     35 H                     0.235000
     36 H                     0.274714
     37 H                     0.275530
     38 H                     0.230869
  ----------------------------------------
  Sum of atomic charges =     0.000000

                    Cartesian Multipole Moments
 -----------------------------------------------------------------
    Charge (ESU x 10^10)
                 0.0000
    Dipole Moment (Debye)
         X       0.3790      Y      -2.9558      Z       0.1521
       Tot       2.9839
    Quadrupole Moments (Debye-Ang)
        XX    -148.1177     XY      10.5538     YY    -137.2021
        XZ       3.0647     YZ       2.2213     ZZ    -133.6920

 Total job time:  1447.39s(wall), 11271.53s(cpu)
        *  Thank you very much for using Q-Chem.  Have a nice day.  *
