 Q-Chem 5.4, Q-Chem, Inc., Pleasanton, CA (2021)
 Q-Chem 5.4.0 for Intel X86 EM64T Linux

User input:
--------------------------------------------------------------
$molecule
-1 2
C                 -2.4328590000      0.4319480000      1.3320660000
C                 -3.6010730000      1.1657460000      1.3752950000
C                 -3.7679970000      2.3696070000      2.2741140000
C                 -4.7584530000      0.8003470000      0.5667980000
O                 -5.8496190000      1.4405520000      0.6175360000
C                 -4.6072730000     -0.3581850000     -0.3026470000
C                 -3.4351250000     -1.0756960000     -0.3590790000
O                 -3.3296620000     -2.1115670000     -1.2632690000
C                 -3.1176130000     -3.4001090000     -0.6933020000
C                 -2.2817620000     -0.7184310000      0.4529200000
O                 -1.1979990000     -1.3708250000      0.3847670000
O                 -5.6904300000     -0.7946380000     -1.0358870000
C                 -6.1513170000      0.1047990000     -2.0400680000
H                 -4.7265100000      2.8429460000      2.0586440000
H                 -2.9687410000      3.1051340000      2.1312590000
H                 -3.7613900000      2.0898380000      3.3356270000
H                 -3.9748650000     -3.6908880000     -0.0711110000
H                 -3.0354960000     -4.0959600000     -1.5318700000
H                 -2.1993030000     -3.4174580000     -0.1023900000
H                 -6.4474660000      1.0596650000     -1.6004350000
H                 -7.0148580000     -0.3747690000     -2.5074670000
H                 -5.3749960000      0.2615930000     -2.8011970000
C                 -1.2202570000      0.7859530000      2.1625340000
C                 -0.1872190000      1.6384510000      1.4001080000
C                  1.0628600000      1.9560360000      2.2279220000
C                  2.1032340000      2.7954090000      1.4772540000
C                  3.3570500000      3.1104180000      2.3015360000
C                  4.3979150000      3.9479330000      1.5495290000
C                  5.6516000000      4.2621390000      2.3740870000
C                  6.6926080000      5.0986450000      1.6216980000
C                  7.9461850000      5.4135270000      2.4459830000
C                  8.9802310000      6.2492040000      1.6851470000
H                 -0.7294850000     -0.1451250000      2.4634750000
H                 -1.5212160000      1.3140890000      3.0736460000
H                 -0.6569170000      2.5748280000      1.0727480000
H                  0.0995760000      1.0945030000      0.4946550000
H                  1.5253920000      1.0143640000      2.5518790000
H                  0.7694890000      2.4833550000      3.1466670000
H                  1.6408930000      3.7362230000      1.1498300000
H                  2.3961890000      2.2673020000      0.5606940000
H                  3.8191160000      2.1695740000      2.6286600000
H                  3.0636620000      3.6382820000      3.2189030000
H                  3.9361520000      4.8886430000      1.2216790000
H                  4.6914970000      3.4199740000      0.6328140000
H                  6.1131560000      3.3213810000      2.7020030000
H                  5.3580360000      4.7905480000      3.2908210000
H                  6.2320690000      6.0397510000      1.2929760000
H                  6.9875740000      4.5705790000      0.7052700000
H                  8.4070910000      4.4736400000      2.7740200000
H                  7.6522160000      5.9421190000      3.3612380000
H                  9.3197290000      5.7310830000      0.7823750000
H                  9.8611280000      6.4563350000      2.3002170000
H                  8.5591040000      7.2105790000      1.3734200000
$end
$rem
MAX_SCF_CYCLES=200
BASIS  =  6-311++G(d,p)
GUI  =  2
JOB_TYPE  =  SP
METHOD  =  B3LYP
THRESH = 14
SCF_CONVERGENCE = 8
scf_guess = GWH
SCF_ALGORITHM = RCA_DIIS
SOLVENT_METHOD = PCM
$end
$pcm
theory = CPCM
$end
$solvent
dielectric 37.219
opticaldielectric 1.43
$end

--------------------------------------------------------------

             Standard Nuclear Orientation (Angstroms)
    I     Atom           X                Y                Z
 ----------------------------------------------------------------
    1      C      -2.4328590000     0.4319480000     1.3320660000
    2      C      -3.6010730000     1.1657460000     1.3752950000
    3      C      -3.7679970000     2.3696070000     2.2741140000
    4      C      -4.7584530000     0.8003470000     0.5667980000
    5      O      -5.8496190000     1.4405520000     0.6175360000
    6      C      -4.6072730000    -0.3581850000    -0.3026470000
    7      C      -3.4351250000    -1.0756960000    -0.3590790000
    8      O      -3.3296620000    -2.1115670000    -1.2632690000
    9      C      -3.1176130000    -3.4001090000    -0.6933020000
   10      C      -2.2817620000    -0.7184310000     0.4529200000
   11      O      -1.1979990000    -1.3708250000     0.3847670000
   12      O      -5.6904300000    -0.7946380000    -1.0358870000
   13      C      -6.1513170000     0.1047990000    -2.0400680000
   14      H      -4.7265100000     2.8429460000     2.0586440000
   15      H      -2.9687410000     3.1051340000     2.1312590000
   16      H      -3.7613900000     2.0898380000     3.3356270000
   17      H      -3.9748650000    -3.6908880000    -0.0711110000
   18      H      -3.0354960000    -4.0959600000    -1.5318700000
   19      H      -2.1993030000    -3.4174580000    -0.1023900000
   20      H      -6.4474660000     1.0596650000    -1.6004350000
   21      H      -7.0148580000    -0.3747690000    -2.5074670000
   22      H      -5.3749960000     0.2615930000    -2.8011970000
   23      C      -1.2202570000     0.7859530000     2.1625340000
   24      C      -0.1872190000     1.6384510000     1.4001080000
   25      C       1.0628600000     1.9560360000     2.2279220000
   26      C       2.1032340000     2.7954090000     1.4772540000
   27      C       3.3570500000     3.1104180000     2.3015360000
   28      C       4.3979150000     3.9479330000     1.5495290000
   29      C       5.6516000000     4.2621390000     2.3740870000
   30      C       6.6926080000     5.0986450000     1.6216980000
   31      C       7.9461850000     5.4135270000     2.4459830000
   32      C       8.9802310000     6.2492040000     1.6851470000
   33      H      -0.7294850000    -0.1451250000     2.4634750000
   34      H      -1.5212160000     1.3140890000     3.0736460000
   35      H      -0.6569170000     2.5748280000     1.0727480000
   36      H       0.0995760000     1.0945030000     0.4946550000
   37      H       1.5253920000     1.0143640000     2.5518790000
   38      H       0.7694890000     2.4833550000     3.1466670000
   39      H       1.6408930000     3.7362230000     1.1498300000
   40      H       2.3961890000     2.2673020000     0.5606940000
   41      H       3.8191160000     2.1695740000     2.6286600000
   42      H       3.0636620000     3.6382820000     3.2189030000
   43      H       3.9361520000     4.8886430000     1.2216790000
   44      H       4.6914970000     3.4199740000     0.6328140000
   45      H       6.1131560000     3.3213810000     2.7020030000
   46      H       5.3580360000     4.7905480000     3.2908210000
   47      H       6.2320690000     6.0397510000     1.2929760000
   48      H       6.9875740000     4.5705790000     0.7052700000
   49      H       8.4070910000     4.4736400000     2.7740200000
   50      H       7.6522160000     5.9421190000     3.3612380000
   51      H       9.3197290000     5.7310830000     0.7823750000
   52      H       9.8611280000     6.4563350000     2.3002170000
   53      H       8.5591040000     7.2105790000     1.3734200000
 ----------------------------------------------------------------

  100   -1043.4023907671      8.29E-09 Convergence criterion met
 Total energy in the final basis set = -1043.40239077

                    Orbital Energies (a.u.)
 --------------------------------------------------------------

 Alpha MOs
 -- Occupied --
-19.1348 -19.1346 -19.0754 -19.0746 -10.2184 -10.2174 -10.2124 -10.2117
-10.2028 -10.2027 -10.1655 -10.1620 -10.1573 -10.1547 -10.1545 -10.1543
-10.1541 -10.1539 -10.1538 -10.1536 -10.1533 -10.1511 -10.1499  -1.0596
 -1.0408  -0.9952  -0.9925  -0.8270  -0.8063  -0.7918  -0.7744  -0.7581
 -0.7329  -0.7084  -0.7000  -0.6899  -0.6624  -0.6420  -0.6322  -0.6001
 -0.5745  -0.5703  -0.5662  -0.5600  -0.5529  -0.5152  -0.4948  -0.4840
 -0.4789  -0.4659  -0.4641  -0.4448  -0.4432  -0.4379  -0.4329  -0.4306
 -0.4233  -0.4198  -0.4113  -0.4094  -0.4077  -0.4014  -0.3887  -0.3843
 -0.3819  -0.3792  -0.3680  -0.3671  -0.3619  -0.3543  -0.3499  -0.3451
 -0.3437  -0.3348  -0.3324  -0.3295  -0.3217  -0.3181  -0.3170  -0.3144
 -0.3136  -0.2965  -0.2891  -0.2852  -0.2632  -0.2381  -0.2351  -0.2219
 -0.1573

 Beta MOs
 -- Occupied --
-19.1346 -19.1344 -19.0688 -19.0682 -10.2165 -10.2156 -10.2114 -10.2108
-10.2027 -10.2026 -10.1645 -10.1610 -10.1573 -10.1547 -10.1545 -10.1543
-10.1541 -10.1540 -10.1538 -10.1535 -10.1533 -10.1511 -10.1500  -1.0586
 -1.0396  -0.9840  -0.9814  -0.8224  -0.8061  -0.7912  -0.7733  -0.7573
 -0.7318  -0.7054  -0.6991  -0.6888  -0.6605  -0.6361  -0.6312  -0.5994
 -0.5742  -0.5701  -0.5661  -0.5569  -0.5502  -0.5138  -0.4929  -0.4823
 -0.4788  -0.4638  -0.4624  -0.4438  -0.4415  -0.4368  -0.4311  -0.4298
 -0.4225  -0.4174  -0.4105  -0.4069  -0.4017  -0.3988  -0.3869  -0.3833
 -0.3804  -0.3701  -0.3658  -0.3609  -0.3566  -0.3500  -0.3441  -0.3402
 -0.3393  -0.3332  -0.3312  -0.3288  -0.3214  -0.3178  -0.3169  -0.3144
 -0.3134  -0.2960  -0.2861  -0.2812  -0.2374  -0.2329  -0.2292  -0.2159

          Ground-State Mulliken Net Atomic Charges

     Atom                 Charge (a.u.)    Spin (a.u.)
  --------------------------------------------------------
      1 C                     1.039287       0.075084
      2 C                     0.875885       0.082306
      3 C                    -0.609052      -0.000193
      4 C                    -0.490721       0.093998
      5 O                    -0.513424       0.238464
      6 C                    -0.145926       0.076475
      7 C                    -0.308530       0.079364
      8 O                    -0.214306       0.000119
      9 C                    -0.283195       0.002119
     10 C                    -0.623308       0.099951
     11 O                    -0.490159       0.236700
     12 O                    -0.205851       0.000497
     13 C                    -0.282062       0.003044
     14 H                     0.174758      -0.001679
     15 H                     0.170255       0.003186
     16 H                     0.182999       0.004736
     17 H                     0.145866       0.000701
     18 H                     0.163685       0.000433
     19 H                     0.173171      -0.000444
     20 H                     0.170850      -0.000621
     21 H                     0.170206       0.000704
     22 H                     0.145514       0.000479
     23 C                    -0.404548       0.005066
     24 C                    -0.924994      -0.002135
     25 C                    -0.274625       0.006320
     26 C                     0.017605      -0.004478
     27 C                     0.069373      -0.000143
     28 C                    -0.012202      -0.000140
     29 C                    -0.249417       0.000112
     30 C                    -0.461026       0.000014
     31 C                    -0.292582       0.000010
     32 C                    -0.711793      -0.000004
     33 H                     0.212564       0.002933
     34 H                     0.165878      -0.000056
     35 H                     0.141247      -0.000487
     36 H                     0.198561      -0.002369
     37 H                     0.129756       0.000046
     38 H                     0.119012      -0.000222
     39 H                     0.133567       0.000044
     40 H                     0.128628       0.000080
     41 H                     0.133465      -0.000008
     42 H                     0.136060      -0.000005
     43 H                     0.133671      -0.000002
     44 H                     0.135265       0.000002
     45 H                     0.131095       0.000002
     46 H                     0.131250      -0.000004
     47 H                     0.128322       0.000000
     48 H                     0.128558       0.000000
     49 H                     0.135104      -0.000000
     50 H                     0.135213       0.000000
     51 H                     0.144773      -0.000001
     52 H                     0.151619      -0.000000
     53 H                     0.144660       0.000000
  --------------------------------------------------------
  Sum of atomic charges =    -1.000000

                    Cartesian Multipole Moments
 -----------------------------------------------------------------
    Charge (ESU x 10^10)
                -4.8032
    Dipole Moment (Debye)
         X      17.8500      Y       1.1374      Z      -0.9080
       Tot      17.9093
    Quadrupole Moments (Debye-Ang)
        XX    -245.0118     XY       7.4015     YY    -153.0614
        XZ       8.2897     YZ      -2.6207     ZZ    -148.4755

 Total job time:  3837.37s(wall), 23433.64s(cpu)
        *  Thank you very much for using Q-Chem.  Have a nice day.  *
