 Q-Chem 5.4, Q-Chem, Inc., Pleasanton, CA (2021)
 Q-Chem 5.4.0 for Intel X86 EM64T Linux

User input:
--------------------------------------------------------------
$molecule
-2 1
C                  2.4685440000     -4.8368420000      2.0676440000
C                  2.4821570000     -3.9618100000      0.9099920000
C                  2.0733140000     -2.6256680000      0.8642870000
C                  1.6266210000     -1.9692210000      2.0735610000
C                  1.6448480000     -2.8283330000      3.2488500000
C                  2.0182510000     -4.1851580000      3.2625490000
O                  2.7920920000     -6.0725430000      2.0206170000
O                  1.2127620000     -0.7635210000      2.0740300000
C                  2.0659620000     -5.0145720000      4.5211360000
C                  2.1603900000     -1.7938770000     -0.4124760000
C                  0.7655820000     -1.3506550000     -0.9009430000
C                  3.1027610000     -0.5818430000     -0.2514490000
N                  2.9148760000     -4.6037420000     -0.3361590000
N                  1.1625110000     -2.2446360000      4.4819160000
H                  2.3483350000     -4.4250910000      5.3988400000
H                  2.7825200000     -5.8241320000      4.3631160000
H                  1.0939300000     -5.4715310000      4.7487960000
H                  2.5826360000     -2.4179630000     -1.2028650000
H                  0.8472020000     -0.7578430000     -1.8241230000
H                  0.2815770000     -0.7492940000     -0.1287590000
H                  0.1465770000     -2.2274400000     -1.1131760000
H                  3.1632850000     -0.0153270000     -1.1925750000
H                  4.1130000000     -0.9161250000      0.0077190000
H                  2.7365130000      0.0714560000      0.5423940000
O                  4.0763560000     -5.0039770000     -0.4270650000
O                  2.0972970000     -4.7237420000     -1.2641840000
O                  0.3092540000     -2.8675380000      5.1546050000
O                  1.6004670000     -1.1462420000      4.8507640000
$end
$rem
MAX_SCF_CYCLES=200
BASIS  =  6-311++G(d,p)
GUI  =  2
JOB_TYPE  =  SP
METHOD  =  B3LYP
SOLVENT_METHOD = COSMO
$end
$solvent
dielectric 37.219
opticaldielectric 1.43
$end

--------------------------------------------------------------

             Standard Nuclear Orientation (Angstroms)
    I     Atom           X                Y                Z
 ----------------------------------------------------------------
    1      C       0.0675518622    -1.8122674881    -0.0163834473
    2      C      -0.9846329612    -0.8128457578    -0.0257520277
    3      C      -0.8225767271     0.5753151004     0.0098035430
    4      C       0.5077182517     1.1437285419     0.0050774262
    5      C       1.5708023494     0.1493694740    -0.0234204831
    6      C       1.3843862976    -1.2455290530    -0.0134857556
    7      O      -0.1559588330    -3.0702568951     0.0204598621
    8      O       0.7049211678     2.4014152881     0.0708576679
    9      C       2.5236467712    -2.2302682089    -0.0948462350
   10      C      -2.0109615568     1.5321472391    -0.0325758196
   11      C      -2.1192484683     2.3651365577     1.2616180794
   12      C      -1.9768995488     2.4438313812    -1.2778432681
   13      N      -2.3461557498    -1.3587441949    -0.0041804516
   14      N       2.9265305703     0.6532707190     0.0200243788
   15      H       3.3557600912    -1.8565964903    -0.6994482045
   16      H       2.1352820338    -3.1591182689    -0.5193735934
   17      H       2.9351998884    -2.4647311167     0.8956778631
   18      H      -2.9271812039     0.9417923363    -0.0997505048
   19      H      -2.9836270376     3.0441750534     1.2157311044
   20      H      -1.2079983562     2.9512461031     1.3967582146
   21      H      -2.2513671894     1.7038626151     2.1231419554
   22      H      -2.8558599886     3.1052818014    -1.2931261844
   23      H      -1.9911950049     1.8410939869    -2.1921728686
   24      H      -1.0681051482     3.0481338824    -1.2719175477
   25      O      -2.7404943391    -2.0122673435    -0.9710787491
   26      O      -3.0623665471    -1.1447106478     0.9884411060
   27      O       3.7274323638     0.1680641990     0.8517069207
   28      O       3.2711850066     1.5491888630    -0.7628342822
 ----------------------------------------------------------------

   12    -948.0284565473      5.17e-06  Convergence criterion met
 Total energy in the final basis set =     -948.0284565473
    5    -948.2908576936      8.62e-06  Convergence criterion met
 Total energy in the final basis set =     -948.2908576936

                    Orbital Energies (a.u.)
 --------------------------------------------------------------

 Alpha MOs
 -- Occupied --
-19.1608 -19.1580 -19.1427 -19.1389 -19.0435 -19.0421 -14.5427 -14.5252
-10.2128 -10.2072 -10.2037 -10.1966 -10.1663 -10.1659 -10.1617 -10.1467
-10.1405 -10.1403  -1.2251  -1.2045  -1.0498  -1.0290  -0.9701  -0.9656
 -0.8422  -0.8151  -0.7752  -0.7373  -0.7120  -0.6671  -0.6584  -0.6187
 -0.5865  -0.5725  -0.5426  -0.5401  -0.5349  -0.5210  -0.5084  -0.4987
 -0.4892  -0.4605  -0.4233  -0.4219  -0.4119  -0.3964  -0.3954  -0.3898
 -0.3795  -0.3676  -0.3613  -0.3593  -0.3405  -0.3300  -0.3291  -0.3257
 -0.3165  -0.3107  -0.3069  -0.3048  -0.3036  -0.2876  -0.2511  -0.2355
 -0.2255  -0.2164  -0.1454

          Ground-State Mulliken Net Atomic Charges

     Atom                 Charge (a.u.)
  ----------------------------------------
      1 C                    -0.427119
      2 C                    -0.699278
      3 C                     1.587058
      4 C                    -1.059273
      5 C                    -1.672717
      6 C                     2.241499
      7 O                    -0.633581
      8 O                    -0.542231
      9 C                    -0.318100
     10 C                     0.025171
     11 C                    -0.692737
     12 C                    -0.710157
     13 N                    -0.195529
     14 N                    -0.234622
     15 H                     0.177265
     16 H                     0.163914
     17 H                     0.192002
     18 H                     0.174442
     19 H                     0.144720
     20 H                     0.188805
     21 H                     0.138119
     22 H                     0.146942
     23 H                     0.141506
     24 H                     0.179974
     25 O                    -0.035556
     26 O                    -0.074372
     27 O                    -0.136501
     28 O                    -0.069642
  ----------------------------------------
  Sum of atomic charges =    -2.000000

                    Cartesian Multipole Moments
 -----------------------------------------------------------------
    Charge (ESU x 10^10)
                -9.6064
    Dipole Moment (Debye)
         X      -4.2757      Y       3.5787      Z      -0.6429
       Tot       5.6127
    Quadrupole Moments (Debye-Ang)
        XX    -167.1766     XY     -27.9087     YY    -170.6219
        XZ      -0.9179     YZ       0.5478     ZZ    -118.0047

 Total job time:  68.79s(wall), 526.29s(cpu)
        *  Thank you very much for using Q-Chem.  Have a nice day.  *
