 Q-Chem 5.4, Q-Chem, Inc., Pleasanton, CA (2021)
 Q-Chem 5.4.0 for Intel X86 EM64T Linux

User input:
--------------------------------------------------------------
$molecule
-2 1
C                  3.7315980000     -1.0399480000     -0.3068030000
C                  2.4311280000     -0.2958890000     -0.1027470000
C                  2.4327070000      1.1231810000     -0.0040540000
C                  1.2495200000      1.8129400000      0.1880480000
C                  0.0031000000      1.1567790000      0.2851320000
C                 -1.2226070000      1.9345120000      0.4690100000
O                 -1.2220110000      3.2199150000      0.5462560000
C                 -2.3991190000      1.1386810000      0.5611940000
C                 -2.4285100000     -0.2635460000      0.4870790000
C                 -3.7376080000     -1.0050980000      0.5823990000
C                 -1.2479480000     -1.0492410000      0.3023540000
O                 -1.2787030000     -2.3369230000      0.2234050000
C                 -0.0119370000     -0.2818370000      0.2052380000
C                  1.2203760000     -0.9562620000      0.0153630000
H                  4.4671100000     -0.8266650000      0.4887140000
H                  3.5757420000     -2.1233370000     -0.3217000000
H                  4.2202110000     -0.7668420000     -1.2495330000
H                  3.3745340000      1.6643620000     -0.0887620000
H                  1.2354510000      2.8965740000      0.2620170000
H                 -3.3356380000      1.6810690000      0.7002620000
H                 -3.7308950000     -1.7246800000      1.4131310000
H                 -4.5758800000     -0.3113640000      0.7225520000
H                 -3.9235010000     -1.6057420000     -0.3199300000
H                  1.1728800000     -2.0406380000     -0.0346900000
$end
$rem
MAX_SCF_CYCLES=200
BASIS  =  6-311++G(d,p)
GUI  =  2
JOB_TYPE  =  SP
METHOD  =  B3LYP
SOLVENT_METHOD = COSMO
$end
$solvent
dielectric 37.219
opticaldielectric 1.43
$end

--------------------------------------------------------------

             Standard Nuclear Orientation (Angstroms)
    I     Atom           X                Y                Z
 ----------------------------------------------------------------
    1      C       3.9758101403    -1.1237409114    -0.0132815730
    2      C       2.6422701102    -0.4109066613    -0.0084662280
    3      C       2.5969436945     1.0108198332     0.0034399594
    4      C       1.3825857036     1.6725122622     0.0134366040
    5      C       0.1501062925     0.9837224906     0.0035104200
    6      C      -1.1076608045     1.7313771672    -0.0049632015
    7      O      -1.1481024360     3.0184633351    -0.0063208112
    8      C      -2.2667052550     0.9051581972    -0.0030839062
    9      C      -2.2523224453    -0.4992362214     0.0050938419
   10      C      -3.5446907932    -1.2753261132    -0.0087400933
   11      C      -1.0390687621    -1.2563188368     0.0079237198
   12      O      -1.0283044547    -2.5467350512     0.0041993461
   13      C       0.1803253796    -0.4568578748     0.0098488607
   14      C       1.4428017228    -1.1015606060     0.0068828133
   15      H       4.6060978251    -0.8419390460     0.8484840451
   16      H       3.8497258958    -2.2106065473     0.0194383202
   17      H       4.5660342159    -0.8897422017    -0.9071213508
   18      H       3.5284605981     1.5759077891    -0.0030622250
   19      H       1.3329772952     2.7576094729     0.0193564733
   20      H      -3.2262657287     1.4245941380    -0.0078261845
   21      H      -3.6188795840    -1.9455222288     0.8591839614
   22      H      -4.4106101390    -0.6016855914    -0.0100840880
   23      H      -3.6071325878    -1.9323150156    -0.8885091828
   24      H       1.4284774349    -2.1879833936     0.0175046500
 ----------------------------------------------------------------

   19    -613.8869060092      9.29e-06  Convergence criterion met
 Total energy in the final basis set =     -613.8869060092
    6    -614.1751107426      3.66e-06  Convergence criterion met
 Total energy in the final basis set =     -614.1751107426

                    Orbital Energies (a.u.)
 --------------------------------------------------------------

 Alpha MOs
 -- Occupied --
-19.0221 -19.0184 -10.1718 -10.1653 -10.1572 -10.1516 -10.1459 -10.1452
-10.1406 -10.1377 -10.1362 -10.1348 -10.1271 -10.1168  -0.9387  -0.9336
 -0.8284  -0.7746  -0.7418  -0.7203  -0.6840  -0.6520  -0.6248  -0.5723
 -0.5581  -0.5218  -0.4674  -0.4580  -0.4371  -0.4113  -0.4033  -0.4020
 -0.3922  -0.3907  -0.3718  -0.3641  -0.3591  -0.3539  -0.3491  -0.3364
 -0.3191  -0.3113  -0.3045  -0.3022  -0.2284  -0.2245  -0.2072  -0.2034
 -0.1961  -0.1120

          Ground-State Mulliken Net Atomic Charges

     Atom                 Charge (a.u.)
  ----------------------------------------
      1 C                    -0.486061
      2 C                     0.483756
      3 C                    -0.461740
      4 C                    -0.059646
      5 C                     0.204377
      6 C                    -0.536243
      7 O                    -0.759314
      8 C                    -0.530706
      9 C                     0.876061
     10 C                    -0.373402
     11 C                    -0.534949
     12 O                    -0.738011
     13 C                    -0.158231
     14 C                    -0.391427
     15 H                     0.155305
     16 H                     0.167416
     17 H                     0.159981
     18 H                     0.178225
     19 H                     0.145657
     20 H                     0.105982
     21 H                     0.145452
     22 H                     0.142880
     23 H                     0.146279
     24 H                     0.118362
  ----------------------------------------
  Sum of atomic charges =    -2.000000

                    Cartesian Multipole Moments
 -----------------------------------------------------------------
    Charge (ESU x 10^10)
                -9.6064
    Dipole Moment (Debye)
         X       8.6829      Y      -2.6225      Z      -0.0112
       Tot       9.0703
    Quadrupole Moments (Debye-Ang)
        XX    -104.8292     XY       3.2957     YY    -153.0573
        XZ      -0.0479     YZ       0.1044     ZZ     -93.8394

 Total job time:  68.38s(wall), 516.15s(cpu)
        *  Thank you very much for using Q-Chem.  Have a nice day.  *
