 Gaussian 16, Revision A.03,
 Gaussian 16:  ES64L-G16RevA.03 25-Dec-2016

 --------------------------------------
 #P UB3LYP/6-311++G(d,p) nosym opt freq
 --------------------------------------

 -------
 Reduced
 -------
 Symbolic Z-matrix:
 Charge = -2 Multiplicity = 1

 SCF Done:  E(UB3LYP) =  -2015.35671972     A.U. after   34 cycles
 SCF Done:  E(UB3LYP) =  -2015.38553271     A.U. after   23 cycles
 SCF Done:  E(UB3LYP) =  -2015.39550571     A.U. after   22 cycles
 SCF Done:  E(UB3LYP) =  -2015.39831686     A.U. after   18 cycles
 SCF Done:  E(UB3LYP) =  -2015.40154854     A.U. after   19 cycles
 SCF Done:  E(UB3LYP) =  -2015.40268549     A.U. after   18 cycles
 SCF Done:  E(UB3LYP) =  -2015.40295331     A.U. after   16 cycles
 SCF Done:  E(UB3LYP) =  -2015.40305672     A.U. after   15 cycles
 SCF Done:  E(UB3LYP) =  -2015.40309157     A.U. after   13 cycles
 SCF Done:  E(UB3LYP) =  -2015.40310670     A.U. after   15 cycles
 SCF Done:  E(UB3LYP) =  -2015.40312676     A.U. after   13 cycles
 SCF Done:  E(UB3LYP) =  -2015.40314286     A.U. after   14 cycles
 SCF Done:  E(UB3LYP) =  -2015.40315068     A.U. after   13 cycles
 SCF Done:  E(UB3LYP) =  -2015.40315451     A.U. after   13 cycles
 SCF Done:  E(UB3LYP) =  -2015.40315563     A.U. after   12 cycles
 SCF Done:  E(UB3LYP) =  -2015.40315594     A.U. after   12 cycles
 SCF Done:  E(UB3LYP) =  -2015.40315599     A.U. after   11 cycles
 Optimization completed.
    -- Stationary point found.
 Normal termination of Gaussian 16 at Thu Dec 21 23:30:19 2023.

 ----------------------------------------------------------------------
 #P Geom=AllCheck Guess=TCheck SCRF=Check GenChk UB3LYP/6-311++G(d,p) F
 req
 ----------------------------------------------------------------------

 Structure from the checkpoint file:  "216-an.chk"
 -------
 Reduced
 -------
 Charge = -2 Multiplicity = 1

                          Input orientation:
 ---------------------------------------------------------------------
 Center     Atomic      Atomic             Coordinates (Angstroms)
 Number     Number       Type             X           Y           Z
 ---------------------------------------------------------------------
      1          6           0        5.114426   -2.758726    0.171650
      2          6           0        5.915629   -2.148078   -0.759777
      3          6           0        5.294059   -1.277800   -1.711728
      4          6           0        3.709717   -2.558264    0.228610
      5          6           0        3.100624   -1.669826   -0.744253
      6          6           0        3.924881   -1.043012   -1.690148
      7          6           0        2.942485   -3.238027    1.244690
      8          6           0        1.507065   -2.957675    1.202616
      9          6           0        0.897976   -2.069239    0.229749
     10          6           0        1.665216   -1.389449   -0.786311
     11          6           0        0.682803   -3.584515    2.148479
     12          6           0       -0.506738   -1.868818    0.286683
     13          6           0       -1.307953   -2.479520    1.218068
     14          8           0        3.462520   -4.016919    2.104439
     15          8           0        1.145181   -0.610517   -1.646027
     16          1           0        5.535591   -3.434340    0.908581
     17          1           0        6.982852   -2.323797   -0.801771
     18         16           0        6.288480   -0.430703   -2.857154
     19          1           0       -2.375184   -2.303861    1.260034
     20          1           0        3.450945   -0.380214   -2.404625
     21          1           0        1.156758   -4.247295    2.862963
     22          1           0       -0.927900   -1.193187   -0.450235
     23          6           0       -0.686389   -3.349769    2.170047
     24         16           0       -1.680810   -4.197075    3.315331
     25          8           0       -0.933656   -4.709662    4.469871
     26          8           0       -2.944988   -3.489148    3.575389
     27          8           0       -2.126815   -5.570057    2.417109
     28          6           0       -3.006575   -6.469590    3.091566
     29          1           0       -2.543064   -6.864133    4.001875
     30          1           0       -3.190829   -7.287806    2.391923
     31          1           0       -3.953691   -5.979914    3.342094
     32          8           0        5.541085    0.082481   -4.011260
     33          8           0        7.552178   -1.139229   -3.117904
     34          8           0        6.735540    0.941812   -1.958644
     35          6           0        7.615388    1.841144   -2.633220
     36          1           0        7.151701    2.236069   -3.543276
     37          1           0        8.562228    1.351166   -2.884208
     38          1           0        7.800215    2.659143   -1.933471
 ---------------------------------------------------------------------

 SCF Done:  E(UB3LYP) =  -2015.40315599     A.U. after    2 cycles

 Alpha  occ. eigenvalues --  -88.88425 -88.88425 -18.98033 -18.98032 -18.93663
 Alpha  occ. eigenvalues --  -18.93662 -18.93656 -18.93656 -18.82517 -18.82516
 Alpha  occ. eigenvalues --  -10.06659 -10.06658 -10.00384 -10.00384  -9.98922
 Alpha  occ. eigenvalues --   -9.98921  -9.98004  -9.98004  -9.97368  -9.97368
 Alpha  occ. eigenvalues --   -9.96348  -9.96347  -9.95643  -9.95642  -9.94887
 Alpha  occ. eigenvalues --   -9.94886  -7.94558  -7.94557  -5.90932  -5.90931
 Alpha  occ. eigenvalues --   -5.90780  -5.90780  -5.90566  -5.90566  -0.95001
 Alpha  occ. eigenvalues --   -0.95001  -0.85019  -0.85018  -0.82451  -0.82450
 Alpha  occ. eigenvalues --   -0.75036  -0.74661  -0.65741  -0.65548  -0.59445
 Alpha  occ. eigenvalues --   -0.57930  -0.55635  -0.54568  -0.54405  -0.53290
 Alpha  occ. eigenvalues --   -0.48108  -0.47149  -0.43302  -0.42432  -0.40065
 Alpha  occ. eigenvalues --   -0.38479  -0.36821  -0.35534  -0.33921  -0.32836
 Alpha  occ. eigenvalues --   -0.32441  -0.31616  -0.30545  -0.30511  -0.28934
 Alpha  occ. eigenvalues --   -0.28170  -0.27672  -0.27587  -0.25764  -0.25395
 Alpha  occ. eigenvalues --   -0.25116  -0.22659  -0.22470  -0.22289  -0.22195
 Alpha  occ. eigenvalues --   -0.21370  -0.19357  -0.19172  -0.18995  -0.16703
 Alpha  occ. eigenvalues --   -0.16438  -0.16236  -0.16211  -0.16046  -0.15778
 Alpha  occ. eigenvalues --   -0.14854  -0.14723  -0.13652  -0.13451  -0.13370
 Alpha  occ. eigenvalues --   -0.13204  -0.12787  -0.11837  -0.11407  -0.10876
 Alpha  occ. eigenvalues --   -0.10866  -0.05646  -0.04570  -0.03887  -0.03376
 Alpha  occ. eigenvalues --   -0.00448   0.00179   0.08473
 Alpha virt. eigenvalues --    0.12122   0.12361   0.13680   0.16052   0.16067
 Alpha virt. eigenvalues --    0.16339   0.16406   0.17039   0.17088   0.17374
 Alpha virt. eigenvalues --    0.18132   0.18553   0.19067   0.20211   0.21092

  Beta  occ. eigenvalues --  -88.88425 -88.88425 -18.98033 -18.98032 -18.93663
  Beta  occ. eigenvalues --  -18.93662 -18.93656 -18.93656 -18.82517 -18.82516
  Beta  occ. eigenvalues --  -10.06659 -10.06658 -10.00384 -10.00384  -9.98922
  Beta  occ. eigenvalues --   -9.98921  -9.98004  -9.98004  -9.97368  -9.97368
  Beta  occ. eigenvalues --   -9.96348  -9.96347  -9.95643  -9.95642  -9.94887
  Beta  occ. eigenvalues --   -9.94886  -7.94558  -7.94557  -5.90932  -5.90931
  Beta  occ. eigenvalues --   -5.90780  -5.90780  -5.90566  -5.90566  -0.95001
  Beta  occ. eigenvalues --   -0.95001  -0.85019  -0.85018  -0.82451  -0.82450
  Beta  occ. eigenvalues --   -0.75036  -0.74661  -0.65741  -0.65548  -0.59445
  Beta  occ. eigenvalues --   -0.57930  -0.55635  -0.54568  -0.54405  -0.53290
  Beta  occ. eigenvalues --   -0.48108  -0.47149  -0.43302  -0.42432  -0.40065
  Beta  occ. eigenvalues --   -0.38479  -0.36821  -0.35534  -0.33921  -0.32836
  Beta  occ. eigenvalues --   -0.32441  -0.31616  -0.30545  -0.30511  -0.28934
  Beta  occ. eigenvalues --   -0.28170  -0.27672  -0.27587  -0.25764  -0.25395
  Beta  occ. eigenvalues --   -0.25116  -0.22659  -0.22470  -0.22289  -0.22195
  Beta  occ. eigenvalues --   -0.21370  -0.19357  -0.19172  -0.18995  -0.16703
  Beta  occ. eigenvalues --   -0.16438  -0.16236  -0.16211  -0.16046  -0.15778
  Beta  occ. eigenvalues --   -0.14854  -0.14723  -0.13652  -0.13451  -0.13370
  Beta  occ. eigenvalues --   -0.13204  -0.12787  -0.11837  -0.11407  -0.10876
  Beta  occ. eigenvalues --   -0.10866  -0.05646  -0.04570  -0.03887  -0.03376
  Beta  occ. eigenvalues --   -0.00448   0.00179   0.08473
  Beta virt. eigenvalues --    0.12122   0.12361   0.13680   0.16052   0.16067
  Beta virt. eigenvalues --    0.16339   0.16406   0.17039   0.17088   0.17374
  Beta virt. eigenvalues --    0.18132   0.18553   0.19067   0.20211   0.21092

 Mulliken charges and spin densities:
               1          2
     1  C   -0.055610   0.000000
     2  C   -0.387865   0.000000
     3  C   -0.892316  -0.000000
     4  C    0.738432   0.000000
     5  C    0.294611  -0.000000
     6  C    0.080306   0.000000
     7  C   -0.815140   0.000000
     8  C    0.294695  -0.000000
     9  C    0.738543  -0.000000
    10  C   -0.815335   0.000000
    11  C    0.080081   0.000000
    12  C   -0.055431  -0.000000
    13  C   -0.387736  -0.000000
    14  O   -0.446305   0.000000
    15  O   -0.446305  -0.000000
    16  H    0.140717  -0.000000
    17  H    0.173035   0.000000
    18  S    0.209293  -0.000000
    19  H    0.173057  -0.000000
    20  H    0.223265   0.000000
    21  H    0.223219   0.000000
    22  H    0.140726   0.000000
    23  C   -0.892007   0.000000
    24  S    0.209105   0.000000
    25  O   -0.219323  -0.000000
    26  O   -0.248960  -0.000000
    27  O   -0.071661  -0.000000
    28  C   -0.107498   0.000000
    29  H    0.137034  -0.000000
    30  H    0.119187  -0.000000
    31  H    0.128661  -0.000000
    32  O   -0.219230   0.000000
    33  O   -0.248925  -0.000000
    34  O   -0.071668   0.000000
    35  C   -0.107522  -0.000000
    36  H    0.137035   0.000000
    37  H    0.128652   0.000000
    38  H    0.119186   0.000000
 Sum of Mulliken charges =  -2.00000  -0.00000

 Dipole moment (field-independent basis, Debye):
    X=            -22.1304    Y=             22.2275    Z=             -2.2016  Tot=             31.4430
 Quadrupole moment (field-independent basis, Debye-Ang):
   XX=           -322.9416   YY=           -250.7827   ZZ=           -260.2025
   XY=             36.7507   XZ=             53.6020   YZ=             46.4613

  Exact polarizability: 873.953 294.810 419.517-286.250-194.552 374.690
 Approx polarizability:1560.830 274.050 528.393-423.402-247.270 596.840

                      1                      2                      3
                      A                      A                      A
 Frequencies --     18.5178                21.2319                26.6822
 Red. masses --      6.5937                 5.0014                 4.7706
 Frc consts  --      0.0013                 0.0013                 0.0020
 IR Inten    --      2.5494                 3.8674                 0.0000

                      4                      5                      6
                      A                      A                      A
 Frequencies --     53.2535                54.5055                60.1145
 Red. masses --      5.8536                 3.4238                 3.3435
 Frc consts  --      0.0098                 0.0060                 0.0071
 IR Inten    --      0.0000                 2.1242                 0.0000

                      7                      8                      9
                      A                      A                      A
 Frequencies --     74.4098                86.7361               121.4000
 Red. masses --      6.9905                 7.9656                 8.0497
 Frc consts  --      0.0228                 0.0353                 0.0699
 IR Inten    --      2.6275                 1.8218                 0.0294

                     10                     11                     12
                      A                      A                      A
 Frequencies --    121.4992               135.2588               145.3071
 Red. masses --      4.0279                 3.0556                 1.1776
 Frc consts  --      0.0350                 0.0329                 0.0146
 IR Inten    --      5.5463                 0.0000                 1.8891

                     13                     14                     15
                      A                      A                      A
 Frequencies --    147.3739               166.0355               188.2299
 Red. masses --      1.4241                 7.9400                 9.9280
 Frc consts  --      0.0182                 0.1290                 0.2072
 IR Inten    --      0.0000                10.6839                 0.0000

                     16                     17                     18
                      A                      A                      A
 Frequencies --    212.3408               223.1668               240.6691
 Red. masses --      5.5264                 9.6665                 5.4798
 Frc consts  --      0.1468                 0.2836                 0.1870
 IR Inten    --      0.0000                 5.3919                70.2391

                     19                     20                     21
                      A                      A                      A
 Frequencies --    266.9524               268.0497               268.8429
 Red. masses --      8.8455                13.0799                 5.1658
 Frc consts  --      0.3714                 0.5537                 0.2200
 IR Inten    --     17.4356                 0.0003                 0.0002

                     22                     23                     24
                      A                      A                      A
 Frequencies --    321.9755               329.6998               367.3627
 Red. masses --      5.9265                 5.9046                 7.7071
 Frc consts  --      0.3620                 0.3782                 0.6128
 IR Inten    --     78.2007                 0.0000                32.4078

                     25                     26                     27
                      A                      A                      A
 Frequencies --    369.5905               388.8155               406.7167
 Red. masses --      7.8770                 9.6074                 7.1419
 Frc consts  --      0.6339                 0.8557                 0.6961
 IR Inten    --      0.0005                49.4890                 0.0000

                     28                     29                     30
                      A                      A                      A
 Frequencies --    424.3919               424.4620               455.1659
 Red. masses --      3.5150                 6.3871                10.6577
 Frc consts  --      0.3730                 0.6780                 1.3009
 IR Inten    --     59.2996                 0.6776                 0.0002

                     31                     32                     33
                      A                      A                      A
 Frequencies --    462.4511               473.1901               474.5411
 Red. masses --     10.5794                 7.0705                 9.6181
 Frc consts  --      1.3330                 0.9328                 1.2761
 IR Inten    --     51.7916                 0.0000                32.7901

                     34                     35                     36
                      A                      A                      A
 Frequencies --    482.6785               488.9005               509.7623
 Red. masses --      9.8918                 4.6219                 5.7551
 Frc consts  --      1.3578                 0.6509                 0.8811
 IR Inten    --      0.0000                 0.0001               628.9875

                     37                     38                     39
                      A                      A                      A
 Frequencies --    525.7028               585.8352               593.2714
 Red. masses --      7.8535                 9.2483                 9.5662
 Frc consts  --      1.2788                 1.8701                 1.9838
 IR Inten    --      0.0000                 0.0020               746.7315

                     40                     41                     42
                      A                      A                      A
 Frequencies --    597.9205               631.7888               642.0172
 Red. masses --      9.9173                 7.2822                 7.4470
 Frc consts  --      2.0890                 1.7126                 1.8085
 IR Inten    --   1221.3843                 0.0000                30.9437

                     43                     44                     45
                      A                      A                      A
 Frequencies --    643.3814               682.2027               690.0031
 Red. masses --      7.8131                 7.6017                 6.8005
 Frc consts  --      1.9055                 2.0844                 1.9076
 IR Inten    --      0.0004               675.8623                 0.0000

                     46                     47                     48
                      A                      A                      A
 Frequencies --    710.0597               720.8450               732.1490
 Red. masses --      3.6579                 3.8083                 8.6700
 Frc consts  --      1.0866                 1.1659                 2.7382
 IR Inten    --      1.5163                29.5598                 0.0000

                     49                     50                     51
                      A                      A                      A
 Frequencies --    756.4237               789.0614               825.0436
 Red. masses --      1.4324                 1.8593                 4.5551
 Frc consts  --      0.4829                 0.6821                 1.8268
 IR Inten    --      0.0000                33.3754                 0.0000

                     52                     53                     54
                      A                      A                      A
 Frequencies --    838.0986               951.6649               960.3214
 Red. masses --      7.1006                 5.3790                 3.8516
 Frc consts  --      2.9386                 2.8702                 2.0928
 IR Inten    --    306.8139               137.4406                 0.0000

                     55                     56                     57
                      A                      A                      A
 Frequencies --    964.5598               965.0889               980.2688
 Red. masses --      1.3739                 1.6884                 1.2960
 Frc consts  --      0.7531                 0.9265                 0.7337
 IR Inten    --      4.2230                 0.0002                 0.0000

                     58                     59                     60
                      A                      A                      A
 Frequencies --    982.7309              1001.0981              1005.8311
 Red. masses --      1.3333                 5.4393                 7.6344
 Frc consts  --      0.7587                 3.2118                 4.5507
 IR Inten    --      3.9046              1168.1853                 0.0282

                     61                     62                     63
                      A                      A                      A
 Frequencies --   1035.0278              1044.1373              1064.5306
 Red. masses --      2.9303                 2.6637                10.0138
 Frc consts  --      1.8495                 1.7110                 6.6860
 IR Inten    --    802.8909                 0.0002              2073.7146

                     64                     65                     66
                      A                      A                      A
 Frequencies --   1086.4126              1117.3850              1130.0906
 Red. masses --      6.7299                 2.5428                 1.5704
 Frc consts  --      4.6800                 1.8705                 1.1817
 IR Inten    --      0.0003               237.3799                 0.0001

                     67                     68                     69
                      A                      A                      A
 Frequencies --   1145.8651              1165.6924              1165.7037
 Red. masses --      2.8736                 1.2758                 1.2759
 Frc consts  --      2.2230                 1.0214                 1.0215
 IR Inten    --    473.2011                 1.9269                 3.2994

                     70                     71                     72
                      A                      A                      A
 Frequencies --   1177.5518              1177.6537              1180.7916
 Red. masses --      1.4784                 1.3633                 3.5820
 Frc consts  --      1.2078                 1.1140                 2.9425
 IR Inten    --      0.1211                61.4496                 0.0000

                     73                     74                     75
                      A                      A                      A
 Frequencies --   1217.2675              1217.5108              1242.6884
 Red. masses --      2.2530                 1.6591                 3.6196
 Frc consts  --      1.9669                 1.4490                 3.2934
 IR Inten    --    245.2579                 0.0502               449.6111

                     76                     77                     78
                      A                      A                      A
 Frequencies --   1247.4525              1250.8902              1309.6287
 Red. masses --     15.5731                 3.5178                 2.2858
 Frc consts  --     14.2782                 3.2431                 2.3099
 IR Inten    --      0.0017                11.0481                 0.0000

                     79                     80                     81
                      A                      A                      A
 Frequencies --   1347.9277              1358.5634              1382.5718
 Red. masses --      4.1074                 6.7653                 5.4761
 Frc consts  --      4.3969                 7.3569                 6.1673
 IR Inten    --    262.7553                 0.0000               815.0751

                     82                     83                     84
                      A                      A                      A
 Frequencies --   1440.4577              1446.2668              1447.1364
 Red. masses --      3.6285                 1.1861                 1.1836
 Frc consts  --      4.4358                 1.4617                 1.4604
 IR Inten    --      0.0000                92.4094                 0.0032

                     85                     86                     87
                      A                      A                      A
 Frequencies --   1450.2793              1467.9820              1471.1554
 Red. masses --      2.3327                 6.2717                 3.7850
 Frc consts  --      2.8908                 7.9631                 4.8265
 IR Inten    --     90.2262               643.8650                 0.0013

                     88                     89                     90
                      A                      A                      A
 Frequencies --   1476.7591              1476.9070              1498.4453
 Red. masses --      1.0520                 1.0653                 7.3549
 Frc consts  --      1.3517                 1.3691                 9.7299
 IR Inten    --      0.0000                 3.9159                 0.0000

                     91                     92                     93
                      A                      A                      A
 Frequencies --   1506.8721              1506.8769              1512.7322
 Red. masses --      1.0520                 1.0508                 6.0543
 Frc consts  --      1.4074                 1.4058                 8.1628
 IR Inten    --      7.7930                 0.7512               214.4363

                     94                     95                     96
                      A                      A                      A
 Frequencies --   1546.8418              1570.0078              1600.1423
 Red. masses --      7.1820                 7.3771                 7.5873
 Frc consts  --     10.1249                10.7138                11.4460
 IR Inten    --      0.0000               447.6390                 0.0000

                     97                     98                     99
                      A                      A                      A
 Frequencies --   3000.6050              3001.0706              3064.7832
 Red. masses --      1.0288                 1.0288                 1.1060
 Frc consts  --      5.4573                 5.4595                 6.1208
 IR Inten    --    526.8034                 0.2319                22.5848

                    100                    101                    102
                      A                      A                      A
 Frequencies --   3064.8094              3089.6125              3089.8111
 Red. masses --      1.1060                 1.1037                 1.1035
 Frc consts  --      6.1209                 6.2073                 6.2072
 IR Inten    --     36.4513               224.9759                 1.0200

                    103                    104                    105
                      A                      A                      A
 Frequencies --   3167.0183              3167.2597              3192.1756
 Red. masses --      1.0867                 1.0868                 1.0896
 Frc consts  --      6.4220                 6.4236                 6.5419
 IR Inten    --     14.7224                 0.0000                 3.7425

                    106                    107                    108
                      A                      A                      A
 Frequencies --   3192.2862              3193.3323              3193.5760
 Red. masses --      1.0894                 1.0926                 1.0929
 Frc consts  --      6.5410                 6.5644                 6.5672
 IR Inten    --      0.0373                28.9386                 0.0803

 - Thermochemistry -
 -------------------
 Temperature   298.150 Kelvin.  Pressure   1.00000 Atm.
 Atom     1 has atomic number  6 and mass  12.00000

 Molecular mass:   395.99736 amu.
 Principal axes and moments of inertia in atomic units:
                           1         2         3
     Eigenvalues --  2982.22545********************
           X            0.75696   0.64508   0.10434
           Y            0.39717  -0.58097   0.71044
           Z           -0.51891   0.49634   0.69598
 This molecule is an asymmetric top.
 Rotational symmetry number  1.
 Warning -- assumption of classical behavior for rotation
           may cause significant error
 Rotational temperatures (Kelvin)      0.02904     0.00307     0.00290
 Rotational constants (GHZ):           0.60517     0.06389     0.06051
 Zero-point vibrational energy     675628.1 (Joules/Mol)
                                  161.47899 (Kcal/Mol)
 Warning -- explicit consideration of  40 degrees of freedom as
           vibrations may cause significant error
 Vibrational temperatures:     26.64    30.55    38.39    76.62    78.42
          (Kelvin)             86.49   107.06   124.79   174.67   174.81
                              194.61   209.06   212.04   238.89   270.82
                              305.51   321.09   346.27   384.09   385.66
                              386.80   463.25   474.36   528.55   531.76
                              559.42   585.17   610.61   610.71   654.88
                              665.36   680.81   682.76   694.47   703.42
                              733.43   756.37   842.89   853.59   860.27
                              909.00   923.72   925.68   981.54   992.76
                             1021.62  1037.14  1053.40  1088.33  1135.28
                             1187.05  1205.84  1369.23  1381.69  1387.79
                             1388.55  1410.39  1413.93  1440.36  1447.17
                             1489.17  1502.28  1531.62  1563.11  1607.67
                             1625.95  1648.64  1677.17  1677.19  1694.23
                             1694.38  1698.90  1751.38  1751.73  1787.95
                             1794.81  1799.75  1884.26  1939.37  1954.67
                             1989.21  2072.50  2080.86  2082.11  2086.63
                             2112.10  2116.66  2124.73  2124.94  2155.93
                             2168.05  2168.06  2176.48  2225.56  2258.89
                             2302.25  4317.20  4317.87  4409.54  4409.58
                             4445.26  4445.55  4556.63  4556.98  4592.83
                             4592.99  4594.49  4594.84

 Zero-point correction=                           0.257333 (Hartree/Particle)
 Thermal correction to Energy=                    0.281480
 Thermal correction to Enthalpy=                  0.282424
 Thermal correction to Gibbs Free Energy=         0.200904
 Sum of electronic and zero-point Energies=          -2015.145823
 Sum of electronic and thermal Energies=             -2015.121676
 Sum of electronic and thermal Enthalpies=           -2015.120732
 Sum of electronic and thermal Free Energies=        -2015.202252

                     E (Thermal)             CV                S
                      KCal/Mol        Cal/Mol-Kelvin    Cal/Mol-Kelvin
 Total                  176.631             89.729            171.574
 Electronic               0.000              0.000              0.000
 Translational            0.889              2.981             43.820
 Rotational               0.889              2.981             36.173
 Vibrational            174.854             83.768             91.581
 Vibration     1          0.593              1.986              6.787
 Vibration     2          0.593              1.985              6.516
 Vibration     3          0.593              1.984              6.062
 Vibration     4          0.596              1.976              4.693
 Vibration     5          0.596              1.976              4.647
 Vibration     6          0.597              1.973              4.453
 Vibration     7          0.599              1.966              4.033
 Vibration     8          0.601              1.958              3.732
 Vibration     9          0.609              1.931              3.078
 Vibration    10          0.609              1.931              3.076
 Vibration    11          0.613              1.918              2.870
 Vibration    12          0.617              1.908              2.733
 Vibration    13          0.617              1.906              2.706
 Vibration    14          0.624              1.884              2.480
 Vibration    15          0.633              1.856              2.245
 Vibration    16          0.643              1.822              2.023
 Vibration    17          0.649              1.806              1.933
 Vibration    18          0.658              1.778              1.798
 Vibration    19          0.672              1.734              1.616
 Vibration    20          0.673              1.732              1.609
 Vibration    21          0.673              1.730              1.604
 Vibration    22          0.707              1.631              1.300
 Vibration    23          0.712              1.616              1.262
 Vibration    24          0.740              1.539              1.091
 Vibration    25          0.742              1.535              1.081
 Vibration    26          0.757              1.494              1.005
 Vibration    27          0.771              1.456              0.938
 Vibration    28          0.786              1.417              0.877
 Vibration    29          0.786              1.417              0.877
 Vibration    30          0.814              1.349              0.780
 Vibration    31          0.820              1.333              0.759
 Vibration    32          0.830              1.310              0.729
 Vibration    33          0.831              1.307              0.725
 Vibration    34          0.839              1.288              0.703
 Vibration    35          0.845              1.275              0.686
 Vibration    36          0.865              1.228              0.634
 Vibration    37          0.881              1.193              0.597
 Vibration    38          0.943              1.062              0.475
 Vibration    39          0.951              1.046              0.461
 Vibration    40          0.956              1.036              0.453

                           ! Non-Optimized Parameters !
 Normal termination of Gaussian 16 at Fri Dec 22 02:44:47 2023.
