 Q-Chem 5.4, Q-Chem, Inc., Pleasanton, CA (2021)
 Q-Chem 5.4.0 for Intel X86 EM64T Linux

User input:
--------------------------------------------------------------
$molecule
0 1
C                 -3.4280220000     -2.7444960000     -0.3560610000
O                 -2.1340490000     -2.1738160000     -0.1999850000
C                 -1.9880400000     -0.8320830000     -0.2015380000
C                 -3.0886340000      0.0367420000     -0.3547390000
C                 -2.9305040000      1.4045910000     -0.3552190000
C                 -1.6600410000      1.9765900000     -0.2020990000
O                 -1.5816290000      3.3141960000     -0.2124530000
C                 -0.5381430000      1.1311110000     -0.0463840000
C                  0.7824320000      1.7574890000      0.1124420000
O                  0.9119470000      2.9927050000      0.1098290000
C                  1.9687640000      0.8942440000      0.2773340000
C                  3.2328500000      1.4778620000      0.4302900000
C                  4.3531380000      0.6733860000      0.5859250000
C                  4.2187040000     -0.7188940000      0.5898480000
C                  2.9667290000     -1.3019740000      0.4383900000
C                  1.8316310000     -0.5005350000      0.2809400000
C                  0.4976620000     -1.1666260000      0.1203240000
O                  0.4372510000     -2.3848980000      0.1306050000
C                 -0.6961800000     -0.2888220000     -0.0451290000
H                 -3.2711900000     -3.8207550000     -0.3196880000
H                 -4.0994400000     -2.4490480000      0.4570350000
H                 -3.8731580000     -2.4761050000     -1.3199190000
H                 -4.0826700000     -0.3704710000     -0.4751920000
H                 -3.7805630000      2.0654750000     -0.4734560000
H                 -0.6260020000      3.5454080000     -0.0944890000
H                  3.3101270000      2.5576950000      0.4237850000
H                  5.3316410000      1.1245970000      0.7043760000
H                  5.0945610000     -1.3462930000      0.7115470000
H                  2.8408260000     -2.3772760000      0.4385880000
$end

$rem
BASIS  =  6-311++G(d,p)
GUI  =  2
JOB_TYPE  =  SP
METHOD  =  B3LYP
SCF_CONVERGENCE  = 8
SOLVENT_METHOD = sm12
$end

$smx
solvent dimethylformamide
charges CM5
$end

--------------------------------------------------------------

             Standard Nuclear Orientation (Angstroms)
    I     Atom           X                Y                Z
 ----------------------------------------------------------------
    1      C      -3.4280220000    -2.7444960000    -0.3560610000
    2      O      -2.1340490000    -2.1738160000    -0.1999850000
    3      C      -1.9880400000    -0.8320830000    -0.2015380000
    4      C      -3.0886340000     0.0367420000    -0.3547390000
    5      C      -2.9305040000     1.4045910000    -0.3552190000
    6      C      -1.6600410000     1.9765900000    -0.2020990000
    7      O      -1.5816290000     3.3141960000    -0.2124530000
    8      C      -0.5381430000     1.1311110000    -0.0463840000
    9      C       0.7824320000     1.7574890000     0.1124420000
   10      O       0.9119470000     2.9927050000     0.1098290000
   11      C       1.9687640000     0.8942440000     0.2773340000
   12      C       3.2328500000     1.4778620000     0.4302900000
   13      C       4.3531380000     0.6733860000     0.5859250000
   14      C       4.2187040000    -0.7188940000     0.5898480000
   15      C       2.9667290000    -1.3019740000     0.4383900000
   16      C       1.8316310000    -0.5005350000     0.2809400000
   17      C       0.4976620000    -1.1666260000     0.1203240000
   18      O       0.4372510000    -2.3848980000     0.1306050000
   19      C      -0.6961800000    -0.2888220000    -0.0451290000
   20      H      -3.2711900000    -3.8207550000    -0.3196880000
   21      H      -4.0994400000    -2.4490480000     0.4570350000
   22      H      -3.8731580000    -2.4761050000    -1.3199190000
   23      H      -4.0826700000    -0.3704710000    -0.4751920000
   24      H      -3.7805630000     2.0654750000    -0.4734560000
   25      H      -0.6260020000     3.5454080000    -0.0944890000
   26      H       3.3101270000     2.5576950000     0.4237850000
   27      H       5.3316410000     1.1245970000     0.7043760000
   28      H       5.0945610000    -1.3462930000     0.7115470000
   29      H       2.8408260000    -2.3772760000     0.4385880000
 ----------------------------------------------------------------

   15    -878.7550674152      4.52e-09  Convergence criterion met
 Total energy in the final basis set =     -878.7807405476

                    Orbital Energies (a.u.)
 --------------------------------------------------------------

 Alpha MOs
 -- Occupied --
-19.1631 -19.1576 -19.1369 -19.1161 -10.2866 -10.2747 -10.2625 -10.2622
-10.2192 -10.2106 -10.2097 -10.2067 -10.2056 -10.2019 -10.1987 -10.1967
-10.1964 -10.1954 -10.1938  -1.0892  -1.0841  -1.0580  -1.0517  -0.8914
 -0.8775  -0.8148  -0.7802  -0.7750  -0.7705  -0.7108  -0.6946  -0.6643
 -0.6526  -0.6133  -0.5981  -0.5649  -0.5599  -0.5434  -0.5215  -0.5009
 -0.4943  -0.4854  -0.4787  -0.4609  -0.4579  -0.4566  -0.4493  -0.4435
 -0.4354  -0.4245  -0.4241  -0.4128  -0.4078  -0.3866  -0.3798  -0.3794
 -0.3679  -0.3661  -0.3448  -0.3190  -0.2908  -0.2898  -0.2774  -0.2759
 -0.2613  -0.2288

          Ground-State Mulliken Net Atomic Charges

     Atom                 Charge (a.u.)
  ----------------------------------------
      1 C                    -0.095068
      2 O                    -0.167008
      3 C                    -0.326166
      4 C                     1.631413
      5 C                     0.448807
      6 C                    -0.734159
      7 O                    -0.354907
      8 C                    -0.047755
      9 C                    -1.315222
     10 O                    -0.289251
     11 C                    -0.473832
     12 C                     0.232489
     13 C                     0.449872
     14 C                     0.361757
     15 C                     0.098080
     16 C                    -0.565382
     17 C                    -1.265723
     18 O                    -0.275471
     19 C                    -0.047896
     20 H                     0.223604
     21 H                     0.224655
     22 H                     0.224719
     23 H                     0.435426
     24 H                     0.279889
     25 H                     0.311780
     26 H                     0.209604
     27 H                     0.328424
     28 H                     0.320121
     29 H                     0.177201
  ----------------------------------------
  Sum of atomic charges =     0.000000

                    Cartesian Multipole Moments
 -----------------------------------------------------------------
    Charge (ESU x 10^10)
                 0.0000
    Dipole Moment (Debye)
         X      -1.4937      Y      -1.7444      Z      -0.1616
       Tot       2.3022
    Quadrupole Moments (Debye-Ang)
        XX     -71.3813     XY       9.1752     YY    -120.7037
        XZ       4.9094     YZ       1.2381     ZZ    -110.8004

 Total job time:  732.92s(wall), 5737.22s(cpu)
        *  Thank you very much for using Q-Chem.  Have a nice day.  *
