 Q-Chem 5.4, Q-Chem, Inc., Pleasanton, CA (2021)
 Q-Chem 5.4.0 for Intel X86 EM64T Linux

User input:
--------------------------------------------------------------
$molecule
-2 1
C                  1.8198350000      0.9016420000     -0.9106720000
C                  0.6110830000      1.3504190000     -0.2987200000
C                 -0.3853440000      0.4897630000      0.2062670000
C                 -0.2672530000     -0.9319410000      0.2484850000
C                  0.9633200000     -1.3875710000     -0.3587070000
C                  1.9344690000     -0.5394090000     -0.8815620000
O                  2.7024300000      1.6515440000     -1.4723220000
O                 -1.1079140000     -1.7410520000      0.7920310000
O                  3.0336290000     -1.1267680000     -1.5114340000
C                  4.2814150000     -0.7704520000     -0.9405950000
Br                 0.3207580000      3.2801900000     -0.4158450000
Br                -1.9619270000      1.1916770000      1.1248460000
H                  4.3975680000      0.3179580000     -0.9337540000
H                  5.0565820000     -1.2298670000     -1.5667710000
H                  4.3706530000     -1.1709370000      0.0826620000
O                  1.2498720000     -2.7538120000     -0.3242850000
C                  0.3173650000     -3.5547340000     -1.0305220000
H                 -0.6947250000     -3.3803310000     -0.6518110000
H                  0.6094100000     -4.5991410000     -0.8633080000
H                  0.3625430000     -3.3440890000     -2.1117210000
$end

$rem
BASIS  =  6-311++G(d,p)
GUI  =  2
JOB_TYPE  =  SP
METHOD  =  B3LYP
SCF_CONVERGENCE  = 8
SOLVENT_METHOD = sm12
$end

$smx
solvent dimethylformamide
charges CM5
$end

--------------------------------------------------------------

             Standard Nuclear Orientation (Angstroms)
    I     Atom           X                Y                Z
 ----------------------------------------------------------------
    1      C       1.8198350000     0.9016420000    -0.9106720000
    2      C       0.6110830000     1.3504190000    -0.2987200000
    3      C      -0.3853440000     0.4897630000     0.2062670000
    4      C      -0.2672530000    -0.9319410000     0.2484850000
    5      C       0.9633200000    -1.3875710000    -0.3587070000
    6      C       1.9344690000    -0.5394090000    -0.8815620000
    7      O       2.7024300000     1.6515440000    -1.4723220000
    8      O      -1.1079140000    -1.7410520000     0.7920310000
    9      O       3.0336290000    -1.1267680000    -1.5114340000
   10      C       4.2814150000    -0.7704520000    -0.9405950000
   11      Br      0.3207580000     3.2801900000    -0.4158450000
   12      Br     -1.9619270000     1.1916770000     1.1248460000
   13      H       4.3975680000     0.3179580000    -0.9337540000
   14      H       5.0565820000    -1.2298670000    -1.5667710000
   15      H       4.3706530000    -1.1709370000     0.0826620000
   16      O       1.2498720000    -2.7538120000    -0.3242850000
   17      C       0.3173650000    -3.5547340000    -1.0305220000
   18      H      -0.6947250000    -3.3803310000    -0.6518110000
   19      H       0.6094100000    -4.5991410000    -0.8633080000
   20      H       0.3625430000    -3.3440890000    -2.1117210000
 ----------------------------------------------------------------

   16   -5757.7517054471      9.16e-09  Convergence criterion met
 Total energy in the final basis set =    -5758.0064066385

                    Orbital Energies (a.u.)
 --------------------------------------------------------------

 Alpha MOs
 -- Occupied --
********-482.7938 -62.4462 -62.4461 -56.2665 -56.2665 -56.2631 -56.2630
-56.2627 -56.2627 -19.1181 -19.1181 -19.0114 -19.0114 -10.2033 -10.2033
-10.1837 -10.1832 -10.1805 -10.1805 -10.1786 -10.1781  -8.6545  -8.6545
 -6.4852  -6.4851  -6.4737  -6.4736  -6.4726  -6.4726  -2.5962  -2.5961
 -2.5930  -2.5929  -2.5923  -2.5922  -2.5831  -2.5831  -2.5831  -2.5830
 -1.0374  -1.0200  -0.9298  -0.9267  -0.8097  -0.7604  -0.7516  -0.6997
 -0.6910  -0.6376  -0.6364  -0.5497  -0.5395  -0.4881  -0.4662  -0.4632
 -0.4507  -0.4341  -0.4283  -0.4109  -0.3900  -0.3679  -0.3557  -0.3493
 -0.3388  -0.3332  -0.3278  -0.3169  -0.2879  -0.2717  -0.2662  -0.2595
 -0.2579  -0.2394  -0.2156  -0.1942  -0.1900  -0.1881  -0.1179

          Ground-State Mulliken Net Atomic Charges

     Atom                 Charge (a.u.)
  ----------------------------------------
      1 C                    -1.473992
      2 C                     0.864048
      3 C                     0.864333
      4 C                    -1.473997
      5 C                    -0.640341
      6 C                    -0.631995
      7 O                    -0.363001
      8 O                    -0.363357
      9 O                    -0.050704
     10 C                     0.112301
     11 Br                    0.154468
     12 Br                    0.153491
     13 H                     0.092330
     14 H                     0.243833
     15 H                     0.057310
     16 O                    -0.050406
     17 C                     0.112481
     18 H                     0.092463
     19 H                     0.243520
     20 H                     0.057215
  ----------------------------------------
  Sum of atomic charges =    -2.000000

                    Cartesian Multipole Moments
 -----------------------------------------------------------------
    Charge (ESU x 10^10)
                -9.6064
    Dipole Moment (Debye)
         X      -5.7262      Y      -2.2934      Z       2.4383
       Tot       6.6328
    Quadrupole Moments (Debye-Ang)
        XX    -153.4055     XY      -9.4280     YY    -156.7017
        XZ      22.2553     YZ      10.0199     ZZ    -130.7362

 Total job time:  360.37s(wall), 2670.64s(cpu)
        *  Thank you very much for using Q-Chem.  Have a nice day.  *
