 Q-Chem 5.4, Q-Chem, Inc., Pleasanton, CA (2021)
 Q-Chem 5.4.0 for Intel X86 EM64T Linux

User input:
--------------------------------------------------------------
$molecule
0 1
C                 -0.1610190000      3.8985470000      0.3881290000
C                 -1.4015770000      3.4296160000      0.8076210000
C                 -1.6934020000      2.0649540000      0.7439760000
C                  0.7973720000      3.0012000000     -0.0903840000
C                  0.5049410000      1.6333130000     -0.1539360000
C                 -0.7444680000      1.1687140000      0.2622430000
C                  2.1144610000      3.5182320000     -0.5588650000
C                  3.1605950000      2.5153140000     -0.9412730000
C                  2.8710230000      1.1840180000     -1.0313080000
C                  1.5222990000      0.6705520000     -0.6620290000
O                  2.3177080000      4.7174390000     -0.6399850000
O                  1.2635300000     -0.5216280000     -0.7479280000
H                  0.0825100000      4.9531150000      0.4208210000
H                 -2.1435990000      4.1258130000      1.1815950000
H                 -2.6622220000      1.7027110000      1.0686550000
H                 -0.9504350000      0.1074160000      0.2002310000
S                  4.7620720000      3.0574980000     -1.4703300000
C                  5.1463730000      4.5940810000     -0.5474090000
C                  3.8681410000      0.1619380000     -1.4926760000
H                  6.2221260000      4.7172130000     -0.6819470000
H                  4.9308020000      4.4717000000      0.5124950000
H                  4.6074560000      5.4459700000     -0.9472710000
H                  4.0281940000      0.2318440000     -2.5746380000
H                  3.5085770000     -0.8410100000     -1.2708250000
H                  4.8387030000      0.3286380000     -1.0177340000
$end
$rem
MAX_SCF_CYCLES=200
BASIS  =  6-311++G(d,p)
GUI  =  2
JOB_TYPE  =  SP
METHOD  =  B3LYP
SOLVENT_METHOD = COSMO
$end
$solvent
dielectric 37.219
opticaldielectric 1.43
$end

--------------------------------------------------------------

             Standard Nuclear Orientation (Angstroms)
    I     Atom           X                Y                Z
 ----------------------------------------------------------------
    1      C       2.0080740376    -1.8617663483    -0.0398281675
    2      C       3.3756545514    -1.6268026443     0.0569683630
    3      C       3.8587773249    -0.3180576117     0.1297262918
    4      C       1.1160041839    -0.7862860344    -0.0563541816
    5      C       1.6002563781     0.5255117902     0.0168296341
    6      C       2.9745988727     0.7559569748     0.1071499782
    7      C      -0.3454479426    -1.0497241281    -0.1839395369
    8      C      -1.2768675652     0.1186880952    -0.0666914989
    9      C      -0.8086171080     1.4005534484    -0.0234478905
   10      C       0.6549380302     1.6771197739     0.0008042502
   11      O      -0.7572889000    -2.1779070137    -0.3926920909
   12      O       1.0722929959     2.8261613659     0.0347371037
   13      H       1.6131305805    -2.8678041821    -0.1061331452
   14      H       4.0670522006    -2.4615850747     0.0728128732
   15      H       4.9253394228    -0.1378336720     0.2019291953
   16      H       3.3270023729     1.7786096175     0.1582839525
   17      S      -3.0285127463    -0.1256844657    -0.1697186385
   18      C      -3.3911902549    -1.7654683861     0.5652177301
   19      C      -1.7121686456     2.5982020092     0.0079337483
   20      H      -4.4674853716    -1.7397333048     0.7425112929
   21      H      -2.8754131407    -1.8846091396     1.5163349172
   22      H      -3.1305673756    -2.5727951235    -0.1103081940
   23      H      -2.1727985139     2.7667643690    -0.9721440223
   24      H      -1.1457875334     3.4897267367     0.2702406733
   25      H      -2.5283726409     2.4466147746     0.7193982504
 ----------------------------------------------------------------

    9   -1012.1262237992      8.99e-06  Convergence criterion met
 Total energy in the final basis set =    -1012.1262237992
    5   -1012.1387839199      2.56e-06  Convergence criterion met
 Total energy in the final basis set =    -1012.1387839199

                    Orbital Energies (a.u.)
 --------------------------------------------------------------

 Alpha MOs
 -- Occupied --
-88.8695 -19.1371 -19.1324 -10.2913 -10.2820 -10.2374 -10.2159 -10.2073
-10.2062 -10.1965 -10.1961 -10.1958 -10.1953 -10.1950 -10.1707  -7.9553
 -5.9192  -5.9149  -5.9098  -1.0737  -1.0663  -0.8908  -0.8606  -0.7988
 -0.7779  -0.7769  -0.7256  -0.6866  -0.6673  -0.6274  -0.6100  -0.5849
 -0.5506  -0.5200  -0.5006  -0.4744  -0.4660  -0.4626  -0.4570  -0.4500
 -0.4408  -0.4305  -0.4264  -0.4136  -0.4110  -0.4024  -0.3928  -0.3800
 -0.3775  -0.3675  -0.3430  -0.3110  -0.2916  -0.2830  -0.2782  -0.2756
 -0.2391

          Ground-State Mulliken Net Atomic Charges

     Atom                 Charge (a.u.)
  ----------------------------------------
      1 C                     0.116192
      2 C                    -0.443144
      3 C                    -0.457749
      4 C                     0.139822
      5 C                     0.655707
      6 C                     0.133142
      7 C                    -0.849885
      8 C                     0.590480
      9 C                     1.046804
     10 C                    -1.072953
     11 O                    -0.264577
     12 O                    -0.299288
     13 H                     0.214276
     14 H                     0.224179
     15 H                     0.226924
     16 H                     0.202616
     17 S                    -0.597952
     18 C                    -0.632794
     19 C                    -0.132222
     20 H                     0.180151
     21 H                     0.213838
     22 H                     0.230241
     23 H                     0.216834
     24 H                     0.189755
     25 H                     0.169604
  ----------------------------------------
  Sum of atomic charges =     0.000000

                    Cartesian Multipole Moments
 -----------------------------------------------------------------
    Charge (ESU x 10^10)
                 0.0000
    Dipole Moment (Debye)
         X       0.8489      Y      -2.4158      Z       1.4359
       Tot       2.9357
    Quadrupole Moments (Debye-Ang)
        XX     -75.1891     XY      -6.3460     YY    -102.8515
        XZ      -2.8714     YZ      -3.2516     ZZ     -96.4234

 Total job time:  42.95s(wall), 318.45s(cpu)
        *  Thank you very much for using Q-Chem.  Have a nice day.  *
