 Gaussian 16, Revision A.03,
 Gaussian 16:  ES64L-G16RevA.03 25-Dec-2016

 --------------------------------------
 #P UB3LYP/6-311++G(d,p) nosym opt freq
 --------------------------------------

 --------
 Oxidized
 --------
 Symbolic Z-matrix:
 Charge =  0 Multiplicity = 1

 SCF Done:  E(UB3LYP) =  -1012.12625793     A.U. after   18 cycles
 Optimization completed.
    -- Stationary point found.
 Normal termination of Gaussian 16 at Mon Jan  8 01:23:56 2024.

 ----------------------------------------------------------------------
 #P Geom=AllCheck Guess=TCheck SCRF=Check GenChk UB3LYP/6-311++G(d,p) F
 req
 ----------------------------------------------------------------------

 Structure from the checkpoint file:  "277.chk"
 --------
 Oxidized
 --------
 Charge =  0 Multiplicity = 1

                          Input orientation:
 ---------------------------------------------------------------------
 Center     Atomic      Atomic             Coordinates (Angstroms)
 Number     Number       Type             X           Y           Z
 ---------------------------------------------------------------------
      1          6           0       -0.161019    3.898547    0.388129
      2          6           0       -1.401577    3.429616    0.807621
      3          6           0       -1.693402    2.064954    0.743976
      4          6           0        0.797372    3.001200   -0.090384
      5          6           0        0.504941    1.633313   -0.153936
      6          6           0       -0.744468    1.168714    0.262243
      7          6           0        2.114461    3.518232   -0.558865
      8          6           0        3.160595    2.515314   -0.941273
      9          6           0        2.871023    1.184018   -1.031308
     10          6           0        1.522299    0.670552   -0.662029
     11          8           0        2.317708    4.717439   -0.639985
     12          8           0        1.263530   -0.521628   -0.747928
     13          1           0        0.082510    4.953115    0.420821
     14          1           0       -2.143599    4.125813    1.181595
     15          1           0       -2.662222    1.702711    1.068655
     16          1           0       -0.950435    0.107416    0.200231
     17         16           0        4.762072    3.057498   -1.470330
     18          6           0        5.146373    4.594081   -0.547409
     19          6           0        3.868141    0.161938   -1.492676
     20          1           0        6.222126    4.717213   -0.681947
     21          1           0        4.930802    4.471700    0.512495
     22          1           0        4.607456    5.445970   -0.947271
     23          1           0        4.028194    0.231844   -2.574638
     24          1           0        3.508577   -0.841010   -1.270825
     25          1           0        4.838703    0.328638   -1.017734
 ---------------------------------------------------------------------

 SCF Done:  E(UB3LYP) =  -1012.12625793     A.U. after    1 cycles

 Alpha  occ. eigenvalues --  -88.87010 -19.13419 -19.12664 -10.28853 -10.27704
 Alpha  occ. eigenvalues --  -10.23758 -10.21623 -10.20990 -10.20852 -10.20433
 Alpha  occ. eigenvalues --  -10.20311 -10.20255 -10.20112 -10.19957 -10.17388
 Alpha  occ. eigenvalues --   -7.95592  -5.91985  -5.91557  -5.91021  -1.07009
 Alpha  occ. eigenvalues --   -1.05952  -0.89366  -0.86210  -0.80245  -0.78123
 Alpha  occ. eigenvalues --   -0.78056  -0.72843  -0.68888  -0.67130  -0.63166
 Alpha  occ. eigenvalues --   -0.61275  -0.58644  -0.55134  -0.52347  -0.50049
 Alpha  occ. eigenvalues --   -0.47938  -0.46337  -0.46087  -0.45792  -0.45376
 Alpha  occ. eigenvalues --   -0.44306  -0.43604  -0.42651  -0.41555  -0.41270
 Alpha  occ. eigenvalues --   -0.40583  -0.39607  -0.38447  -0.37894  -0.37205
 Alpha  occ. eigenvalues --   -0.34360  -0.31056  -0.28699  -0.28584  -0.28049
 Alpha  occ. eigenvalues --   -0.27175  -0.23908
 Alpha virt. eigenvalues --   -0.12329  -0.05830  -0.03669  -0.01193  -0.00712
 Alpha virt. eigenvalues --    0.00084   0.01276   0.01871   0.02142   0.02676
 Alpha virt. eigenvalues --    0.03310   0.03550   0.04011   0.04540   0.04666

  Beta  occ. eigenvalues --  -88.87010 -19.13419 -19.12664 -10.28853 -10.27704
  Beta  occ. eigenvalues --  -10.23758 -10.21623 -10.20990 -10.20852 -10.20433
  Beta  occ. eigenvalues --  -10.20311 -10.20255 -10.20112 -10.19957 -10.17388
  Beta  occ. eigenvalues --   -7.95592  -5.91985  -5.91557  -5.91021  -1.07009
  Beta  occ. eigenvalues --   -1.05952  -0.89366  -0.86210  -0.80245  -0.78123
  Beta  occ. eigenvalues --   -0.78056  -0.72843  -0.68888  -0.67130  -0.63166
  Beta  occ. eigenvalues --   -0.61275  -0.58644  -0.55134  -0.52347  -0.50049
  Beta  occ. eigenvalues --   -0.47938  -0.46337  -0.46087  -0.45792  -0.45376
  Beta  occ. eigenvalues --   -0.44306  -0.43604  -0.42651  -0.41555  -0.41270
  Beta  occ. eigenvalues --   -0.40583  -0.39607  -0.38447  -0.37894  -0.37205
  Beta  occ. eigenvalues --   -0.34360  -0.31056  -0.28699  -0.28584  -0.28049
  Beta  occ. eigenvalues --   -0.27175  -0.23908
  Beta virt. eigenvalues --   -0.12329  -0.05830  -0.03669  -0.01193  -0.00712
  Beta virt. eigenvalues --    0.00084   0.01276   0.01871   0.02142   0.02676
  Beta virt. eigenvalues --    0.03310   0.03550   0.04011   0.04540   0.04666

 Mulliken charges and spin densities:
               1          2
     1  C    0.101800   0.000000
     2  C   -0.361729   0.000000
     3  C   -0.379225   0.000000
     4  C    0.187911   0.000000
     5  C    0.689987  -0.000000
     6  C    0.111133   0.000000
     7  C   -0.942328  -0.000000
     8  C    0.607216   0.000000
     9  C    0.992801   0.000000
    10  C   -1.162135  -0.000000
    11  O   -0.203872   0.000000
    12  O   -0.214750   0.000000
    13  H    0.195279   0.000000
    14  H    0.174503  -0.000000
    15  H    0.177071   0.000000
    16  H    0.188361   0.000000
    17  S   -0.590277   0.000000
    18  C   -0.597641   0.000000
    19  C   -0.088614  -0.000000
    20  H    0.151031   0.000000
    21  H    0.188670   0.000000
    22  H    0.228297  -0.000000
    23  H    0.190768  -0.000000
    24  H    0.198279   0.000000
    25  H    0.157463  -0.000000
 Sum of Mulliken charges =   0.00000   0.00000

 Dipole moment (field-independent basis, Debye):
    X=             -0.4031    Y=              1.4011    Z=              1.4714  Tot=              2.0714
 Quadrupole moment (field-independent basis, Debye-Ang):
   XX=            -81.5940   YY=            -95.8719   ZZ=            -96.6055
   XY=              1.2804   XZ=             -0.4118   YZ=              4.9642

  Exact polarizability: 216.188  22.789 200.246 -38.632  10.511 106.872
 Approx polarizability: 310.770  57.616 392.777 -51.802  13.733 169.778

                      1                      2                      3
                      A                      A                      A
 Frequencies --     38.2853                42.0271                74.1596
 Red. masses --      5.7544                 3.4702                 3.4278
 Frc consts  --      0.0050                 0.0036                 0.0111
 IR Inten    --      5.3193                 2.8193                 2.6172

                      4                      5                      6
                      A                      A                      A
 Frequencies --    114.7098               122.9042               152.0564
 Red. masses --      4.5751                 1.2414                 1.7512
 Frc consts  --      0.0355                 0.0110                 0.0239
 IR Inten    --      0.2362                 0.7592                 0.2547

                      7                      8                      9
                      A                      A                      A
 Frequencies --    168.0504               199.9209               259.3203
 Red. masses --      3.8465                 2.1517                 4.1858
 Frc consts  --      0.0640                 0.0507                 0.1658
 IR Inten    --      0.6555                 0.7697                 0.7671

                     10                     11                     12
                      A                      A                      A
 Frequencies --    274.7083               290.7411               321.0730
 Red. masses --      4.0955                 4.6614                 6.1049
 Frc consts  --      0.1821                 0.2322                 0.3708
 IR Inten    --      0.5762                 0.2356                 3.0965

                     13                     14                     15
                      A                      A                      A
 Frequencies --    364.4392               396.1965               417.5194
 Red. masses --      4.7328                 7.4835                 6.0011
 Frc consts  --      0.3704                 0.6921                 0.6164
 IR Inten    --      0.5789                 7.6114                15.4724

                     16                     17                     18
                      A                      A                      A
 Frequencies --    431.3755               436.2677               491.8671
 Red. masses --      3.9919                 5.0572                10.0938
 Frc consts  --      0.4377                 0.5671                 1.4388
 IR Inten    --      2.8602                 1.1324                 1.8558

                     19                     20                     21
                      A                      A                      A
 Frequencies --    530.4709               578.2916               665.2656
 Red. masses --      4.7548                 6.6517                 6.3904
 Frc consts  --      0.7883                 1.3106                 1.6664
 IR Inten    --      0.4264                 5.5470                10.4247

                     22                     23                     24
                      A                      A                      A
 Frequencies --    685.4881               697.1763               707.8580
 Red. masses --      6.3235                 4.6383                 5.8868
 Frc consts  --      1.7507                 1.3283                 1.7379
 IR Inten    --      1.3906                 2.2081                 0.9745

                     25                     26                     27
                      A                      A                      A
 Frequencies --    719.8151               793.3385               803.5109
 Red. masses --      2.8127                 4.3580                 1.8381
 Frc consts  --      0.8586                 1.6160                 0.6992
 IR Inten    --     59.9607                 4.3040                19.1330

                     28                     29                     30
                      A                      A                      A
 Frequencies --    818.1642               850.5487               914.9696
 Red. masses --      4.9431                 5.6887                 1.3709
 Frc consts  --      1.9495                 2.4247                 0.6762
 IR Inten    --     24.4706                57.7038                 0.1921

                     31                     32                     33
                      A                      A                      A
 Frequencies --    964.4593               974.8466               999.1243
 Red. masses --      5.3351                 1.1782                 1.3509
 Frc consts  --      2.9239                 0.6597                 0.7945
 IR Inten    --     32.6457                 5.4917                 1.9542

                     34                     35                     36
                      A                      A                      A
 Frequencies --   1001.3949              1016.7210              1039.9966
 Red. masses --      1.3456                 1.3223                 1.5936
 Frc consts  --      0.7950                 0.8054                 1.0155
 IR Inten    --      1.4462                 0.0535                10.7574

                     37                     38                     39
                      A                      A                      A
 Frequencies --   1050.9844              1057.7064              1114.8187
 Red. masses --      2.3047                 1.9036                 2.2350
 Frc consts  --      1.4999                 1.2548                 1.6366
 IR Inten    --      4.8441                29.8603                 4.4583

                     40                     41                     42
                      A                      A                      A
 Frequencies --   1124.1678              1183.1975              1199.1619
 Red. masses --      3.1526                 1.1400                 2.5344
 Frc consts  --      2.3474                 0.9403                 2.1472
 IR Inten    --     19.3392                 6.7439                39.4010

                     43                     44                     45
                      A                      A                      A
 Frequencies --   1265.5327              1291.6635              1317.3409
 Red. masses --      2.4173                 3.5498                 3.0950
 Frc consts  --      2.2810                 3.4894                 3.1645
 IR Inten    --     68.4727               310.8611               147.8143

                     46                     47                     48
                      A                      A                      A
 Frequencies --   1358.6751              1362.6748              1405.6993
 Red. masses --      1.6947                 2.4811                 1.2392
 Frc consts  --      1.8432                 2.7144                 1.4426
 IR Inten    --      3.5218                10.0107                17.2327

                     49                     50                     51
                      A                      A                      A
 Frequencies --   1461.1042              1471.8541              1479.4114
 Red. masses --      1.0550                 1.1076                 1.0638
 Frc consts  --      1.3269                 1.4137                 1.3718
 IR Inten    --     16.1813                22.0617                21.9148

                     52                     53                     54
                      A                      A                      A
 Frequencies --   1482.0891              1490.2831              1508.4623
 Red. masses --      2.0607                 1.1205                 2.5807
 Frc consts  --      2.6669                 1.4662                 3.4599
 IR Inten    --      4.7973                15.3976                 7.9995

                     55                     56                     57
                      A                      A                      A
 Frequencies --   1580.7499              1624.7314              1627.9655
 Red. masses --      7.0407                 7.3882                 5.9072
 Frc consts  --     10.3656                11.4909                 9.2240
 IR Inten    --    113.6350                11.4067                70.3410

                     58                     59                     60
                      A                      A                      A
 Frequencies --   1699.3969              1718.1680              3022.0034
 Red. masses --     12.2275                12.4154                 1.0439
 Frc consts  --     20.8055                21.5944                 5.6168
 IR Inten    --    183.3353               241.4661                 7.7369

                     61                     62                     63
                      A                      A                      A
 Frequencies --   3059.4337              3072.1122              3139.3113
 Red. masses --      1.0321                 1.0935                 1.1037
 Frc consts  --      5.6918                 6.0808                 6.4088
 IR Inten    --     21.0116                 7.9072                 6.0034

                     64                     65                     66
                      A                      A                      A
 Frequencies --   3141.0501              3170.4569              3184.8982
 Red. masses --      1.0981                 1.0870                 1.0930
 Frc consts  --      6.3831                 6.4376                 6.5322
 IR Inten    --      3.9844                 3.5097                 9.8319

                     67                     68                     69
                      A                      A                      A
 Frequencies --   3184.9144              3201.0183              3203.5075
 Red. masses --      1.1044                 1.0925                 1.0948
 Frc consts  --      6.6003                 6.5954                 6.6198
 IR Inten    --      2.3749                 0.4117                10.0378

 - Thermochemistry -
 -------------------
 Temperature   298.150 Kelvin.  Pressure   1.00000 Atm.
 Atom     1 has atomic number  6 and mass  12.00000

 Molecular mass:   218.04015 amu.
 Principal axes and moments of inertia in atomic units:
                           1         2         3
     Eigenvalues --  1981.485474149.592736041.20316
           X            0.94499  -0.11864   0.30482
           Y            0.17194   0.97294  -0.15436
           Z           -0.27826   0.19828   0.93982
 This molecule is an asymmetric top.
 Rotational symmetry number  1.
 Warning -- assumption of classical behavior for rotation
           may cause significant error
 Rotational temperatures (Kelvin)      0.04371     0.02087     0.01434
 Rotational constants (GHZ):           0.91080     0.43492     0.29874
 Zero-point vibrational energy     494127.1 (Joules/Mol)
                                  118.09922 (Kcal/Mol)
 Warning -- explicit consideration of  20 degrees of freedom as
           vibrations may cause significant error
 Vibrational temperatures:     55.08    60.47   106.70   165.04   176.83
          (Kelvin)            218.78   241.79   287.64   373.10   395.24
                              418.31   461.95   524.35   570.04   600.72
                              620.65   627.69   707.69   763.23   832.03
                              957.17   986.26  1003.08  1018.45  1035.65
                             1141.44  1156.07  1177.16  1223.75  1316.44
                             1387.64  1402.59  1437.52  1440.78  1462.83
                             1496.32  1512.13  1521.80  1603.98  1617.43
                             1702.36  1725.33  1820.82  1858.42  1895.36
                             1954.83  1960.59  2022.49  2102.20  2117.67
                             2128.54  2132.40  2144.19  2170.34  2274.35
                             2337.63  2342.28  2445.05  2472.06  4347.99
                             4401.84  4420.08  4516.77  4519.27  4561.58
                             4582.36  4582.38  4605.55  4609.13

 Zero-point correction=                           0.188203 (Hartree/Particle)
 Thermal correction to Energy=                    0.201998
 Thermal correction to Enthalpy=                  0.202942
 Thermal correction to Gibbs Free Energy=         0.146677
 Sum of electronic and zero-point Energies=          -1011.938055
 Sum of electronic and thermal Energies=             -1011.924260
 Sum of electronic and thermal Enthalpies=           -1011.923316
 Sum of electronic and thermal Free Energies=        -1011.979581

                     E (Thermal)             CV                S
                      KCal/Mol        Cal/Mol-Kelvin    Cal/Mol-Kelvin
 Total                  126.756             51.492            118.420
 Electronic               0.000              0.000              0.000
 Translational            0.889              2.981             42.042
 Rotational               0.889              2.981             32.274
 Vibrational            124.978             45.531             44.104
 Vibration     1          0.594              1.982              5.346
 Vibration     2          0.595              1.980              5.161
 Vibration     3          0.599              1.966              4.040
 Vibration     4          0.608              1.937              3.188
 Vibration     5          0.610              1.930              3.054
 Vibration     6          0.619              1.900              2.646
 Vibration     7          0.625              1.882              2.457
 Vibration     8          0.638              1.840              2.134
 Vibration     9          0.668              1.747              1.666
 Vibration    10          0.677              1.720              1.566
 Vibration    11          0.687              1.691              1.470
 Vibration    12          0.707              1.633              1.305
 Vibration    13          0.738              1.545              1.103
 Vibration    14          0.763              1.478              0.977
 Vibration    15          0.781              1.432              0.900
 Vibration    16          0.792              1.402              0.854
 Vibration    17          0.797              1.391              0.838
 Vibration    18          0.848              1.268              0.679
 Vibration    19          0.885              1.183              0.586
 Vibration    20          0.935              1.078              0.489

 Optimization completed.
    -- Stationary point found.
 Normal termination of Gaussian 16 at Mon Jan  8 01:44:55 2024.
