 Q-Chem 5.4, Q-Chem, Inc., Pleasanton, CA (2021)
 Q-Chem 5.4.0 for Intel X86 EM64T Linux

User input:
--------------------------------------------------------------
$molecule
-2 1
C                 -1.5566670000     -1.5435210000     -0.6384990000
C                 -1.1624990000     -0.1329380000     -0.1341440000
C                 -1.5480270000     -0.0055560000      1.3607230000
C                 -1.9975720000      0.8956770000     -0.9217130000
C                  0.3612210000      0.0639030000     -0.2925250000
C                  0.8759080000      1.0912200000     -1.0871790000
C                  2.2624140000      1.3789330000     -1.3154900000
O                  2.6676760000      2.3480720000     -2.0633960000
C                  3.1094670000      0.4650210000     -0.6150860000
C                  2.6178940000     -0.5783450000      0.1917440000
Cl                 3.7635210000     -1.6735150000      1.0282500000
C                  1.2331170000     -0.8547790000      0.4111970000
O                  0.8077130000     -1.8255370000      1.1603360000
Cl                 4.8748680000      0.7092180000     -0.8093640000
H                 -0.9610760000     -2.2872970000     -0.1042840000
H                 -2.6293230000     -1.7351500000     -0.4733000000
H                 -1.3555330000     -1.6280270000     -1.7129610000
H                 -0.9524030000     -0.7153700000      1.9392620000
H                 -2.6207900000     -0.2096870000      1.5091130000
H                 -1.3405760000      1.0104000000      1.7168880000
H                 -3.0663140000      0.6953330000     -0.7624430000
H                 -1.7984110000      0.8416190000     -1.9966060000
H                 -1.7916640000      1.9198970000     -0.5952050000
H                  0.2070570000      1.7704280000     -1.6069090000
$end
$rem
MAX_SCF_CYCLES=200
BASIS  =  6-311++G(d,p)
GUI  =  2
JOB_TYPE  =  SP
METHOD  =  B3LYP
SOLVENT_METHOD = COSMO
$end
$solvent
dielectric 37.219
opticaldielectric 1.43
$end

--------------------------------------------------------------

             Standard Nuclear Orientation (Angstroms)
    I     Atom           X                Y                Z
 ----------------------------------------------------------------
    1      C      -3.1512208727     0.6160490509     1.2614709816
    2      C      -2.6889859257    -0.1546879854    -0.0001906421
    3      C      -3.1518957389     0.6172191126    -1.2608885827
    4      C      -3.4016765443    -1.5213380717    -0.0007265135
    5      C      -1.1485077179    -0.2664037904    -0.0003615380
    6      C      -0.5168154891    -1.5124864294     0.0005824084
    7      C       0.8975492817    -1.7509728658     0.0008753433
    8      O       1.4134267903    -2.9327941006     0.0006754715
    9      C       1.6353842098    -0.5266775066     0.0004462240
   10      C       1.0248604946     0.7415855913    -0.0004373683
   11      Cl      2.0392217318     2.2189719973     0.0007986920
   12      C      -0.3864662429     0.9659503140    -0.0005999138
   13      O      -0.9225873355     2.1479498878    -0.0003156678
   14      Cl      3.4219729226    -0.6753896963    -0.0010580671
   15      H      -2.6420122508     1.5820819047     1.2898284927
   16      H      -4.2425747777     0.7691790234     1.2514139924
   17      H      -2.8936493214     0.0486913131     2.1635944946
   18      H      -2.6428695239     1.5833704058    -1.2883700205
   19      H      -4.2432479554     0.7699976541    -1.2499996790
   20      H      -2.8946799693     0.0507845672    -2.1636886559
   21      H      -4.4893982413    -1.3645719385    -0.0007830496
   22      H      -3.1438982917    -2.1131672212     0.8831688213
   23      H      -3.1436691769    -2.1124460745    -0.8850656534
   24      H      -1.1043779824    -2.4254895658     0.0004098109
 ----------------------------------------------------------------

   11   -1458.1058744585      4.66e-06  Convergence criterion met
 Total energy in the final basis set =    -1458.1058744585
    5   -1458.3850173390      7.40e-06  Convergence criterion met
 Total energy in the final basis set =    -1458.3850173390

                    Orbital Energies (a.u.)
 --------------------------------------------------------------

 Alpha MOs
 -- Occupied --
********-101.5306 -19.0296 -19.0223 -10.1942 -10.1933 -10.1875 -10.1860
-10.1662 -10.1436 -10.1401 -10.1330 -10.1330 -10.1303  -9.4456  -9.4450
 -7.2095  -7.2091  -7.2010  -7.2005  -7.2004  -7.1995  -0.9475  -0.9401
 -0.8551  -0.8163  -0.8058  -0.7633  -0.6836  -0.6679  -0.6616  -0.6542
 -0.5734  -0.5449  -0.5048  -0.4619  -0.4474  -0.4283  -0.4177  -0.4113
 -0.4052  -0.3933  -0.3745  -0.3712  -0.3709  -0.3549  -0.3480  -0.3415
 -0.3357  -0.3198  -0.3182  -0.3092  -0.3049  -0.3009  -0.2979  -0.2812
 -0.2340  -0.2122  -0.2119  -0.2014  -0.1320

          Ground-State Mulliken Net Atomic Charges

     Atom                 Charge (a.u.)
  ----------------------------------------
      1 C                    -0.703182
      2 C                     0.545762
      3 C                    -0.702101
      4 C                    -0.523455
      5 C                     0.399051
      6 C                    -0.498683
      7 C                    -0.801286
      8 O                    -0.707408
      9 C                     0.622285
     10 C                     0.053462
     11 Cl                    0.273692
     12 C                    -1.085737
     13 O                    -0.629118
     14 Cl                    0.247302
     15 H                     0.182588
     16 H                     0.141642
     17 H                     0.126741
     18 H                     0.182476
     19 H                     0.141663
     20 H                     0.126812
     21 H                     0.170633
     22 H                     0.132327
     23 H                     0.132274
     24 H                     0.172258
  ----------------------------------------
  Sum of atomic charges =    -2.000000

                    Cartesian Multipole Moments
 -----------------------------------------------------------------
    Charge (ESU x 10^10)
                -9.6064
    Dipole Moment (Debye)
         X      -7.3569      Y       2.0847      Z      -0.0031
       Tot       7.6466
    Quadrupole Moments (Debye-Ang)
        XX    -135.9639     XY      20.8758     YY    -162.8898
        XZ      -0.0036     YZ       0.0102     ZZ    -107.8273

 Total job time:  46.52s(wall), 352.94s(cpu)
        *  Thank you very much for using Q-Chem.  Have a nice day.  *
