 Q-Chem 5.4, Q-Chem, Inc., Pleasanton, CA (2021)
 Q-Chem 5.4.0 for Intel X86 EM64T Linux

User input:
--------------------------------------------------------------
$molecule
0 1
O                  1.1984250000      1.6506640000      1.8466600000
C                  0.6527820000      0.8434890000      1.0932530000
C                 -0.7718190000      0.6431170000      1.1150990000
C                 -1.4634180000     -0.0868610000      0.1774250000
N                 -2.8158060000     -0.2180710000      0.2024960000
C                 -3.5458720000      0.2452270000      1.3928510000
C                 -4.9564810000     -0.3402140000      1.4339040000
C                 -5.7974530000      0.0997570000      0.2200020000
C                 -4.9000550000      0.2865320000     -1.0212480000
C                 -3.6457120000     -0.5901700000     -0.9672230000
C                 -0.6528090000     -0.8461980000     -0.8669150000
O                 -1.1983680000     -1.6540920000     -1.6195960000
C                  0.7717150000     -0.6454710000     -0.8890390000
C                  1.4632890000      0.0847840000      0.0484710000
N                  2.8156240000      0.2164820000      0.0229330000
C                  3.5454180000     -0.2457280000     -1.1680130000
C                  4.9550070000      0.3421240000     -1.2102870000
C                  5.7978170000     -0.0964190000      0.0028330000
C                  4.9017030000     -0.2855690000      1.2446330000
C                  3.6458100000      0.5890100000      1.1923160000
H                 -1.2775760000      1.2232710000      1.8738560000
H                 -3.5882790000      1.3445300000      1.4152320000
H                 -2.9839990000     -0.0693310000      2.2758050000
H                 -5.4337800000     -0.0391170000      2.3701430000
H                 -4.8767600000     -1.4313650000      1.4630650000
H                 -6.5706640000     -0.6486290000      0.0239110000
H                 -6.3203710000      1.0350250000      0.4410040000
H                 -5.4487420000      0.0504280000     -1.9371050000
H                 -4.5874940000      1.3323490000     -1.1085190000
H                 -3.0559030000     -0.4689700000     -1.8686950000
H                 -3.9133520000     -1.6509200000     -0.9140590000
H                  1.2775900000     -1.2257490000     -1.6476310000
H                  3.5895970000     -1.3449540000     -1.1904250000
H                  2.9822760000      0.0679250000     -2.0504670000
H                  5.4319720000      0.0419240000     -2.1469860000
H                  4.8733120000      1.4331370000     -1.2393070000
H                  6.5695330000      0.6535770000      0.1986600000
H                  6.3226040000     -1.0304860000     -0.2188130000
H                  5.4507180000     -0.0491580000      2.1602100000
H                  4.5910490000     -1.3319970000      1.3314220000
H                  3.0569580000      0.4658350000      2.0941660000
H                  3.9115100000      1.6502860000      1.1399980000
$end

$rem
BASIS  =  6-311++G(d,p)
GUI  =  2
JOB_TYPE  =  SP
METHOD  =  B3LYP
SCF_CONVERGENCE  = 8
SOLVENT_METHOD = sm12
$end

$smx
solvent dimethylformamide
charges CM5
$end

--------------------------------------------------------------

             Standard Nuclear Orientation (Angstroms)
    I     Atom           X                Y                Z
 ----------------------------------------------------------------
    1      O       1.1984250000     1.6506640000     1.8466600000
    2      C       0.6527820000     0.8434890000     1.0932530000
    3      C      -0.7718190000     0.6431170000     1.1150990000
    4      C      -1.4634180000    -0.0868610000     0.1774250000
    5      N      -2.8158060000    -0.2180710000     0.2024960000
    6      C      -3.5458720000     0.2452270000     1.3928510000
    7      C      -4.9564810000    -0.3402140000     1.4339040000
    8      C      -5.7974530000     0.0997570000     0.2200020000
    9      C      -4.9000550000     0.2865320000    -1.0212480000
   10      C      -3.6457120000    -0.5901700000    -0.9672230000
   11      C      -0.6528090000    -0.8461980000    -0.8669150000
   12      O      -1.1983680000    -1.6540920000    -1.6195960000
   13      C       0.7717150000    -0.6454710000    -0.8890390000
   14      C       1.4632890000     0.0847840000     0.0484710000
   15      N       2.8156240000     0.2164820000     0.0229330000
   16      C       3.5454180000    -0.2457280000    -1.1680130000
   17      C       4.9550070000     0.3421240000    -1.2102870000
   18      C       5.7978170000    -0.0964190000     0.0028330000
   19      C       4.9017030000    -0.2855690000     1.2446330000
   20      C       3.6458100000     0.5890100000     1.1923160000
   21      H      -1.2775760000     1.2232710000     1.8738560000
   22      H      -3.5882790000     1.3445300000     1.4152320000
   23      H      -2.9839990000    -0.0693310000     2.2758050000
   24      H      -5.4337800000    -0.0391170000     2.3701430000
   25      H      -4.8767600000    -1.4313650000     1.4630650000
   26      H      -6.5706640000    -0.6486290000     0.0239110000
   27      H      -6.3203710000     1.0350250000     0.4410040000
   28      H      -5.4487420000     0.0504280000    -1.9371050000
   29      H      -4.5874940000     1.3323490000    -1.1085190000
   30      H      -3.0559030000    -0.4689700000    -1.8686950000
   31      H      -3.9133520000    -1.6509200000    -0.9140590000
   32      H       1.2775900000    -1.2257490000    -1.6476310000
   33      H       3.5895970000    -1.3449540000    -1.1904250000
   34      H       2.9822760000     0.0679250000    -2.0504670000
   35      H       5.4319720000     0.0419240000    -2.1469860000
   36      H       4.8733120000     1.4331370000    -1.2393070000
   37      H       6.5695330000     0.6535770000     0.1986600000
   38      H       6.3226040000    -1.0304860000    -0.2188130000
   39      H       5.4507180000    -0.0491580000     2.1602100000
   40      H       4.5910490000    -1.3319970000     1.3314220000
   41      H       3.0569580000     0.4658350000     2.0941660000
   42      H       3.9115100000     1.6502860000     1.1399980000
 ----------------------------------------------------------------

   15    -883.1135312342      7.72e-09  Convergence criterion met
 Total energy in the final basis set =     -883.1397086217

                    Orbital Energies (a.u.)
 --------------------------------------------------------------

 Alpha MOs
 -- Occupied --
-19.1034 -19.1034 -14.3586 -14.3586 -10.2612 -10.2612 -10.2385 -10.2385
-10.2080 -10.2080 -10.2042 -10.2042 -10.1708 -10.1708 -10.1696 -10.1696
-10.1661 -10.1661 -10.1654 -10.1653  -1.0402  -1.0377  -0.9672  -0.9670
 -0.8391  -0.8169  -0.7922  -0.7679  -0.7664  -0.7460  -0.7015  -0.6823
 -0.6547  -0.6475  -0.6343  -0.6009  -0.5839  -0.5510  -0.5419  -0.5307
 -0.5198  -0.5187  -0.5043  -0.4991  -0.4564  -0.4549  -0.4478  -0.4477
 -0.4403  -0.4279  -0.4264  -0.4250  -0.4244  -0.4147  -0.4115  -0.4094
 -0.3968  -0.3876  -0.3841  -0.3812  -0.3742  -0.3726  -0.3472  -0.3441
 -0.3324  -0.3323  -0.3233  -0.3226  -0.3088  -0.3066  -0.2604  -0.2562
 -0.2284  -0.2121

          Ground-State Mulliken Net Atomic Charges

     Atom                 Charge (a.u.)
  ----------------------------------------
      1 O                    -0.325591
      2 C                    -0.585244
      3 C                    -0.321749
      4 C                    -0.373060
      5 N                     0.268244
      6 C                     0.022987
      7 C                     0.030245
      8 C                    -0.353637
      9 C                     0.003449
     10 C                    -0.464301
     11 C                    -0.585089
     12 O                    -0.325675
     13 C                    -0.320752
     14 C                    -0.370649
     15 N                     0.268101
     16 C                     0.022517
     17 C                     0.029988
     18 C                    -0.353865
     19 C                     0.003559
     20 C                    -0.463750
     21 H                     0.240676
     22 H                     0.196275
     23 H                     0.237281
     24 H                     0.260231
     25 H                     0.153080
     26 H                     0.162273
     27 H                     0.180460
     28 H                     0.227106
     29 H                     0.157439
     30 H                     0.127024
     31 H                     0.155182
     32 H                     0.240716
     33 H                     0.196357
     34 H                     0.237322
     35 H                     0.260185
     36 H                     0.153000
     37 H                     0.162272
     38 H                     0.180522
     39 H                     0.227100
     40 H                     0.157520
     41 H                     0.127117
     42 H                     0.155133
  ----------------------------------------
  Sum of atomic charges =     0.000000

                    Cartesian Multipole Moments
 -----------------------------------------------------------------
    Charge (ESU x 10^10)
                 0.0000
    Dipole Moment (Debye)
         X       0.0003      Y       0.0049      Z      -0.0036
       Tot       0.0061
    Quadrupole Moments (Debye-Ang)
        XX     -78.8861     XY      -5.9827     YY    -131.0485
        XZ      -8.9233     YZ      -8.3757     ZZ    -125.0191

 Total job time:  1588.34s(wall), 12395.25s(cpu)
        *  Thank you very much for using Q-Chem.  Have a nice day.  *
