 Q-Chem 5.4, Q-Chem, Inc., Pleasanton, CA (2021)
 Q-Chem 5.4.0 for Intel X86 EM64T Linux

User input:
--------------------------------------------------------------
$molecule
0 1
C                 -0.5683610000      2.0739230000      0.0080590000
C                 -1.8542590000      1.2919820000     -0.0315560000
C                 -1.8005780000     -0.0601500000      0.0226300000
C                 -0.4666830000     -0.7411080000      0.1000500000
C                  0.8154180000      0.0350680000      0.0463340000
C                  0.7716180000      1.3877200000     -0.0046060000
O                 -0.6134890000      3.2963370000      0.0525580000
O                 -0.4232310000     -1.9605590000      0.1997850000
C                  1.9613860000      2.3452600000     -0.0621560000
C                  2.8413010000      2.3206210000      1.2038830000
C                  2.7816890000      2.2283650000     -1.3628840000
C                  2.1064770000     -0.7746580000      0.0602670000
C                  2.3150970000     -1.5486890000      1.3792100000
C                  2.2467600000     -1.6980760000     -1.1681820000
C                 -3.1091080000      2.1602490000     -0.1162500000
C                 -4.0067460000      2.0785780000      1.1349170000
C                 -3.8961180000      1.9769880000     -1.4297880000
C                 -3.0295690000     -0.9613680000      0.0167230000
C                 -3.0833570000     -1.8922550000     -1.2128820000
C                 -3.2023270000     -1.7486980000      1.3330350000
H                  1.5097210000      3.3369510000     -0.0847940000
H                  3.5640680000      3.1408410000      1.1604600000
H                  3.4035540000      1.3923530000      1.3228060000
H                  2.2343660000      2.4622990000      2.1019300000
H                  3.3361780000      1.2911920000     -1.4427770000
H                  3.5071980000      3.0459070000     -1.4101670000
H                  2.1347750000      2.3096750000     -2.2404530000
H                  2.9197760000     -0.0560340000     -0.0041280000
H                  2.2369440000     -0.8841770000      2.2442900000
H                  3.3166680000     -1.9894550000      1.3876210000
H                  1.5861620000     -2.3501230000      1.4919780000
H                  1.5173280000     -2.5069220000     -1.1469390000
H                  3.2482900000     -2.1386330000     -1.1796640000
H                  2.1188990000     -1.1394570000     -2.0998340000
H                 -2.7302300000      3.1819920000     -0.1377030000
H                 -4.7875770000      2.8424500000      1.0730030000
H                 -3.4276530000      2.2707590000      2.0419120000
H                 -4.5003600000      1.1117280000      1.2514090000
H                 -4.6765760000      2.7408700000     -1.4956840000
H                 -4.3816960000      1.0025470000     -1.5118630000
H                 -3.2413460000      2.0980900000     -2.2968840000
H                 -3.8917940000     -0.3036530000     -0.0606230000
H                 -4.0495220000     -2.4052290000     -1.2389270000
H                 -2.2968860000     -2.6453670000     -1.1800320000
H                 -2.9830020000     -1.3254690000     -2.1429720000
H                 -4.1697960000     -2.2600170000      1.3264440000
H                 -3.1853230000     -1.0804520000      2.1986130000
H                 -2.4197460000     -2.4959080000      1.4578320000
$end
$rem
MAX_SCF_CYCLES=200
BASIS  =  6-311++G(d,p)
GUI  =  2
JOB_TYPE  =  SP
METHOD  =  B3LYP
SOLVENT_METHOD = PCM
$end
$pcm
theory = CPCM
$end
$solvent
dielectric 37.219
opticaldielectric 1.43
$end

--------------------------------------------------------------

             Standard Nuclear Orientation (Angstroms)
    I     Atom           X                Y                Z
 ----------------------------------------------------------------
    1      C      -0.5683610000     2.0739230000     0.0080590000
    2      C      -1.8542590000     1.2919820000    -0.0315560000
    3      C      -1.8005780000    -0.0601500000     0.0226300000
    4      C      -0.4666830000    -0.7411080000     0.1000500000
    5      C       0.8154180000     0.0350680000     0.0463340000
    6      C       0.7716180000     1.3877200000    -0.0046060000
    7      O      -0.6134890000     3.2963370000     0.0525580000
    8      O      -0.4232310000    -1.9605590000     0.1997850000
    9      C       1.9613860000     2.3452600000    -0.0621560000
   10      C       2.8413010000     2.3206210000     1.2038830000
   11      C       2.7816890000     2.2283650000    -1.3628840000
   12      C       2.1064770000    -0.7746580000     0.0602670000
   13      C       2.3150970000    -1.5486890000     1.3792100000
   14      C       2.2467600000    -1.6980760000    -1.1681820000
   15      C      -3.1091080000     2.1602490000    -0.1162500000
   16      C      -4.0067460000     2.0785780000     1.1349170000
   17      C      -3.8961180000     1.9769880000    -1.4297880000
   18      C      -3.0295690000    -0.9613680000     0.0167230000
   19      C      -3.0833570000    -1.8922550000    -1.2128820000
   20      C      -3.2023270000    -1.7486980000     1.3330350000
   21      H       1.5097210000     3.3369510000    -0.0847940000
   22      H       3.5640680000     3.1408410000     1.1604600000
   23      H       3.4035540000     1.3923530000     1.3228060000
   24      H       2.2343660000     2.4622990000     2.1019300000
   25      H       3.3361780000     1.2911920000    -1.4427770000
   26      H       3.5071980000     3.0459070000    -1.4101670000
   27      H       2.1347750000     2.3096750000    -2.2404530000
   28      H       2.9197760000    -0.0560340000    -0.0041280000
   29      H       2.2369440000    -0.8841770000     2.2442900000
   30      H       3.3166680000    -1.9894550000     1.3876210000
   31      H       1.5861620000    -2.3501230000     1.4919780000
   32      H       1.5173280000    -2.5069220000    -1.1469390000
   33      H       3.2482900000    -2.1386330000    -1.1796640000
   34      H       2.1188990000    -1.1394570000    -2.0998340000
   35      H      -2.7302300000     3.1819920000    -0.1377030000
   36      H      -4.7875770000     2.8424500000     1.0730030000
   37      H      -3.4276530000     2.2707590000     2.0419120000
   38      H      -4.5003600000     1.1117280000     1.2514090000
   39      H      -4.6765760000     2.7408700000    -1.4956840000
   40      H      -4.3816960000     1.0025470000    -1.5118630000
   41      H      -3.2413460000     2.0980900000    -2.2968840000
   42      H      -3.8917940000    -0.3036530000    -0.0606230000
   43      H      -4.0495220000    -2.4052290000    -1.2389270000
   44      H      -2.2968860000    -2.6453670000    -1.1800320000
   45      H      -2.9830020000    -1.3254690000    -2.1429720000
   46      H      -4.1697960000    -2.2600170000     1.3264440000
   47      H      -3.1853230000    -1.0804520000     2.1986130000
   48      H      -2.4197460000    -2.4959080000     1.4578320000
 ----------------------------------------------------------------

    9    -853.4596198646      3.68e-06  Convergence criterion met
 Total energy in the final basis set =     -853.4596198646

                    Orbital Energies (a.u.)
 --------------------------------------------------------------

 Alpha MOs
 -- Occupied --
-19.1317 -19.1263 -10.2766 -10.2740 -10.2033 -10.2033 -10.2025 -10.2024
-10.1822 -10.1822 -10.1800 -10.1800 -10.1584 -10.1584 -10.1583 -10.1582
-10.1550 -10.1550 -10.1548 -10.1548  -1.0656  -1.0611  -0.8621  -0.8382
 -0.7951  -0.7927  -0.7761  -0.7351  -0.6870  -0.6868  -0.6858  -0.6817
 -0.6814  -0.6488  -0.6202  -0.5879  -0.5761  -0.5595  -0.5535  -0.5154
 -0.4838  -0.4795  -0.4568  -0.4547  -0.4521  -0.4398  -0.4389  -0.4341
 -0.4305  -0.4245  -0.4236  -0.4221  -0.4170  -0.4096  -0.4080  -0.3975
 -0.3853  -0.3831  -0.3811  -0.3718  -0.3599  -0.3560  -0.3524  -0.3505
 -0.3494  -0.3474  -0.3426  -0.3411  -0.3399  -0.3395  -0.3202  -0.3200
 -0.2859  -0.2787  -0.2630  -0.2536

          Ground-State Mulliken Net Atomic Charges

     Atom                 Charge (a.u.)
  ----------------------------------------
      1 C                    -1.286708
      2 C                     0.627552
      3 C                     0.362366
      4 C                    -0.605249
      5 C                     0.365988
      6 C                     0.632231
      7 O                    -0.223174
      8 O                    -0.206786
      9 C                     0.176914
     10 C                    -0.753664
     11 C                    -0.758589
     12 C                     0.687504
     13 C                    -0.777582
     14 C                    -0.787125
     15 C                     0.177031
     16 C                    -0.752583
     17 C                    -0.760130
     18 C                     0.692925
     19 C                    -0.788723
     20 C                    -0.777918
     21 H                     0.215434
     22 H                     0.168820
     23 H                     0.161026
     24 H                     0.171069
     25 H                     0.161484
     26 H                     0.168503
     27 H                     0.165064
     28 H                     0.175037
     29 H                     0.145527
     30 H                     0.175438
     31 H                     0.174425
     32 H                     0.173295
     33 H                     0.175866
     34 H                     0.146592
     35 H                     0.215536
     36 H                     0.169011
     37 H                     0.171324
     38 H                     0.160813
     39 H                     0.168527
     40 H                     0.161008
     41 H                     0.165044
     42 H                     0.175665
     43 H                     0.175982
     44 H                     0.172916
     45 H                     0.146825
     46 H                     0.175598
     47 H                     0.145644
     48 H                     0.174251
  ----------------------------------------
  Sum of atomic charges =     0.000000

                    Cartesian Multipole Moments
 -----------------------------------------------------------------
    Charge (ESU x 10^10)
                 0.0000
    Dipole Moment (Debye)
         X      -0.0005      Y       0.1514      Z      -0.4656
       Tot       0.4896
    Quadrupole Moments (Debye-Ang)
        XX    -111.3596     XY       1.0556     YY    -142.2274
        XZ       0.3697     YZ      -0.0706     ZZ    -126.0720

 Total job time:  135.17s(wall), 894.90s(cpu)
        *  Thank you very much for using Q-Chem.  Have a nice day.  *
