 Q-Chem 5.4, Q-Chem, Inc., Pleasanton, CA (2021)
 Q-Chem 5.4.0 for Intel X86 EM64T Linux

User input:
--------------------------------------------------------------
$molecule
-1 2
Cl                 3.1035050000     -0.1642730000      0.0315950000
C                  1.3296980000     -0.0670540000      0.0135600000
C                  0.7337260000      1.1633320000      0.0115730000
C                 -0.7083690000      1.3150440000     -0.0028640000
O                 -1.2638440000      2.4495210000     -0.0047560000
C                 -1.4566820000      0.0743210000     -0.0148500000
C                 -0.8430100000     -1.1476340000     -0.0126450000
C                  0.5978160000     -1.3260750000      0.0016850000
O                  1.1417250000     -2.4589500000      0.0034680000
H                  1.3274710000      2.0701250000      0.0208150000
H                 -2.5399580000      0.1583170000     -0.0258010000
H                 -1.4220790000     -2.0666720000     -0.0217810000
$end
$rem
MAX_SCF_CYCLES=200
BASIS  =  6-311++G(d,p)
GUI  =  2
JOB_TYPE  =  SP
METHOD  =  B3LYP
SOLVENT_METHOD = PCM
$end
$pcm
theory = CPCM
$end
$solvent
dielectric 37.219
opticaldielectric 1.43
$end

--------------------------------------------------------------

             Standard Nuclear Orientation (Angstroms)
    I     Atom           X                Y                Z
 ----------------------------------------------------------------
    1      Cl      3.1035050000    -0.1642730000     0.0315950000
    2      C       1.3296980000    -0.0670540000     0.0135600000
    3      C       0.7337260000     1.1633320000     0.0115730000
    4      C      -0.7083690000     1.3150440000    -0.0028640000
    5      O      -1.2638440000     2.4495210000    -0.0047560000
    6      C      -1.4566820000     0.0743210000    -0.0148500000
    7      C      -0.8430100000    -1.1476340000    -0.0126450000
    8      C       0.5978160000    -1.3260750000     0.0016850000
    9      O       1.1417250000    -2.4589500000     0.0034680000
   10      H       1.3274710000     2.0701250000     0.0208150000
   11      H      -2.5399580000     0.1583170000    -0.0258010000
   12      H      -1.4220790000    -2.0666720000    -0.0217810000
 ----------------------------------------------------------------

    9    -841.3541820933      7.38e-06  Convergence criterion met
 Total energy in the final basis set =     -841.3541820933

                    Orbital Energies (a.u.)
 --------------------------------------------------------------

 Alpha MOs
 -- Occupied --
******** -19.0894 -19.0873 -10.2360 -10.2310 -10.2294 -10.1760 -10.1728
-10.1704  -9.4652  -7.2293  -7.2206  -7.2199  -1.0144  -1.0077  -0.8718
 -0.8166  -0.7398  -0.6908  -0.6072  -0.5728  -0.4886  -0.4801  -0.4533
 -0.4250  -0.4249  -0.4166  -0.3922  -0.3874  -0.3713  -0.3484  -0.3151
 -0.2890  -0.2588  -0.2561  -0.2505  -0.1734

 Beta MOs
 -- Occupied --
******** -19.0825 -19.0803 -10.2345 -10.2297 -10.2281 -10.1748 -10.1720
-10.1693  -9.4652  -7.2293  -7.2204  -7.2199  -1.0024  -0.9952  -0.8690
 -0.8119  -0.7370  -0.6801  -0.6028  -0.5685  -0.4863  -0.4755  -0.4497
 -0.4240  -0.4102  -0.4072  -0.3878  -0.3690  -0.3599  -0.3385  -0.3146
 -0.2585  -0.2502  -0.2496  -0.2441

          Ground-State Mulliken Net Atomic Charges

     Atom                 Charge (a.u.)    Spin (a.u.)
  --------------------------------------------------------
      1 Cl                    0.163632       0.004581
      2 C                     1.073453       0.084712
      3 C                    -0.455033       0.069979
      4 C                    -0.555933       0.119896
      5 O                    -0.513812       0.246084
      6 C                     0.038533       0.080995
      7 C                    -0.061110       0.074012
      8 C                    -0.851031       0.094185
      9 O                    -0.471397       0.244730
     10 H                     0.210802      -0.007151
     11 H                     0.209372      -0.006327
     12 H                     0.212523      -0.005695
  --------------------------------------------------------
  Sum of atomic charges =    -1.000000

                    Cartesian Multipole Moments
 -----------------------------------------------------------------
    Charge (ESU x 10^10)
                -4.8032
    Dipole Moment (Debye)
         X      -2.3546      Y       0.0648      Z      -0.0242
       Tot       2.3556
    Quadrupole Moments (Debye-Ang)
        XX     -73.9548     XY      18.5684     YY     -92.4489
        XZ      -0.0571     YZ       0.0895     ZZ     -62.2987

 Total job time:  13.32s(wall), 63.37s(cpu)
        *  Thank you very much for using Q-Chem.  Have a nice day.  *
