 Gaussian 16, Revision A.03,
 Gaussian 16:  ES64L-G16RevA.03 25-Dec-2016

 --------------------------------------
 #P UB3LYP/6-311++G(d,p) nosym opt freq
 --------------------------------------

 -------
 Reduced
 -------
 Symbolic Z-matrix:
 Charge = -2 Multiplicity = 1

 SCF Done:  E(UB3LYP) =  -845.376587283     A.U. after   41 cycles
 Optimization completed.
    -- Stationary point found.
 Normal termination of Gaussian 16 at Wed Jan 10 05:10:01 2024.

 ----------------------------------------------------------------------
 #P Geom=AllCheck Guess=TCheck SCRF=Check GenChk UB3LYP/6-311++G(d,p) F
 req
 ----------------------------------------------------------------------

 Structure from the checkpoint file:  "091-an.chk"
 -------
 Reduced
 -------
 Charge = -2 Multiplicity = 1

                          Input orientation:
 ---------------------------------------------------------------------
 Center     Atomic      Atomic             Coordinates (Angstroms)
 Number     Number       Type             X           Y           Z
 ---------------------------------------------------------------------
      1          6           0       -1.055128    2.613691    0.623749
      2          6           0        0.267092    2.730341    0.059065
      3          6           0        0.925350    1.654803   -0.551125
      4          6           0        0.334014    0.343062   -0.639898
      5          6           0       -0.981502    0.228624   -0.061114
      6          6           0       -1.641792    1.302016    0.529114
      7          8           0       -1.683022    3.611734    1.151798
      8          8           0        0.929640   -0.670125   -1.180139
      9          8           0       -2.949107    1.104898    0.977179
     10          8           0       -1.602987   -1.020748   -0.023820
     11          6           0       -3.122615    1.316092    2.368686
     12          6           0       -1.885208   -1.566207   -1.301450
     13          6           0        2.312018    1.806349   -1.132966
     14          6           0        0.877960    4.121702    0.106248
     15          6           0        1.719491    4.375408    1.333647
     16          6           0        2.946702    4.910675    1.433656
     17          6           0        3.784956    5.374355    0.266518
     18          6           0        3.627770    5.075243    2.774112
     19          1           0       -2.804573    2.325892    2.644976
     20          1           0       -2.558243    0.569586    2.950436
     21          1           0       -4.192277    1.188156    2.575743
     22          1           0       -2.304176   -2.565797   -1.131904
     23          1           0       -0.969371   -1.637676   -1.896191
     24          1           0       -2.634725   -0.954783   -1.830130
     25          1           0        3.012721    2.269201   -0.425266
     26          1           0        2.320505    2.429979   -2.040264
     27          1           0        2.680112    0.814702   -1.406330
     28          1           0        0.031621    4.821213    0.147567
     29          1           0        1.448669    4.328677   -0.804787
     30          1           0        1.225321    4.079828    2.257759
     31          1           0        3.292093    5.220763   -0.693931
     32          1           0        4.748152    4.842904    0.242419
     33          1           0        4.028716    6.442427    0.356909
     34          1           0        2.991634    4.739038    3.597390
     35          1           0        3.902874    6.122873    2.963293
     36          1           0        4.569032    4.505052    2.818715
 ---------------------------------------------------------------------

 SCF Done:  E(UB3LYP) =  -845.376587283     A.U. after    4 cycles

 Alpha  occ. eigenvalues --  -18.89247 -18.89241 -18.79200 -18.78925  -9.98572
 Alpha  occ. eigenvalues --   -9.98530  -9.97160  -9.97095  -9.96669  -9.95195
 Alpha  occ. eigenvalues --   -9.95121  -9.95075  -9.94692  -9.94528  -9.93437
 Alpha  occ. eigenvalues --   -9.92034  -9.90631  -9.90524  -0.81143  -0.79436
 Alpha  occ. eigenvalues --   -0.70393  -0.69946  -0.60866  -0.56722  -0.53000
 Alpha  occ. eigenvalues --   -0.50449  -0.49851  -0.47028  -0.46203  -0.44134
 Alpha  occ. eigenvalues --   -0.39385  -0.39170  -0.31995  -0.31091  -0.30182
 Alpha  occ. eigenvalues --   -0.26670  -0.25885  -0.24349  -0.23990  -0.23694
 Alpha  occ. eigenvalues --   -0.23055  -0.22607  -0.21592  -0.20896  -0.19560
 Alpha  occ. eigenvalues --   -0.19374  -0.18030  -0.17415  -0.16783  -0.16506
 Alpha  occ. eigenvalues --   -0.15179  -0.14116  -0.13301  -0.12616  -0.12274
 Alpha  occ. eigenvalues --   -0.11291  -0.11064  -0.09518  -0.08894  -0.07882
 Alpha  occ. eigenvalues --   -0.03992  -0.03830  -0.02677   0.01250   0.03341
 Alpha  occ. eigenvalues --    0.03416   0.03739   0.11999
 Alpha virt. eigenvalues --    0.13485   0.15247   0.15980   0.16430   0.16596
 Alpha virt. eigenvalues --    0.18067   0.18747   0.19143   0.19441   0.19775
 Alpha virt. eigenvalues --    0.20251   0.20460   0.21263   0.22267   0.22557

  Beta  occ. eigenvalues --  -18.89247 -18.89241 -18.79200 -18.78925  -9.98572
  Beta  occ. eigenvalues --   -9.98530  -9.97160  -9.97095  -9.96669  -9.95195
  Beta  occ. eigenvalues --   -9.95121  -9.95075  -9.94692  -9.94528  -9.93437
  Beta  occ. eigenvalues --   -9.92034  -9.90631  -9.90524  -0.81143  -0.79436
  Beta  occ. eigenvalues --   -0.70393  -0.69946  -0.60866  -0.56722  -0.53000
  Beta  occ. eigenvalues --   -0.50449  -0.49851  -0.47028  -0.46203  -0.44134
  Beta  occ. eigenvalues --   -0.39385  -0.39170  -0.31995  -0.31091  -0.30182
  Beta  occ. eigenvalues --   -0.26670  -0.25885  -0.24349  -0.23990  -0.23694
  Beta  occ. eigenvalues --   -0.23055  -0.22607  -0.21592  -0.20896  -0.19560
  Beta  occ. eigenvalues --   -0.19374  -0.18030  -0.17415  -0.16783  -0.16506
  Beta  occ. eigenvalues --   -0.15179  -0.14116  -0.13301  -0.12616  -0.12274
  Beta  occ. eigenvalues --   -0.11291  -0.11064  -0.09518  -0.08894  -0.07882
  Beta  occ. eigenvalues --   -0.03992  -0.03830  -0.02677   0.01250   0.03341
  Beta  occ. eigenvalues --    0.03416   0.03739   0.11999
  Beta virt. eigenvalues --    0.13485   0.15247   0.15980   0.16430   0.16596
  Beta virt. eigenvalues --    0.18067   0.18747   0.19143   0.19441   0.19775
  Beta virt. eigenvalues --    0.20251   0.20460   0.21263   0.22267   0.22557

 Mulliken charges and spin densities:
               1          2
     1  C   -0.649589  -0.000000
     2  C    1.020875   0.000000
     3  C    0.809122   0.000000
     4  C   -0.917539  -0.000000
     5  C   -0.201690   0.000000
     6  C   -0.147423   0.000000
     7  O   -0.494370  -0.000000
     8  O   -0.521182  -0.000000
     9  O   -0.155569  -0.000000
    10  O   -0.157198  -0.000000
    11  C   -0.167246  -0.000000
    12  C   -0.227364   0.000000
    13  C   -0.730487  -0.000000
    14  C    0.003738  -0.000000
    15  C    0.255679  -0.000000
    16  C   -1.088382   0.000000
    17  C   -0.130378  -0.000000
    18  C    0.914696   0.000000
    19  H    0.167889   0.000000
    20  H    0.049880  -0.000000
    21  H    0.039685   0.000000
    22  H    0.033091  -0.000000
    23  H    0.193587  -0.000000
    24  H    0.064586  -0.000000
    25  H    0.203834  -0.000000
    26  H    0.092558  -0.000000
    27  H    0.161240   0.000000
    28  H    0.121810   0.000000
    29  H    0.211066  -0.000000
    30  H    0.347742  -0.000000
    31  H   -0.051150   0.000000
    32  H   -0.097916   0.000000
    33  H   -0.144385   0.000000
    34  H   -0.228493   0.000000
    35  H   -0.334609   0.000000
    36  H   -0.246110   0.000000
 Sum of Mulliken charges =  -2.00000  -0.00000

 Dipole moment (field-independent basis, Debye):
    X=             -4.7457    Y=            -21.2566    Z=             -5.0838  Tot=             22.3653
 Quadrupole moment (field-independent basis, Debye-Ang):
   XX=           -199.4068   YY=           -247.0358   ZZ=           -147.7445
   XY=            -40.6594   XZ=            -10.5181   YZ=            -40.0952

  Exact polarizability:1298.668 685.8211311.667 211.940 162.5831138.202
 Approx polarizability:4504.2503465.2383769.5971767.3971629.8351614.976

                      1                      2                      3
                      A                      A                      A
 Frequencies --     21.8733                38.5528                50.4848
 Red. masses --      3.6080                 3.8099                 2.9405
 Frc consts  --      0.0010                 0.0033                 0.0044
 IR Inten    --      0.9254                 0.3850                 2.0726

                      4                      5                      6
                      A                      A                      A
 Frequencies --     85.5662                86.9427                97.4068
 Red. masses --      3.6320                 3.1836                 2.6683
 Frc consts  --      0.0157                 0.0142                 0.0149
 IR Inten    --      0.6390                 4.4543                 4.8606

                      7                      8                      9
                      A                      A                      A
 Frequencies --    101.7568               103.5674               129.6204
 Red. masses --      3.3546                 1.1940                 1.3291
 Frc consts  --      0.0205                 0.0075                 0.0132
 IR Inten    --      2.3718                 0.7270                 6.0542

                     10                     11                     12
                      A                      A                      A
 Frequencies --    143.1446               172.5666               174.6842
 Red. masses --      1.9224                 1.1873                 1.1319
 Frc consts  --      0.0232                 0.0208                 0.0203
 IR Inten    --      8.4687                 0.3774                 1.5337

                     13                     14                     15
                      A                      A                      A
 Frequencies --    187.5123               188.3461               213.9938
 Red. masses --      1.4154                 3.3333                 3.2331
 Frc consts  --      0.0293                 0.0697                 0.0872
 IR Inten    --      9.4964                 7.5567                10.3388

                     16                     17                     18
                      A                      A                      A
 Frequencies --    250.5751               270.2726               282.9537
 Red. masses --      2.3615                 4.0205                 3.3924
 Frc consts  --      0.0874                 0.1730                 0.1600
 IR Inten    --      5.5285                25.0045                 3.8683

                     19                     20                     21
                      A                      A                      A
 Frequencies --    331.6589               333.0805               338.8182
 Red. masses --      2.6850                 3.4478                 3.9268
 Frc consts  --      0.1740                 0.2254                 0.2656
 IR Inten    --     10.5914                37.3644                10.0599

                     22                     23                     24
                      A                      A                      A
 Frequencies --    348.9993               380.9920               393.3515
 Red. masses --      5.7765                 4.4082                 4.6708
 Frc consts  --      0.4145                 0.3770                 0.4258
 IR Inten    --     13.4592                11.5564                30.3955

                     25                     26                     27
                      A                      A                      A
 Frequencies --    402.4098               413.9320               446.8307
 Red. masses --      5.3696                 4.6604                 2.9856
 Frc consts  --      0.5123                 0.4705                 0.3512
 IR Inten    --     11.9382                61.5367                59.8895

                     28                     29                     30
                      A                      A                      A
 Frequencies --    463.6691               507.4075               515.6720
 Red. masses --      5.6095                 3.6287                 4.5929
 Frc consts  --      0.7105                 0.5504                 0.7196
 IR Inten    --    389.6505                98.5194                95.6605

                     31                     32                     33
                      A                      A                      A
 Frequencies --    578.8793               627.2253               651.6516
 Red. masses --      5.8118                 4.8179                 6.0672
 Frc consts  --      1.1475                 1.1168                 1.5180
 IR Inten    --     86.8829                25.2571                12.3403

                     34                     35                     36
                      A                      A                      A
 Frequencies --    714.0943               734.8637               773.3484
 Red. masses --      3.1787                 8.1645                 6.5328
 Frc consts  --      0.9550                 2.5977                 2.3020
 IR Inten    --      0.6866                 1.8944                17.0924

                     37                     38                     39
                      A                      A                      A
 Frequencies --    795.5340               851.0713               900.5518
 Red. masses --      2.8978                 2.1027                 2.4371
 Frc consts  --      1.0805                 0.8974                 1.1645
 IR Inten    --      2.2006                11.1937                74.8171

                     40                     41                     42
                      A                      A                      A
 Frequencies --    926.3685               955.8016               958.3252
 Red. masses --      3.4502                 1.5616                 2.0658
 Frc consts  --      1.7445                 0.8405                 1.1178
 IR Inten    --     33.0615                17.6581                17.8127

                     43                     44                     45
                      A                      A                      A
 Frequencies --    986.9793              1015.8394              1020.9457
 Red. masses --      4.4188                 1.8466                 1.4012
 Frc consts  --      2.5361                 1.1227                 0.8605
 IR Inten    --     16.1274                12.1216                12.8012

                     46                     47                     48
                      A                      A                      A
 Frequencies --   1041.9476              1051.5331              1076.5525
 Red. masses --      1.4636                 6.4744                 2.4444
 Frc consts  --      0.9362                 4.2179                 1.6691
 IR Inten    --      5.6358                 3.2407                38.4652

                     49                     50                     51
                      A                      A                      A
 Frequencies --   1093.0009              1107.7693              1114.2468
 Red. masses --      1.6178                 8.6549                 2.1703
 Frc consts  --      1.1387                 6.2576                 1.5875
 IR Inten    --     14.3832               168.2252                68.3799

                     52                     53                     54
                      A                      A                      A
 Frequencies --   1149.7559              1160.6925              1161.9906
 Red. masses --      4.1219                 1.2904                 1.2757
 Frc consts  --      3.2104                 1.0243                 1.0148
 IR Inten    --    822.3697                53.2410                67.1056

                     55                     56                     57
                      A                      A                      A
 Frequencies --   1171.7426              1204.1190              1209.9711
 Red. masses --      2.3783                 3.1098                 1.4928
 Frc consts  --      1.9239                 2.6566                 1.2877
 IR Inten    --    217.5786                38.3381                 4.5332

                     58                     59                     60
                      A                      A                      A
 Frequencies --   1223.8374              1258.7460              1280.3571
 Red. masses --      1.8038                 1.7017                 2.5536
 Frc consts  --      1.5918                 1.5886                 2.4664
 IR Inten    --     94.7323                45.5008                 6.2354

                     61                     62                     63
                      A                      A                      A
 Frequencies --   1305.6119              1356.9873              1365.9344
 Red. masses --      1.7446                 1.6912                 1.3487
 Frc consts  --      1.7522                 1.8348                 1.4826
 IR Inten    --     65.5939               808.1802                90.5784

                     64                     65                     66
                      A                      A                      A
 Frequencies --   1384.7714              1388.7573              1403.9573
 Red. masses --      1.7560                 2.0022                 1.2835
 Frc consts  --      1.9839                 2.2751                 1.4906
 IR Inten    --   2087.6093              1901.9765                99.9826

                     67                     68                     69
                      A                      A                      A
 Frequencies --   1413.2320              1428.3036              1438.5790
 Red. masses --      1.8376                 1.3744                 1.8030
 Frc consts  --      2.1624                 1.6520                 2.1985
 IR Inten    --    391.9256                48.8200               158.2159

                     70                     71                     72
                      A                      A                      A
 Frequencies --   1456.1942              1460.4130              1464.3628
 Red. masses --      1.4946                 1.7289                 1.6015
 Frc consts  --      1.8673                 2.1726                 2.0234
 IR Inten    --     59.7043               133.0986                90.2503

                     73                     74                     75
                      A                      A                      A
 Frequencies --   1469.7958              1471.3826              1476.2159
 Red. masses --      1.0639                 1.2137                 1.1739
 Frc consts  --      1.3542                 1.5481                 1.5072
 IR Inten    --     68.9572                15.1318                57.5948

                     76                     77                     78
                      A                      A                      A
 Frequencies --   1477.1563              1482.2287              1485.4363
 Red. masses --      1.6115                 1.0943                 1.1581
 Frc consts  --      2.0717                 1.4165                 1.5056
 IR Inten    --    134.4976               154.1475                25.6579

                     79                     80                     81
                      A                      A                      A
 Frequencies --   1489.3023              1499.0147              1515.3438
 Red. masses --      1.1164                 1.0994                 1.0554
 Frc consts  --      1.4590                 1.4555                 1.4279
 IR Inten    --     29.3047                33.1635                24.0461

                     82                     83                     84
                      A                      A                      A
 Frequencies --   1515.6300              1579.6301              1702.5801
 Red. masses --      1.0551                 8.1950                 6.2762
 Frc consts  --      1.4280                12.0479                10.7192
 IR Inten    --      7.7500              2239.5418                19.1622

                     85                     86                     87
                      A                      A                      A
 Frequencies --   2934.9100              2939.2716              2946.6672
 Red. masses --      1.0462                 1.0450                 1.0544
 Frc consts  --      5.3096                 5.3191                 5.3940
 IR Inten    --    684.4514               402.9508               121.2674

                     88                     89                     90
                      A                      A                      A
 Frequencies --   2950.9656              2964.3074              2981.7794
 Red. masses --      1.0462                 1.0461                 1.0625
 Frc consts  --      5.3676                 5.4161                 5.5661
 IR Inten    --     19.1555                63.0240               110.8155

                     91                     92                     93
                      A                      A                      A
 Frequencies --   2984.9352              2991.1486              2995.3602
 Red. masses --      1.0928                 1.0931                 1.0855
 Frc consts  --      5.7365                 5.7619                 5.7383
 IR Inten    --     35.1366                25.0976                89.4177

                     94                     95                     96
                      A                      A                      A
 Frequencies --   3009.3751              3011.3013              3037.9304
 Red. masses --      1.0845                 1.0862                 1.0950
 Frc consts  --      5.7865                 5.8034                 5.9539
 IR Inten    --    350.5270               323.3616                37.2113

                     97                     98                     99
                      A                      A                      A
 Frequencies --   3057.7106              3060.2774              3072.2288
 Red. masses --      1.1025                 1.1020                 1.0946
 Frc consts  --      6.0731                 6.0808                 6.0869
 IR Inten    --     20.1455                29.1790                19.9752

                    100                    101                    102
                      A                      A                      A
 Frequencies --   3079.9048              3104.9509              3120.4822
 Red. masses --      1.0935                 1.0913                 1.0877
 Frc consts  --      6.1117                 6.1987                 6.2404
 IR Inten    --     11.7497                15.4984                 7.0207

 - Thermochemistry -
 -------------------
 Temperature   298.150 Kelvin.  Pressure   1.00000 Atm.
 Atom     1 has atomic number  6 and mass  12.00000

 Molecular mass:   250.12051 amu.
 Principal axes and moments of inertia in atomic units:
                           1         2         3
     Eigenvalues --  2698.648917342.166679239.19590
           X            0.67744   0.64546   0.35278
           Y            0.71647  -0.47041  -0.51515
           Z            0.16656  -0.60174   0.78113
 This molecule is an asymmetric top.
 Rotational symmetry number  1.
 Warning -- assumption of classical behavior for rotation
           may cause significant error
 Rotational temperatures (Kelvin)      0.03210     0.01180     0.00937
 Rotational constants (GHZ):           0.66876     0.24580     0.19534
 Zero-point vibrational energy     756929.4 (Joules/Mol)
                                  180.91046 (Kcal/Mol)
 Warning -- explicit consideration of  31 degrees of freedom as
           vibrations may cause significant error
 Vibrational temperatures:     31.47    55.47    72.64   123.11   125.09
          (Kelvin)            140.15   146.41   149.01   186.49   205.95
                              248.28   251.33   269.79   270.99   307.89
                              360.52   388.86   407.11   477.18   479.23
                              487.48   502.13   548.16   565.95   578.98
                              595.56   642.89   667.12   730.05   741.94
                              832.88   902.44   937.58  1027.42  1057.30
                             1112.68  1144.60  1224.50  1295.69  1332.84
                             1375.19  1378.82  1420.04  1461.57  1468.91
                             1499.13  1512.92  1548.92  1572.58  1593.83
                             1603.15  1654.24  1669.98  1671.85  1685.88
                             1732.46  1740.88  1760.83  1811.05  1842.15
                             1878.48  1952.40  1965.27  1992.38  1998.11
                             2019.98  2033.33  2055.01  2069.79  2095.14
                             2101.21  2106.89  2114.71  2116.99  2123.95
                             2125.30  2132.60  2137.21  2142.77  2156.75
                             2180.24  2180.65  2272.74  2449.63  4222.68
                             4228.96  4239.60  4245.78  4264.98  4290.12
                             4294.66  4303.60  4309.66  4329.82  4332.59
                             4370.90  4399.36  4403.06  4420.25  4431.30
                             4467.33  4489.68

 Zero-point correction=                           0.288299 (Hartree/Particle)
 Thermal correction to Energy=                    0.308410
 Thermal correction to Enthalpy=                  0.309354
 Thermal correction to Gibbs Free Energy=         0.238953
 Sum of electronic and zero-point Energies=           -845.088288
 Sum of electronic and thermal Energies=              -845.068178
 Sum of electronic and thermal Enthalpies=            -845.067234
 Sum of electronic and thermal Free Energies=         -845.137635

                     E (Thermal)             CV                S
                      KCal/Mol        Cal/Mol-Kelvin    Cal/Mol-Kelvin
 Total                  193.530             72.584            148.171
 Electronic               0.000              0.000              0.000
 Translational            0.889              2.981             42.451
 Rotational               0.889              2.981             33.570
 Vibrational            191.752             66.623             72.151
 Vibration     1          0.593              1.985              6.456
 Vibration     2          0.594              1.981              5.332
 Vibration     3          0.595              1.977              4.798
 Vibration     4          0.601              1.959              3.759
 Vibration     5          0.601              1.958              3.728
 Vibration     6          0.603              1.951              3.506
 Vibration     7          0.604              1.948              3.420
 Vibration     8          0.605              1.946              3.386
 Vibration     9          0.612              1.924              2.952
 Vibration    10          0.616              1.910              2.761
 Vibration    11          0.626              1.876              2.407
 Vibration    12          0.627              1.874              2.384
 Vibration    13          0.632              1.857              2.252
 Vibration    14          0.633              1.856              2.244
 Vibration    15          0.644              1.820              2.009
 Vibration    16          0.663              1.762              1.727
 Vibration    17          0.674              1.728              1.594
 Vibration    18          0.682              1.705              1.516
 Vibration    19          0.714              1.612              1.252
 Vibration    20          0.715              1.609              1.245
 Vibration    21          0.719              1.598              1.218
 Vibration    22          0.726              1.577              1.171
 Vibration    23          0.751              1.511              1.035
 Vibration    24          0.761              1.484              0.987
 Vibration    25          0.768              1.465              0.954
 Vibration    26          0.778              1.440              0.913
 Vibration    27          0.806              1.368              0.805
 Vibration    28          0.821              1.331              0.756
 Vibration    29          0.863              1.234              0.640
 Vibration    30          0.871              1.215              0.620
 Vibration    31          0.935              1.077              0.487

 Optimization completed.
    -- Stationary point found.
 Normal termination of Gaussian 16 at Wed Jan 10 06:46:32 2024.
