 Gaussian 16, Revision A.03,
 Gaussian 16:  ES64L-G16RevA.03 25-Dec-2016

 ----------------------------------------------------------------
 #P UB3LYP/6-311++G(d,p) SCRF=(PCM,Solvent=n,n-DiMethylFormamide)
 ----------------------------------------------------------------

 -------
 Reduced
 -------
 Symbolic Z-matrix:
 Charge = -2 Multiplicity = 1

                         Standard orientation:
 ---------------------------------------------------------------------
 Center     Atomic      Atomic             Coordinates (Angstroms)
 Number     Number       Type             X           Y           Z
 ---------------------------------------------------------------------
      1          6           0       -0.436373    1.168416   -0.564477
      2          6           0        0.458329    0.036938   -0.567347
      3          6           0        0.044257   -1.254245   -0.215485
      4          6           0       -1.306873   -1.541728    0.196854
      5          6           0       -2.193096   -0.404602    0.211759
      6          6           0       -1.785225    0.874350   -0.154907
      7          8           0       -0.070096    2.353345   -0.926360
      8          8           0       -1.707995   -2.720993    0.545586
      9          8           0       -2.746084    1.886294   -0.192439
     10          8           0       -3.499803   -0.565371    0.675693
     11          6           0       -2.485795    2.965316    0.690149
     12          6           0       -4.290663   -1.440331   -0.110755
     13          6           0        1.005027   -2.420934   -0.226161
     14          6           0        1.872544    0.322685   -1.046528
     15          6           0        2.830588    0.680434    0.063976
     16          6           0        4.067050    0.218166    0.308980
     17          6           0        4.777993   -0.827422   -0.516361
     18          6           0        4.870572    0.706666    1.493665
     19          1           0       -1.505320    3.403272    0.480278
     20          1           0       -2.534220    2.632145    1.739374
     21          1           0       -3.274547    3.708561    0.520220
     22          1           0       -5.259581   -1.530511    0.395728
     23          1           0       -3.812625   -2.421812   -0.186638
     24          1           0       -4.456159   -1.019658   -1.116122
     25          1           0        1.929770   -2.204457    0.325241
     26          1           0        1.304576   -2.708496   -1.245844
     27          1           0        0.507430   -3.279900    0.230084
     28          1           0        1.797170    1.202261   -1.700727
     29          1           0        2.260188   -0.512212   -1.639159
     30          1           0        2.434522    1.434673    0.742068
     31          1           0        4.173582   -1.190788   -1.347998
     32          1           0        5.055555   -1.692325    0.104662
     33          1           0        5.718446   -0.432584   -0.926260
     34          1           0        4.331911    1.468187    2.064121
     35          1           0        5.834208    1.134369    1.181451
     36          1           0        5.116910   -0.119179    2.179506
 ---------------------------------------------------------------------

 SCF Done:  E(UB3LYP) =  -845.642033362     A.U. after   17 cycles

 The electronic state is 1-A.
 Alpha  occ. eigenvalues --  -19.10638 -19.10597 -19.00516 -19.00368 -10.18693
 Alpha  occ. eigenvalues --  -10.18637 -10.16333 -10.16274 -10.16199 -10.15672
 Alpha  occ. eigenvalues --  -10.15636 -10.15420 -10.15383 -10.14682 -10.13913
 Alpha  occ. eigenvalues --  -10.12911 -10.11659 -10.11567  -1.02539  -1.00799
 Alpha  occ. eigenvalues --   -0.92052  -0.91723  -0.80217  -0.77654  -0.73633
 Alpha  occ. eigenvalues --   -0.70976  -0.68221  -0.67576  -0.66852  -0.64200
 Alpha  occ. eigenvalues --   -0.60454  -0.59717  -0.52760  -0.51880  -0.50066
 Alpha  occ. eigenvalues --   -0.47560  -0.46121  -0.45193  -0.43984  -0.43816
 Alpha  occ. eigenvalues --   -0.42397  -0.42179  -0.42014  -0.41421  -0.40313
 Alpha  occ. eigenvalues --   -0.38591  -0.37707  -0.37540  -0.36418  -0.35962
 Alpha  occ. eigenvalues --   -0.35694  -0.35176  -0.34921  -0.33697  -0.32720
 Alpha  occ. eigenvalues --   -0.32344  -0.31545  -0.30960  -0.30146  -0.29776
 Alpha  occ. eigenvalues --   -0.25525  -0.25267  -0.22499  -0.20834  -0.18520
 Alpha  occ. eigenvalues --   -0.18170  -0.17963  -0.10405
 Alpha virt. eigenvalues --   -0.00409   0.00431   0.01058   0.01668   0.01769
 Alpha virt. eigenvalues --    0.02461   0.02678   0.03372   0.03705   0.03828
 Alpha virt. eigenvalues --    0.04327   0.04586   0.05010   0.05483   0.05524

  Beta  occ. eigenvalues --  -19.10638 -19.10597 -19.00516 -19.00368 -10.18693
  Beta  occ. eigenvalues --  -10.18637 -10.16333 -10.16274 -10.16199 -10.15672
  Beta  occ. eigenvalues --  -10.15636 -10.15420 -10.15383 -10.14682 -10.13913
  Beta  occ. eigenvalues --  -10.12911 -10.11659 -10.11567  -1.02539  -1.00799
  Beta  occ. eigenvalues --   -0.92052  -0.91723  -0.80217  -0.77654  -0.73633
  Beta  occ. eigenvalues --   -0.70976  -0.68221  -0.67576  -0.66852  -0.64200
  Beta  occ. eigenvalues --   -0.60454  -0.59717  -0.52760  -0.51880  -0.50066
  Beta  occ. eigenvalues --   -0.47560  -0.46121  -0.45193  -0.43984  -0.43816
  Beta  occ. eigenvalues --   -0.42397  -0.42179  -0.42014  -0.41421  -0.40313
  Beta  occ. eigenvalues --   -0.38591  -0.37707  -0.37540  -0.36418  -0.35962
  Beta  occ. eigenvalues --   -0.35694  -0.35176  -0.34921  -0.33697  -0.32720
  Beta  occ. eigenvalues --   -0.32344  -0.31545  -0.30960  -0.30146  -0.29776
  Beta  occ. eigenvalues --   -0.25525  -0.25267  -0.22499  -0.20834  -0.18520
  Beta  occ. eigenvalues --   -0.18170  -0.17963  -0.10405
  Beta virt. eigenvalues --   -0.00409   0.00431   0.01058   0.01668   0.01769
  Beta virt. eigenvalues --    0.02461   0.02678   0.03372   0.03705   0.03828
  Beta virt. eigenvalues --    0.04327   0.04586   0.05010   0.05483   0.05524

 Mulliken charges and spin densities:
               1          2
     1  C   -0.576162   0.000000
     2  C    0.858985   0.000000
     3  C    0.635494  -0.000000
     4  C   -0.697432   0.000000
     5  C   -0.348228  -0.000000
     6  C   -0.230648   0.000000
     7  O   -0.681296  -0.000000
     8  O   -0.709195  -0.000000
     9  O   -0.224284   0.000000
    10  O   -0.223359   0.000000
    11  C   -0.217046   0.000000
    12  C   -0.233102  -0.000000
    13  C   -0.657037  -0.000000
    14  C    0.232478  -0.000000
    15  C   -0.741617  -0.000000
    16  C    0.486068   0.000000
    17  C   -0.674764   0.000000
    18  C   -0.628321   0.000000
    19  H    0.164225  -0.000000
    20  H    0.108909   0.000000
    21  H    0.130773   0.000000
    22  H    0.131565   0.000000
    23  H    0.171745  -0.000000
    24  H    0.109453   0.000000
    25  H    0.146690   0.000000
    26  H    0.137070  -0.000000
    27  H    0.168083  -0.000000
    28  H    0.170928   0.000000
    29  H    0.150616  -0.000000
    30  H    0.194028  -0.000000
    31  H    0.129390   0.000000
    32  H    0.142433  -0.000000
    33  H    0.142854   0.000000
    34  H    0.148613   0.000000
    35  H    0.137851   0.000000
    36  H    0.144239  -0.000000
 Sum of Mulliken charges =  -2.00000  -0.00000

 Dipole moment (field-independent basis, Debye):
    X=             10.1570    Y=              0.8661    Z=              1.1061  Tot=             10.2537
 Quadrupole moment (field-independent basis, Debye-Ang):
   XX=           -146.4094   YY=           -166.5183   ZZ=           -124.9863
   XY=            -12.5311   XZ=              5.8485   YZ=             17.9182

 Normal termination of Gaussian 16 at Wed Jan 24 22:56:34 2024.
