 Gaussian 16, Revision A.03,
 Gaussian 16:  ES64L-G16RevA.03 25-Dec-2016

 ----------------------------------------------------------------------
 #P UB3LYP/6-311++G(d,p) nosym opt freq SCRF=(PCM,Solvent=n,n-DiMethylF
 ormamide)
 ----------------------------------------------------------------------

 -------
 Radical
 -------
 Symbolic Z-matrix:
 Charge = -1 Multiplicity = 2

 SCF Done:  E(UB3LYP) =  -1485.51394736     A.U. after   20 cycles
 SCF Done:  E(UB3LYP) =  -1485.51404535     A.U. after   16 cycles
 SCF Done:  E(UB3LYP) =  -1485.51406096     A.U. after   14 cycles
 SCF Done:  E(UB3LYP) =  -1485.51406366     A.U. after   13 cycles
 SCF Done:  E(UB3LYP) =  -1485.51406387     A.U. after   11 cycles
 Optimization completed.
    -- Stationary point found.
 Normal termination of Gaussian 16 at Sat Feb 10 10:12:39 2024.

 ----------------------------------------------------------------------
 #P Geom=AllCheck Guess=TCheck SCRF=Check GenChk UB3LYP/6-311++G(d,p) F
 req
 ----------------------------------------------------------------------

 Structure from the checkpoint file:  "002-rad.chk"
 -------
 Radical
 -------
 Charge = -1 Multiplicity = 2

                          Input orientation:
 ---------------------------------------------------------------------
 Center     Atomic      Atomic             Coordinates (Angstroms)
 Number     Number       Type             X           Y           Z
 ---------------------------------------------------------------------
      1          6           0        0.066548    1.716239   -0.000120
      2          6           0       -1.168373    0.913723   -0.000834
      3          6           0       -1.156557   -0.448224    0.000170
      4          6           0        0.092046   -1.229338    0.001769
      5          6           0        1.313966   -0.444485    0.002754
      6          6           0        1.301853    0.952572    0.001757
      7          8           0        0.051202    2.958527   -0.000784
      8          8           0        0.098132   -2.471706    0.003363
      9          6           0        2.511062    1.697033    0.002631
     10          6           0        2.535881   -1.167950    0.004737
     11          7           0        3.498510    2.301458    0.003351
     12          7           0        3.533737   -1.755030    0.006303
     13         17           0       -2.651922    1.819242   -0.003069
     14         17           0       -2.624197   -1.379170   -0.000538
 ---------------------------------------------------------------------

 SCF Done:  E(UB3LYP) =  -1485.51406387     A.U. after    1 cycles

 Alpha  occ. eigenvalues -- -101.57294-101.57294 -19.11967 -19.11966 -14.33110
 Alpha  occ. eigenvalues --  -14.33109 -10.27694 -10.27693 -10.26606 -10.26539
 Alpha  occ. eigenvalues --  -10.23994 -10.23942 -10.23113 -10.23111  -9.48748
 Alpha  occ. eigenvalues --   -9.48747  -7.25222  -7.25222  -7.24261  -7.24261
 Alpha  occ. eigenvalues --   -7.24149  -7.24149  -1.05388  -1.05076  -0.93565
 Alpha  occ. eigenvalues --   -0.92753  -0.92233  -0.86993  -0.86626  -0.77666
 Alpha  occ. eigenvalues --   -0.75133  -0.66633  -0.64045  -0.55643  -0.54960
 Alpha  occ. eigenvalues --   -0.53586  -0.48223  -0.47194  -0.45331  -0.44117
 Alpha  occ. eigenvalues --   -0.43981  -0.42644  -0.40991  -0.39362  -0.39227
 Alpha  occ. eigenvalues --   -0.37499  -0.37335  -0.36256  -0.35634  -0.35138
 Alpha  occ. eigenvalues --   -0.34412  -0.32300  -0.30898  -0.28808  -0.28267
 Alpha  occ. eigenvalues --   -0.27417  -0.20570
 Alpha virt. eigenvalues --   -0.08619  -0.02465  -0.02279  -0.00261   0.00732
 Alpha virt. eigenvalues --    0.01309   0.02324   0.02486   0.03282   0.04474
 Alpha virt. eigenvalues --    0.04718   0.05033   0.05554   0.05730   0.06216

  Beta  occ. eigenvalues -- -101.57292-101.57292 -19.11322 -19.11321 -14.32979
  Beta  occ. eigenvalues --  -14.32978 -10.27650 -10.27649 -10.26562 -10.26494
  Beta  occ. eigenvalues --  -10.23753 -10.23699 -10.23164 -10.23162  -9.48747
  Beta  occ. eigenvalues --   -9.48746  -7.25224  -7.25224  -7.24253  -7.24252
  Beta  occ. eigenvalues --   -7.24149  -7.24148  -1.04336  -1.03981  -0.93311
  Beta  occ. eigenvalues --   -0.92546  -0.92066  -0.86925  -0.86041  -0.77471
  Beta  occ. eigenvalues --   -0.74188  -0.66237  -0.63759  -0.55325  -0.54751
  Beta  occ. eigenvalues --   -0.53313  -0.48080  -0.45881  -0.44706  -0.43777
  Beta  occ. eigenvalues --   -0.43649  -0.40552  -0.40495  -0.39160  -0.39017
  Beta  occ. eigenvalues --   -0.36862  -0.36147  -0.35885  -0.35556  -0.34594
  Beta  occ. eigenvalues --   -0.34374  -0.32265  -0.28261  -0.28194  -0.27654
  Beta  occ. eigenvalues --   -0.26796
  Beta virt. eigenvalues --   -0.13853  -0.07091  -0.02212  -0.00783  -0.00193
  Beta virt. eigenvalues --    0.00773   0.01388   0.02340   0.02511   0.03333
  Beta virt. eigenvalues --    0.04581   0.05078   0.05521   0.05608   0.05772

 Mulliken charges and spin densities:
               1          2
     1  C   -1.556015   0.002465
     2  C    0.700409   0.019464
     3  C    0.700708   0.019472
     4  C   -1.556349   0.002490
     5  C    1.938469   0.195807
     6  C    1.939236   0.195847
     7  O   -0.340484   0.240832
     8  O   -0.340495   0.240840
     9  C   -1.391974  -0.021814
    10  C   -1.392135  -0.021795
    11  N   -0.277389   0.064158
    12  N   -0.277388   0.064138
    13  Cl   0.426740  -0.000953
    14  Cl   0.426668  -0.000951
 Sum of Mulliken charges =  -1.00000   1.00000

 Dipole moment (field-independent basis, Debye):
    X=             -8.0295    Y=             -1.2357    Z=             -0.0152  Tot=              8.1241
 Quadrupole moment (field-independent basis, Debye-Ang):
   XX=           -136.4833   YY=           -139.4093   ZZ=            -92.1245
   XY=             -1.9276   XZ=             -0.0571   YZ=              0.0315

  Exact polarizability: 292.013  -0.013 293.928   0.222  -0.151  90.103
 Approx polarizability: 307.371  -0.410 355.083   0.223  -0.188 104.678

                      1                      2                      3
                      A                      A                      A
 Frequencies --     60.1570                64.7855                97.0099
 Red. masses --     18.4473                16.2607                17.7931
 Frc consts  --      0.0393                 0.0402                 0.0987
 IR Inten    --      0.0083                 0.3139                 0.0017

                      4                      5                      6
                      A                      A                      A
 Frequencies --    125.3550               150.5819               157.4902
 Red. masses --     13.9838                15.4557                13.4547
 Frc consts  --      0.1295                 0.2065                 0.1966
 IR Inten    --      2.2263                 5.4772                33.3366

                      7                      8                      9
                      A                      A                      A
 Frequencies --    212.7204               263.6109               269.0582
 Red. masses --     31.8410                19.4009                12.6927
 Frc consts  --      0.8489                 0.7943                 0.5414
 IR Inten    --      0.1166                 3.5666                 1.0455

                     10                     11                     12
                      A                      A                      A
 Frequencies --    325.5618               336.1131               347.7500
 Red. masses --     16.7004                12.4974                20.4871
 Frc consts  --      1.0429                 0.8318                 1.4597
 IR Inten    --      0.0308                 0.0001                 1.5888

                     13                     14                     15
                      A                      A                      A
 Frequencies --    370.4853               440.2979               466.8792
 Red. masses --     14.4757                14.3650                12.3097
 Frc consts  --      1.1707                 1.6408                 1.5809
 IR Inten    --      2.1114                 2.4059                 0.0000

                     16                     17                     18
                      A                      A                      A
 Frequencies --    488.6533               508.0040               530.5407
 Red. masses --     13.9555                14.4224                12.2091
 Frc consts  --      1.9633                 2.1929                 2.0247
 IR Inten    --     27.0418                 3.2088                 3.7015

                     19                     20                     21
                      A                      A                      A
 Frequencies --    538.9411               622.4903               735.3803
 Red. masses --     12.7243                12.0926                12.1944
 Frc consts  --      2.1776                 2.7608                 3.8854
 IR Inten    --      1.2541                 0.0000                15.1745

                     22                     23                     24
                      A                      A                      A
 Frequencies --    777.5707               780.5769               782.8678
 Red. masses --     12.1087                12.4282                13.3812
 Frc consts  --      4.3135                 4.4616                 4.8320
 IR Inten    --      0.0001                 0.0021               130.5560

                     25                     26                     27
                      A                      A                      A
 Frequencies --    871.6419              1010.7252              1044.1538
 Red. masses --     12.9613                12.6245                12.3814
 Frc consts  --      5.8020                 7.5986                 7.9533
 IR Inten    --    174.9881                 3.8177               227.6109

                     28                     29                     30
                      A                      A                      A
 Frequencies --   1190.8121              1231.6075              1372.9836
 Red. masses --     12.0954                12.1261                12.0468
 Frc consts  --     10.1055                10.8372                13.3799
 IR Inten    --    316.3754                10.7402                 1.4364

                     31                     32                     33
                      A                      A                      A
 Frequencies --   1462.1621              1555.9463              1556.0611
 Red. masses --     12.2401                12.9809                12.6078
 Frc consts  --     15.4179                18.5158                17.9863
 IR Inten    --    220.4388               826.0953               247.7187

                     34                     35                     36
                      A                      A                      A
 Frequencies --   1601.4652              2295.8261              2303.3091
 Red. masses --     12.4388                12.6855                12.6789
 Frc consts  --     18.7959                39.3946                39.6310
 IR Inten    --      0.0286               500.0098               102.2462

 - Thermochemistry -
 -------------------
 Temperature   298.150 Kelvin.  Pressure   1.00000 Atm.
 Atom     1 has atomic number  6 and mass  12.00000

 Molecular mass:   225.93368 amu.
 Principal axes and moments of inertia in atomic units:
                           1         2         3
     Eigenvalues --  2335.815573779.283866115.09940
           X            0.99996  -0.00859  -0.00108
           Y            0.00859   0.99996   0.00074
           Z            0.00107  -0.00075   1.00000
 This molecule is an asymmetric top.
 Rotational symmetry number  1.
 Warning -- assumption of classical behavior for rotation
           may cause significant error
 Rotational temperatures (Kelvin)      0.03708     0.02292     0.01416
 Rotational constants (GHZ):           0.77264     0.47754     0.29513
 Zero-point vibrational energy     161194.3 (Joules/Mol)
                                   38.52635 (Kcal/Mol)
 Warning -- explicit consideration of  19 degrees of freedom as
           vibrations may cause significant error
 Vibrational temperatures:     86.55    93.21   139.58   180.36   216.65
          (Kelvin)            226.59   306.06   379.28   387.11   468.41
                              483.59   500.33   533.05   633.49   671.74
                              703.06   730.90   763.33   775.42   895.62
                             1058.05  1118.75  1123.08  1126.37  1254.10
                             1454.21  1502.30  1713.31  1772.01  1975.42
                             2103.73  2238.66  2238.82  2304.15  3303.18
                             3313.95

 Zero-point correction=                           0.061396 (Hartree/Particle)
 Thermal correction to Energy=                    0.073541
 Thermal correction to Enthalpy=                  0.074485
 Thermal correction to Gibbs Free Energy=         0.021124
 Sum of electronic and zero-point Energies=          -1485.452668
 Sum of electronic and thermal Energies=             -1485.440523
 Sum of electronic and thermal Enthalpies=           -1485.439579
 Sum of electronic and thermal Free Energies=        -1485.492940

                     E (Thermal)             CV                S
                      KCal/Mol        Cal/Mol-Kelvin    Cal/Mol-Kelvin
 Total                   46.148             42.588            112.307
 Electronic               0.000              0.000              1.377
 Translational            0.889              2.981             42.148
 Rotational               0.889              2.981             32.357
 Vibrational             44.370             36.627             36.425
 Vibration     1          0.597              1.973              4.452
 Vibration     2          0.597              1.971              4.306
 Vibration     3          0.603              1.951              3.514
 Vibration     4          0.610              1.928              3.016
 Vibration     5          0.618              1.902              2.665
 Vibration     6          0.621              1.894              2.580
 Vibration     7          0.644              1.822              2.020
 Vibration     8          0.670              1.740              1.638
 Vibration     9          0.673              1.730              1.602
 Vibration    10          0.710              1.624              1.282
 Vibration    11          0.717              1.603              1.231
 Vibration    12          0.725              1.580              1.176
 Vibration    13          0.742              1.533              1.078
 Vibration    14          0.800              1.382              0.826
 Vibration    15          0.824              1.324              0.746
 Vibration    16          0.845              1.275              0.687
 Vibration    17          0.863              1.232              0.638
 Vibration    18          0.886              1.182              0.586
 Vibration    19          0.894              1.164              0.568

 Optimization completed.
    -- Stationary point found.
 Normal termination of Gaussian 16 at Sat Feb 10 10:23:42 2024.
