 Gaussian 16, Revision A.03,
 Gaussian 16:  ES64L-G16RevA.03 25-Dec-2016

 --------------------------------------
 #P UB3LYP/6-311++G(d,p) nosym opt freq
 --------------------------------------

 --------
 Oxidized
 --------
 Symbolic Z-matrix:
 Charge =  0 Multiplicity = 1

 SCF Done:  E(UB3LYP) =  -771.201624998     A.U. after   15 cycles
 SCF Done:  E(UB3LYP) =  -771.205048251     A.U. after   13 cycles
 SCF Done:  E(UB3LYP) =  -771.205408886     A.U. after   13 cycles
 SCF Done:  E(UB3LYP) =  -771.206015895     A.U. after   15 cycles
 SCF Done:  E(UB3LYP) =  -771.207082089     A.U. after   16 cycles
 SCF Done:  E(UB3LYP) =  -771.208905636     A.U. after   16 cycles
 SCF Done:  E(UB3LYP) =  -771.210025967     A.U. after   16 cycles
 SCF Done:  E(UB3LYP) =  -771.212964225     A.U. after   16 cycles
 SCF Done:  E(UB3LYP) =  -771.211113034     A.U. after   15 cycles
 SCF Done:  E(UB3LYP) =  -771.213373685     A.U. after   15 cycles
 SCF Done:  E(UB3LYP) =  -771.213876806     A.U. after   15 cycles
 SCF Done:  E(UB3LYP) =  -771.214837664     A.U. after   15 cycles
 SCF Done:  E(UB3LYP) =  -771.214999698     A.U. after   13 cycles
 SCF Done:  E(UB3LYP) =  -771.215016512     A.U. after   11 cycles
 SCF Done:  E(UB3LYP) =  -771.215017700     A.U. after   10 cycles
 SCF Done:  E(UB3LYP) =  -771.215017905     A.U. after   10 cycles
 SCF Done:  E(UB3LYP) =  -771.215017964     A.U. after    9 cycles
 SCF Done:  E(UB3LYP) =  -771.215018016     A.U. after    8 cycles
 SCF Done:  E(UB3LYP) =  -771.215018052     A.U. after    9 cycles
 Optimization completed.
    -- Stationary point found.
 Normal termination of Gaussian 16 at Wed Dec 27 02:11:40 2023.

 ----------------------------------------------------------------------
 #P Geom=AllCheck Guess=TCheck SCRF=Check GenChk UB3LYP/6-311++G(d,p) F
 req
 ----------------------------------------------------------------------

 Structure from the checkpoint file:  "248.chk"
 --------
 Oxidized
 --------
 Charge =  0 Multiplicity = 1

                          Input orientation:
 ---------------------------------------------------------------------
 Center     Atomic      Atomic             Coordinates (Angstroms)
 Number     Number       Type             X           Y           Z
 ---------------------------------------------------------------------
      1          6           0        5.875942   -5.559598    0.875752
      2          6           0        6.386796   -5.541463   -0.417957
      3          6           0        5.961931   -4.568848   -1.326929
      4          6           0        4.935873   -4.602922    1.266352
      5          6           0        4.510171   -3.627392    0.355586
      6          6           0        5.026540   -3.613679   -0.942526
      7          6           0        4.385957   -4.622525    2.649882
      8          6           0        3.375086   -3.591502    3.040564
      9          6           0        2.977611   -2.631067    2.168039
     10          6           0        3.510799   -2.602106    0.768055
     11          8           0        4.748600   -5.462785    3.459724
     12          8           0        3.130195   -1.749683   -0.020654
     13          1           0        7.116145   -6.284009   -0.721221
     14          6           0        1.967537   -1.558261    2.489551
     15          1           0        6.362211   -4.557869   -2.334382
     16          6           0        2.875148   -3.723118    4.451711
     17          6           0        0.520078   -1.979108    2.156902
     18          6           0       -0.497131   -0.869477    2.442170
     19          6           0       -1.941035   -1.268984    2.117215
     20          6           0       -2.953977   -0.156474    2.403071
     21          1           0        6.190827   -6.304038    1.596533
     22          1           0        4.684029   -2.850793   -1.630602
     23          1           0        2.212874   -0.670947    1.902301
     24          1           0        2.034640   -1.280616    3.543793
     25          1           0        2.505080   -4.736765    4.624568
     26          1           0        2.082580   -3.015022    4.681483
     27          1           0        3.696411   -3.579493    5.160350
     28          1           0        0.259402   -2.874934    2.733123
     29          1           0        0.466777   -2.260799    1.100091
     30          1           0       -0.229279    0.022624    1.862175
     31          1           0       -0.432306   -0.577547    3.498781
     32          1           0       -2.207461   -2.162617    2.694742
     33          1           0       -2.004926   -1.558747    1.061563
     34          1           0       -2.938415    0.131620    3.459030
     35          1           0       -3.972406   -0.472170    2.160482
     36          1           0       -2.734616    0.739052    1.813244
 ---------------------------------------------------------------------

 SCF Done:  E(UB3LYP) =  -771.215018052     A.U. after    1 cycles

 Alpha  occ. eigenvalues --  -19.12814 -19.12748 -10.27703 -10.27603 -10.21388
 Alpha  occ. eigenvalues --  -10.21120 -10.20631 -10.20577 -10.20114 -10.20061
 Alpha  occ. eigenvalues --  -10.19815 -10.19811 -10.17976 -10.17831 -10.17404
 Alpha  occ. eigenvalues --  -10.16819 -10.16789 -10.15982  -1.06175  -1.05967
 Alpha  occ. eigenvalues --   -0.89038  -0.85394  -0.80996  -0.78872  -0.77810
 Alpha  occ. eigenvalues --   -0.76547  -0.72766  -0.69246  -0.67578  -0.63985
 Alpha  occ. eigenvalues --   -0.62337  -0.59998  -0.58392  -0.58237  -0.55086
 Alpha  occ. eigenvalues --   -0.52078  -0.49811  -0.48573  -0.47497  -0.46110
 Alpha  occ. eigenvalues --   -0.45559  -0.45392  -0.45074  -0.43921  -0.43446
 Alpha  occ. eigenvalues --   -0.42659  -0.41854  -0.41466  -0.40977  -0.40248
 Alpha  occ. eigenvalues --   -0.39887  -0.38734  -0.37690  -0.37353  -0.36957
 Alpha  occ. eigenvalues --   -0.36562  -0.34372  -0.33754  -0.33354  -0.32956
 Alpha  occ. eigenvalues --   -0.28908  -0.28281  -0.27842  -0.27250  -0.26743
 Alpha virt. eigenvalues --   -0.11970  -0.05603  -0.03079  -0.01129  -0.00686
 Alpha virt. eigenvalues --    0.00040   0.00745   0.01087   0.01430   0.02162
 Alpha virt. eigenvalues --    0.02645   0.02837   0.03033   0.03705   0.04149

  Beta  occ. eigenvalues --  -19.12814 -19.12748 -10.27703 -10.27603 -10.21388
  Beta  occ. eigenvalues --  -10.21120 -10.20631 -10.20577 -10.20114 -10.20061
  Beta  occ. eigenvalues --  -10.19815 -10.19811 -10.17976 -10.17831 -10.17404
  Beta  occ. eigenvalues --  -10.16819 -10.16789 -10.15982  -1.06175  -1.05967
  Beta  occ. eigenvalues --   -0.89038  -0.85394  -0.80996  -0.78872  -0.77810
  Beta  occ. eigenvalues --   -0.76547  -0.72766  -0.69246  -0.67578  -0.63985
  Beta  occ. eigenvalues --   -0.62337  -0.59998  -0.58392  -0.58237  -0.55086
  Beta  occ. eigenvalues --   -0.52078  -0.49811  -0.48573  -0.47497  -0.46110
  Beta  occ. eigenvalues --   -0.45559  -0.45392  -0.45074  -0.43921  -0.43446
  Beta  occ. eigenvalues --   -0.42659  -0.41854  -0.41466  -0.40977  -0.40248
  Beta  occ. eigenvalues --   -0.39887  -0.38734  -0.37690  -0.37353  -0.36957
  Beta  occ. eigenvalues --   -0.36562  -0.34372  -0.33754  -0.33354  -0.32956
  Beta  occ. eigenvalues --   -0.28908  -0.28281  -0.27842  -0.27250  -0.26743
  Beta virt. eigenvalues --   -0.11970  -0.05603  -0.03079  -0.01129  -0.00686
  Beta virt. eigenvalues --    0.00040   0.00745   0.01087   0.01430   0.02162
  Beta virt. eigenvalues --    0.02645   0.02837   0.03033   0.03705   0.04149

 Mulliken charges and spin densities:
               1          2
     1  C    0.202696  -0.000000
     2  C   -0.406127   0.000000
     3  C   -0.320208   0.000000
     4  C    0.184836   0.000000
     5  C   -0.092537   0.000000
     6  C    0.168145  -0.000000
     7  C   -0.517848  -0.000000
     8  C    0.787862   0.000000
     9  C    1.115264   0.000000
    10  C   -1.104362  -0.000000
    11  O   -0.213950   0.000000
    12  O   -0.201607   0.000000
    13  H    0.173568   0.000000
    14  C   -0.517758  -0.000000
    15  H    0.173315  -0.000000
    16  C   -0.388792   0.000000
    17  C   -0.558432   0.000000
    18  C   -0.181505  -0.000000
    19  C   -0.178999  -0.000000
    20  C   -0.634647   0.000000
    21  H    0.187456   0.000000
    22  H    0.187120  -0.000000
    23  H    0.229017   0.000000
    24  H    0.187677   0.000000
    25  H    0.187607  -0.000000
    26  H    0.124123   0.000000
    27  H    0.199724  -0.000000
    28  H    0.132049   0.000000
    29  H    0.179288  -0.000000
    30  H    0.115598   0.000000
    31  H    0.108857  -0.000000
    32  H    0.127296  -0.000000
    33  H    0.130105   0.000000
    34  H    0.135266  -0.000000
    35  H    0.141732   0.000000
    36  H    0.138172  -0.000000
 Sum of Mulliken charges =  -0.00000  -0.00000

 Dipole moment (field-independent basis, Debye):
    X=             -0.0532    Y=             -0.1305    Z=             -0.4055  Tot=              0.4293
 Quadrupole moment (field-independent basis, Debye-Ang):
   XX=           -103.4609   YY=           -112.2690   ZZ=           -107.0708
   XY=             -2.4589   XZ=            -11.4220   YZ=             10.9933

  Exact polarizability: 200.794 -60.827 187.262 -26.598 -12.171 208.059
 Approx polarizability: 261.946 -79.258 317.161 -11.109 -63.314 347.334

                      1                      2                      3
                      A                      A                      A
 Frequencies --     24.8258                31.5196                46.8208
 Red. masses --      4.2758                 4.9681                 1.7324
 Frc consts  --      0.0016                 0.0029                 0.0022
 IR Inten    --      0.2903                 1.2182                 0.7767

                      4                      5                      6
                      A                      A                      A
 Frequencies --     63.5972                72.6321               100.0006
 Red. masses --      3.4262                 1.1519                 2.5963
 Frc consts  --      0.0082                 0.0036                 0.0153
 IR Inten    --      4.6642                 0.7688                 0.1431

                      7                      8                      9
                      A                      A                      A
 Frequencies --    104.2779               117.3257               139.7753
 Red. masses --      3.5057                 5.1306                 1.8248
 Frc consts  --      0.0225                 0.0416                 0.0210
 IR Inten    --      0.0061                 0.0086                 0.0248

                     10                     11                     12
                      A                      A                      A
 Frequencies --    157.1309               180.6003               243.7610
 Red. masses --      4.1406                 5.1149                 1.1255
 Frc consts  --      0.0602                 0.0983                 0.0394
 IR Inten    --      0.3103                 0.1890                 0.0115

                     13                     14                     15
                      A                      A                      A
 Frequencies --    251.0912               282.1721               331.9687
 Red. masses --      4.0329                 4.3539                 3.5564
 Frc consts  --      0.1498                 0.2042                 0.2309
 IR Inten    --      0.8209                 0.2700                 0.1659

                     16                     17                     18
                      A                      A                      A
 Frequencies --    347.3270               360.7853               393.4432
 Red. masses --      3.8044                 2.6954                 7.0224
 Frc consts  --      0.2704                 0.2067                 0.6405
 IR Inten    --      0.4286                 0.4369                 8.8657

                     19                     20                     21
                      A                      A                      A
 Frequencies --    406.4497               421.0892               428.9126
 Red. masses --      3.5563                 6.6800                 3.4265
 Frc consts  --      0.3461                 0.6979                 0.3714
 IR Inten    --      0.3084                10.7457                 0.9708

                     22                     23                     24
                      A                      A                      A
 Frequencies --    444.6693               474.4017               516.4723
 Red. masses --      5.0830                 5.2245                 6.3528
 Frc consts  --      0.5922                 0.6928                 0.9984
 IR Inten    --      8.0111                 3.2565                 2.1091

                     25                     26                     27
                      A                      A                      A
 Frequencies --    565.5834               643.1373               676.6893
 Red. masses --      4.7726                 5.5259                 5.9335
 Frc consts  --      0.8995                 1.3467                 1.6008
 IR Inten    --      1.9129                 5.7245                 2.3635

                     28                     29                     30
                      A                      A                      A
 Frequencies --    681.1216               705.3190               732.5694
 Red. masses --      3.2327                 4.1466                 1.3609
 Frc consts  --      0.8836                 1.2154                 0.4303
 IR Inten    --      1.5873                 8.6623                20.6974

                     31                     32                     33
                      A                      A                      A
 Frequencies --    734.0746               758.1194               798.0543
 Red. masses --      1.7863                 1.2801                 2.5488
 Frc consts  --      0.5671                 0.4335                 0.9564
 IR Inten    --     36.7788                 0.1788                12.0020

                     34                     35                     36
                      A                      A                      A
 Frequencies --    808.1971               810.4072               857.6924
 Red. masses --      2.5872                 2.6547                 1.5336
 Frc consts  --      0.9957                 1.0272                 0.6647
 IR Inten    --      4.4630                 3.6288                 0.8893

                     37                     38                     39
                      A                      A                      A
 Frequencies --    893.1196               914.3613               920.9967
 Red. masses --      2.1978                 1.3679                 2.4431
 Frc consts  --      1.0329                 0.6738                 1.2210
 IR Inten    --      7.1596                 0.0516                31.7653

                     40                     41                     42
                      A                      A                      A
 Frequencies --    970.1053               990.9335               998.0435
 Red. masses --      2.7950                 1.6336                 2.0176
 Frc consts  --      1.5498                 0.9451                 1.1841
 IR Inten    --      4.2294                21.1755                 1.8916

                     43                     44                     45
                      A                      A                      A
 Frequencies --   1001.5746              1016.2451              1030.1926
 Red. masses --      1.9450                 1.3229                 3.0962
 Frc consts  --      1.1496                 0.8050                 1.9361
 IR Inten    --      1.4619                 0.0055                 1.6763

                     46                     47                     48
                      A                      A                      A
 Frequencies --   1046.7290              1047.4349              1062.9361
 Red. masses --      1.6275                 2.2435                 2.4139
 Frc consts  --      1.0506                 1.4502                 1.6069
 IR Inten    --      1.0389                10.4411                 0.5024

                     49                     50                     51
                      A                      A                      A
 Frequencies --   1071.8471              1109.2028              1124.1618
 Red. masses --      1.6753                 2.2703                 2.2799
 Frc consts  --      1.1340                 1.6457                 1.6975
 IR Inten    --     21.0167                 0.5888                12.1375

                     52                     53                     54
                      A                      A                      A
 Frequencies --   1145.1422              1164.9255              1184.5270
 Red. masses --      2.0810                 2.2230                 1.2122
 Frc consts  --      1.6078                 1.7774                 1.0021
 IR Inten    --     12.0407                 6.6390                 2.2796

                     55                     56                     57
                      A                      A                      A
 Frequencies --   1208.9171              1233.6818              1264.8360
 Red. masses --      2.3095                 1.5389                 1.2927
 Frc consts  --      1.9887                 1.3800                 1.2185
 IR Inten    --     10.3532                 3.8395                 0.9961

                     58                     59                     60
                      A                      A                      A
 Frequencies --   1281.1059              1294.6496              1305.3528
 Red. masses --      1.7798                 1.7013                 2.6619
 Frc consts  --      1.7210                 1.6801                 2.6723
 IR Inten    --     20.7164               131.6827               241.9448

                     61                     62                     63
                      A                      A                      A
 Frequencies --   1330.9626              1332.8642              1333.3102
 Red. masses --      1.4310                 1.2176                 1.1440
 Frc consts  --      1.4936                 1.2745                 1.1983
 IR Inten    --      1.5305                 7.5375                 2.6935

                     64                     65                     66
                      A                      A                      A
 Frequencies --   1352.1686              1361.0486              1376.5486
 Red. masses --      2.0106                 7.4899                 1.4133
 Frc consts  --      2.1659                 8.1747                 1.5779
 IR Inten    --     27.7282                13.1632                 2.1129

                     67                     68                     69
                      A                      A                      A
 Frequencies --   1396.7155              1413.1098              1415.3701
 Red. masses --      1.5704                 1.2364                 1.2908
 Frc consts  --      1.8050                 1.4547                 1.5235
 IR Inten    --      1.0497                 1.8375                25.7833

                     70                     71                     72
                      A                      A                      A
 Frequencies --   1469.5504              1473.5536              1483.0893
 Red. masses --      1.0899                 1.0587                 2.3028
 Frc consts  --      1.3868                 1.3545                 2.9843
 IR Inten    --      4.3194                 4.8887                 0.2768

                     73                     74                     75
                      A                      A                      A
 Frequencies --   1486.8885              1489.4087              1497.3112
 Red. masses --      1.0722                 1.0810                 1.0852
 Frc consts  --      1.3966                 1.4128                 1.4334
 IR Inten    --      0.2424                 2.2238                 1.6166

                     76                     77                     78
                      A                      A                      A
 Frequencies --   1499.7899              1504.9989              1509.0895
 Red. masses --      1.0397                 1.1363                 2.3049
 Frc consts  --      1.3780                 1.5164                 3.0927
 IR Inten    --      7.8995                 2.0200                 4.3225

                     79                     80                     81
                      A                      A                      A
 Frequencies --   1512.9913              1616.4279              1628.7850
 Red. masses --      1.1030                 6.8374                 5.8913
 Frc consts  --      1.4877                10.5257                 9.2085
 IR Inten    --     12.2137                 3.1381                68.6650

                     82                     83                     84
                      A                      A                      A
 Frequencies --   1660.1537              1707.7309              1712.6122
 Red. masses --      7.8653                11.9559                12.1337
 Frc consts  --     12.7721                20.5434                20.9682
 IR Inten    --     56.1820                15.1527               385.0168

                     85                     86                     87
                      A                      A                      A
 Frequencies --   2993.8918              3005.3977              3011.9260
 Red. masses --      1.0590                 1.0599                 1.0779
 Frc consts  --      5.5927                 5.6407                 5.7612
 IR Inten    --     10.4962                17.5378                19.3959

                     88                     89                     90
                      A                      A                      A
 Frequencies --   3017.3959              3019.7451              3037.2755
 Red. masses --      1.0413                 1.0761                 1.1006
 Frc consts  --      5.5856                 5.7814                 5.9818
 IR Inten    --     31.8165                38.1385                10.4307

                     91                     92                     93
                      A                      A                      A
 Frequencies --   3040.8299              3053.2118              3059.1316
 Red. masses --      1.0417                 1.0737                 1.0880
 Frc consts  --      5.6754                 5.8974                 5.9988
 IR Inten    --      8.1127                20.0820                35.3532

                     94                     95                     96
                      A                      A                      A
 Frequencies --   3078.5130              3083.3278              3085.8423
 Red. masses --      1.1025                 1.1009                 1.0965
 Frc consts  --      6.1562                 6.1668                 6.1517
 IR Inten    --     62.9244                43.3003                 5.8508

                     97                     98                     99
                      A                      A                      A
 Frequencies --   3096.8136              3148.7983              3169.6014
 Red. masses --      1.1039                 1.0983                 1.0869
 Frc consts  --      6.2375                 6.4159                 6.4338
 IR Inten    --     15.8935                16.0080                 3.3895

                    100                    101                    102
                      A                      A                      A
 Frequencies --   3184.0403              3199.7586              3202.3601
 Red. masses --      1.0918                 1.0925                 1.0949
 Frc consts  --      6.5215                 6.5906                 6.6154
 IR Inten    --     10.4720                 0.6578                10.4669

 - Thermochemistry -
 -------------------
 Temperature   298.150 Kelvin.  Pressure   1.00000 Atm.
 Atom     1 has atomic number  6 and mass  12.00000

 Molecular mass:   242.13068 amu.
 Principal axes and moments of inertia in atomic units:
                           1         2         3
     Eigenvalues --  2205.204878969.77129**********
           X            0.84043   0.05115   0.53950
           Y           -0.48617  -0.36862   0.79231
           Z           -0.23940   0.92817   0.28493
 This molecule is an asymmetric top.
 Rotational symmetry number  1.
 Warning -- assumption of classical behavior for rotation
           may cause significant error
 Rotational temperatures (Kelvin)      0.03928     0.00966     0.00816
 Rotational constants (GHZ):           0.81840     0.20120     0.16992
 Zero-point vibrational energy     789806.7 (Joules/Mol)
                                  188.76834 (Kcal/Mol)
 Warning -- explicit consideration of  25 degrees of freedom as
           vibrations may cause significant error
 Vibrational temperatures:     35.72    45.35    67.36    91.50   104.50
          (Kelvin)            143.88   150.03   168.81   201.11   226.08
                              259.84   350.72   361.26   405.98   477.63
                              499.73   519.09   566.08   584.79   605.85
                              617.11   639.78   682.56   743.09   813.75
                              925.33   973.60   979.98  1014.80  1054.00
                             1056.17  1090.76  1148.22  1162.82  1166.00
                             1234.03  1285.00  1315.56  1325.11  1395.77
                             1425.73  1435.96  1441.04  1462.15  1482.22
                             1506.01  1507.03  1529.33  1542.15  1595.90
                             1617.42  1647.60  1676.07  1704.27  1739.36
                             1774.99  1819.82  1843.23  1862.71  1878.11
                             1914.96  1917.69  1918.34  1945.47  1958.25
                             1980.55  2009.56  2033.15  2036.40  2114.36
                             2120.11  2133.83  2139.30  2142.93  2154.30
                             2157.86  2165.36  2171.24  2176.86  2325.68
                             2343.46  2388.59  2457.04  2464.07  4307.54
                             4324.10  4333.49  4341.36  4344.74  4369.96
                             4375.08  4392.89  4401.41  4429.29  4436.22
                             4439.84  4455.62  4530.42  4560.35  4581.12
                             4603.74  4607.48

 Zero-point correction=                           0.300822 (Hartree/Particle)
 Thermal correction to Energy=                    0.318409
 Thermal correction to Enthalpy=                  0.319353
 Thermal correction to Gibbs Free Energy=         0.253350
 Sum of electronic and zero-point Energies=           -770.914197
 Sum of electronic and thermal Energies=              -770.896609
 Sum of electronic and thermal Enthalpies=            -770.895665
 Sum of electronic and thermal Free Energies=         -770.961668

                     E (Thermal)             CV                S
                      KCal/Mol        Cal/Mol-Kelvin    Cal/Mol-Kelvin
 Total                  199.804             65.618            138.915
 Electronic               0.000              0.000              0.000
 Translational            0.889              2.981             42.354
 Rotational               0.889              2.981             33.707
 Vibrational            198.027             59.657             62.854
 Vibration     1          0.593              1.985              6.205
 Vibration     2          0.594              1.983              5.731
 Vibration     3          0.595              1.979              4.947
 Vibration     4          0.597              1.972              4.342
 Vibration     5          0.599              1.967              4.081
 Vibration     6          0.604              1.949              3.454
 Vibration     7          0.605              1.946              3.373
 Vibration     8          0.608              1.935              3.144
 Vibration     9          0.615              1.914              2.807
 Vibration    10          0.621              1.895              2.584
 Vibration    11          0.630              1.866              2.322
 Vibration    12          0.659              1.773              1.775
 Vibration    13          0.663              1.761              1.723
 Vibration    14          0.681              1.707              1.520
 Vibration    15          0.714              1.612              1.250
 Vibration    16          0.725              1.581              1.178
 Vibration    17          0.735              1.553              1.119
 Vibration    18          0.761              1.484              0.987
 Vibration    19          0.771              1.456              0.939
 Vibration    20          0.784              1.424              0.888
 Vibration    21          0.790              1.407              0.862
 Vibration    22          0.804              1.373              0.812
 Vibration    23          0.831              1.307              0.725
 Vibration    24          0.871              1.214              0.618
 Vibration    25          0.921              1.106              0.513

 Optimization completed.
    -- Stationary point found.
 Normal termination of Gaussian 16 at Wed Dec 27 03:45:32 2023.
