 Q-Chem 5.4, Q-Chem, Inc., Pleasanton, CA (2021)
 Q-Chem 5.4.0 for Intel X86 EM64T Linux

User input:
--------------------------------------------------------------
$molecule
-1 2
C                  4.8887530000     -2.9377560000     -0.3164240000
C                  5.6471980000     -2.0819760000     -1.0765310000
C                  5.1050370000     -0.8614360000     -1.5266880000
C                  3.5574660000     -2.6077410000      0.0243950000
C                  2.9745820000     -1.3759160000     -0.4158350000
C                  3.7996830000     -0.5097740000     -1.2077060000
C                  2.8158070000     -3.5628460000      0.8315890000
C                  1.4548200000     -3.2411290000      1.1887180000
C                  0.8616110000     -2.0154620000      0.7559310000
C                  1.5979160000     -1.0513970000     -0.0539790000
C                  0.6990390000     -4.1533020000      1.9783340000
C                 -0.6118710000     -3.8438430000      2.3224490000
C                 -0.4840980000     -1.7323290000      1.1278810000
C                 -1.1960880000     -2.6460450000      1.9012050000
O                  3.3607910000     -4.6570550000      1.2118260000
O                  1.0273290000      0.0277590000     -0.4160780000
O                  1.2386570000     -5.3219000000      2.4011640000
H                  5.2764580000     -3.8816940000      0.0439350000
H                  6.6698730000     -2.3359130000     -1.3381360000
H                  5.7192470000     -0.2020260000     -2.1240710000
O                  3.2519190000      0.6653260000     -1.6311390000
H                  2.1745170000     -5.3164500000      2.0328250000
O                 -1.0935340000     -0.5867750000      0.7448320000
H                 -2.2185310000     -2.4026420000      2.1685060000
H                 -1.1694400000     -4.5529460000      2.9245610000
H                 -0.3883730000     -0.1034370000      0.2074060000
C                  4.0325410000      1.5430340000     -2.4114240000
H                  3.3888230000      2.3972060000     -2.6232780000
H                  4.3453530000      1.0836090000     -3.3582770000
H                  4.9247800000      1.8886870000     -1.8730090000
$end

$rem
BASIS  =  6-311++G(d,p)
GUI  =  2
JOB_TYPE  =  SP
METHOD  =  B3LYP
SCF_CONVERGENCE  = 8
SOLVENT_METHOD = sm12
$end

$smx
solvent dimethylformamide
charges CM5
$end

--------------------------------------------------------------

             Standard Nuclear Orientation (Angstroms)
    I     Atom           X                Y                Z
 ----------------------------------------------------------------
    1      C       4.8887530000    -2.9377560000    -0.3164240000
    2      C       5.6471980000    -2.0819760000    -1.0765310000
    3      C       5.1050370000    -0.8614360000    -1.5266880000
    4      C       3.5574660000    -2.6077410000     0.0243950000
    5      C       2.9745820000    -1.3759160000    -0.4158350000
    6      C       3.7996830000    -0.5097740000    -1.2077060000
    7      C       2.8158070000    -3.5628460000     0.8315890000
    8      C       1.4548200000    -3.2411290000     1.1887180000
    9      C       0.8616110000    -2.0154620000     0.7559310000
   10      C       1.5979160000    -1.0513970000    -0.0539790000
   11      C       0.6990390000    -4.1533020000     1.9783340000
   12      C      -0.6118710000    -3.8438430000     2.3224490000
   13      C      -0.4840980000    -1.7323290000     1.1278810000
   14      C      -1.1960880000    -2.6460450000     1.9012050000
   15      O       3.3607910000    -4.6570550000     1.2118260000
   16      O       1.0273290000     0.0277590000    -0.4160780000
   17      O       1.2386570000    -5.3219000000     2.4011640000
   18      H       5.2764580000    -3.8816940000     0.0439350000
   19      H       6.6698730000    -2.3359130000    -1.3381360000
   20      H       5.7192470000    -0.2020260000    -2.1240710000
   21      O       3.2519190000     0.6653260000    -1.6311390000
   22      H       2.1745170000    -5.3164500000     2.0328250000
   23      O      -1.0935340000    -0.5867750000     0.7448320000
   24      H      -2.2185310000    -2.4026420000     2.1685060000
   25      H      -1.1694400000    -4.5529460000     2.9245610000
   26      H      -0.3883730000    -0.1034370000     0.2074060000
   27      C       4.0325410000     1.5430340000    -2.4114240000
   28      H       3.3888230000     2.3972060000    -2.6232780000
   29      H       4.3453530000     1.0836090000    -3.3582770000
   30      H       4.9247800000     1.8886870000    -1.8730090000
 ----------------------------------------------------------------

   18    -954.0858894333      4.88e-09  Convergence criterion met
 Total energy in the final basis set =     -954.1766080279

                    Orbital Energies (a.u.)
 --------------------------------------------------------------

 Alpha MOs
 -- Occupied --
-19.1511 -19.1290 -19.1267 -19.0899 -19.0882 -10.2463 -10.2413 -10.2347
-10.2337 -10.2336 -10.2160 -10.1874 -10.1845 -10.1826 -10.1820 -10.1812
-10.1762 -10.1762 -10.1755 -10.1705  -1.0709  -1.0528  -1.0513  -1.0067
 -1.0050  -0.8669  -0.8504  -0.7957  -0.7656  -0.7520  -0.7375  -0.7006
 -0.6800  -0.6430  -0.6394  -0.5974  -0.5751  -0.5522  -0.5377  -0.5223
 -0.5107  -0.4970  -0.4880  -0.4736  -0.4679  -0.4582  -0.4412  -0.4410
 -0.4289  -0.4250  -0.4121  -0.4073  -0.4041  -0.4037  -0.4005  -0.3783
 -0.3712  -0.3710  -0.3616  -0.3603  -0.3493  -0.3324  -0.3225  -0.3078
 -0.2759  -0.2594  -0.2591  -0.2432  -0.2376  -0.2143  -0.1470

 Beta MOs
 -- Occupied --
-19.1511 -19.1284 -19.1262 -19.0849 -19.0834 -10.2464 -10.2398 -10.2334
-10.2329 -10.2326 -10.2160 -10.1868 -10.1837 -10.1821 -10.1818 -10.1813
-10.1753 -10.1753 -10.1743 -10.1703  -1.0708  -1.0508  -1.0494  -0.9991
 -0.9970  -0.8644  -0.8489  -0.7917  -0.7639  -0.7502  -0.7347  -0.6996
 -0.6736  -0.6408  -0.6374  -0.5963  -0.5739  -0.5500  -0.5366  -0.5209
 -0.5096  -0.4950  -0.4870  -0.4722  -0.4671  -0.4570  -0.4396  -0.4332
 -0.4271  -0.4212  -0.4112  -0.4057  -0.4024  -0.3948  -0.3937  -0.3774
 -0.3704  -0.3589  -0.3579  -0.3508  -0.3477  -0.3320  -0.3177  -0.3008
 -0.2580  -0.2550  -0.2545  -0.2394  -0.2300  -0.2045

          Ground-State Mulliken Net Atomic Charges

     Atom                 Charge (a.u.)    Spin (a.u.)
  --------------------------------------------------------
      1 C                    -0.234869       0.046331
      2 C                     0.955241       0.035157
      3 C                     1.984374       0.071962
      4 C                    -1.708911       0.014954
      5 C                     0.283476       0.034968
      6 C                     0.400802       0.014780
      7 C                    -1.845247       0.115088
      8 C                    -1.191081      -0.027467
      9 C                     0.103592       0.023333
     10 C                    -1.181322       0.071629
     11 C                    -0.796321       0.058823
     12 C                     0.855830       0.051851
     13 C                    -0.747228       0.034771
     14 C                     0.651285       0.086506
     15 O                    -0.360804       0.183319
     16 O                    -0.362260       0.176950
     17 O                    -0.322467       0.019479
     18 H                     0.154809      -0.001859
     19 H                     0.363366      -0.002750
     20 H                     0.380960      -0.004397
     21 O                    -0.116411       0.001367
     22 H                     0.336409      -0.004079
     23 O                    -0.336914       0.014792
     24 H                     0.271559      -0.007328
     25 H                     0.281184      -0.005001
     26 H                     0.374709      -0.003353
     27 C                     0.078185      -0.000303
     28 H                     0.267400      -0.000096
     29 H                     0.230295       0.000287
     30 H                     0.230360       0.000289
  --------------------------------------------------------
  Sum of atomic charges =    -1.000000

                    Cartesian Multipole Moments
 -----------------------------------------------------------------
    Charge (ESU x 10^10)
                -4.8032
    Dipole Moment (Debye)
         X      -5.3204      Y      14.0075      Z      -5.5144
       Tot      15.9664
    Quadrupole Moments (Debye-Ang)
        XX    -133.8016     XY      33.4331     YY    -178.9356
        XZ     -13.5809     YZ      17.7023     ZZ    -126.4951

 Total job time:  951.90s(wall), 7354.00s(cpu)
        *  Thank you very much for using Q-Chem.  Have a nice day.  *
