 Q-Chem 5.4, Q-Chem, Inc., Pleasanton, CA (2021)
 Q-Chem 5.4.0 for Intel X86 EM64T Linux

User input:
--------------------------------------------------------------
$molecule
-1 1
O                  1.4983470000     -2.8670080000     -0.5590800000
C                  1.4725140000     -1.5447820000     -0.2861230000
C                  2.7329620000     -0.9076580000     -0.1318490000
O                  3.7978400000     -1.7116470000     -0.2826880000
C                  2.8059870000      0.4577190000      0.1402610000
C                  1.6290260000      1.1914760000      0.2613850000
C                  0.3848400000      0.5847150000      0.1216170000
C                 -0.8146170000      1.4355020000      0.2661490000
O                 -0.7495820000      2.6361400000      0.5035140000
C                 -2.1495590000      0.7790120000      0.1091800000
C                 -3.3094450000      1.5522400000      0.2336950000
C                 -4.5602640000      0.9656840000      0.0918280000
C                 -4.6633210000     -0.4032930000     -0.1768170000
C                 -3.5156850000     -1.1758850000     -0.3016090000
C                 -2.2515900000     -0.5921110000     -0.1603130000
C                 -1.0356100000     -1.4654930000     -0.3027790000
O                 -1.1829500000     -2.6579960000     -0.5305680000
C                  0.2844270000     -0.8146310000     -0.1557700000
S                  4.4275750000      1.2617980000      0.4019390000
O                  5.3760950000      0.2222700000     -0.1618830000
O                  4.3970590000      2.5070530000     -0.3798850000
O                  4.5555890000      1.4226170000      1.8609430000
H                  2.4388900000     -3.1065240000     -0.6069070000
H                  4.6192110000     -1.1014690000     -0.2512000000
H                  1.6737890000      2.2541740000      0.4620700000
H                 -3.1979010000      2.6092960000      0.4422470000
H                 -5.4565810000      1.5690790000      0.1892840000
H                 -5.6399630000     -0.8625560000     -0.2877380000
H                 -3.5670830000     -2.2377190000     -0.5089030000
$end
$rem
MAX_SCF_CYCLES=200
BASIS  =  6-311++G(d,p)
GUI  =  2
JOB_TYPE  =  SP
METHOD  =  B3LYP
SOLVENT_METHOD = COSMO
$end
$solvent
dielectric 37.219
opticaldielectric 1.43
$end

--------------------------------------------------------------

             Standard Nuclear Orientation (Angstroms)
    I     Atom           X                Y                Z
 ----------------------------------------------------------------
    1      O      -0.4321787453    -3.0836519404     0.0159377961
    2      C      -0.5375451537    -1.7374175344     0.0136340774
    3      C      -1.8558109006    -1.2077268503     0.0213683429
    4      O      -2.8363032527    -2.1251150031     0.0335992632
    5      C      -2.0633939172     0.1708404345     0.0309801746
    6      C      -0.9637595480     1.0247208757     0.0309993277
    7      C       0.3349589369     0.5259377240     0.0155567914
    8      C       1.4454080204     1.5007853752     0.0156137646
    9      O       1.2621371053     2.7125642445     0.0259600317
   10      C       2.8396571961     0.9588988788     0.0048067616
   11      C       3.9185957486     1.8502950873     0.0098523175
   12      C       5.2221828150     1.3714495392     0.0003623767
   13      C       5.4598216031    -0.0070306190    -0.0141002543
   14      C       4.3930262291    -0.8966726803    -0.0190462725
   15      C       3.0765054142    -0.4219417829    -0.0092314660
   16      C       1.9515643411    -1.4200244387    -0.0154470680
   17      O       2.2155785869    -2.6139895529    -0.0355491383
   18      C       0.5730845837    -0.8841506439     0.0036187408
   19      S      -3.7606985653     0.8495816256    -0.0240959774
   20      O      -4.5862766491    -0.3679159356     0.3424069788
   21      O      -3.8087490458     1.9126714200     0.9909760637
   22      O      -3.9658074673     1.2824601057    -1.4174694258
   23      H      -1.3443293586    -3.4179964303     0.0376516536
   24      H      -3.7099436690    -1.6033820271     0.1454300746
   25      H      -1.1128308885     2.0966615602     0.0490586463
   26      H       3.7032463607     2.9118082579     0.0207066938
   27      H       6.0553634449     2.0662606147     0.0042314387
   28      H       6.4777868902    -0.3821915293    -0.0216191135
   29      H       4.5489077978    -1.9684333530    -0.0306219973
 ----------------------------------------------------------------

    9   -1462.8544765861      7.94e-06  Convergence criterion met
 Total energy in the final basis set =    -1462.8544765861
    5   -1462.9452838011      5.22e-06  Convergence criterion met
 Total energy in the final basis set =    -1462.9452838011

                    Orbital Energies (a.u.)
 --------------------------------------------------------------

 Alpha MOs
 -- Occupied --
-89.0736 -19.1729 -19.1644 -19.1254 -19.1245 -19.1203 -19.1170 -19.1157
-10.2820 -10.2788 -10.2698 -10.2680 -10.2207 -10.2124 -10.2066 -10.2032
-10.2026 -10.2024 -10.1927 -10.1922 -10.1913 -10.1910  -8.1323  -6.0952
 -6.0948  -6.0941  -1.1394  -1.1044  -1.0705  -1.0596  -1.0580  -1.0048
 -0.9998  -0.8915  -0.8788  -0.8133  -0.7799  -0.7721  -0.7662  -0.7019
 -0.6756  -0.6584  -0.6238  -0.6214  -0.6008  -0.5864  -0.5626  -0.5352
 -0.5232  -0.5189  -0.5025  -0.4915  -0.4825  -0.4792  -0.4664  -0.4602
 -0.4549  -0.4506  -0.4485  -0.4439  -0.4396  -0.4219  -0.4169  -0.4046
 -0.3941  -0.3906  -0.3777  -0.3770  -0.3641  -0.3628  -0.3600  -0.3523
 -0.3266  -0.3261  -0.3145  -0.2843  -0.2830  -0.2824  -0.2735  -0.2697
 -0.2676  -0.2403

          Ground-State Mulliken Net Atomic Charges

     Atom                 Charge (a.u.)
  ----------------------------------------
      1 O                    -0.252831
      2 C                    -0.211079
      3 C                    -0.450576
      4 O                    -0.462144
      5 C                    -0.260947
      6 C                    -0.245005
      7 C                     0.628446
      8 C                    -0.602237
      9 O                    -0.308019
     10 C                     0.347509
     11 C                     0.122344
     12 C                    -0.508987
     13 C                    -0.538900
     14 C                     0.171273
     15 C                    -0.000679
     16 C                    -0.392133
     17 O                    -0.307814
     18 C                     0.557552
     19 S                     0.941308
     20 O                    -0.492890
     21 O                    -0.326655
     22 O                    -0.285964
     23 H                     0.343482
     24 H                     0.488020
     25 H                     0.205757
     26 H                     0.193341
     27 H                     0.226281
     28 H                     0.225014
     29 H                     0.196531
  ----------------------------------------
  Sum of atomic charges =    -1.000001

                    Cartesian Multipole Moments
 -----------------------------------------------------------------
    Charge (ESU x 10^10)
                -4.8032
    Dipole Moment (Debye)
         X      16.8741      Y      -3.6489      Z       0.4079
       Tot      17.2689
    Quadrupole Moments (Debye-Ang)
        XX    -184.8829     XY      28.7013     YY    -164.0376
        XZ      -1.2319     YZ      -0.5633     ZZ    -143.4794

 Total job time:  107.47s(wall), 598.90s(cpu)
        *  Thank you very much for using Q-Chem.  Have a nice day.  *
