 Gaussian 16, Revision A.03,
 Gaussian 16:  ES64L-G16RevA.03 25-Dec-2016

 --------------------------------------
 #P UB3LYP/6-311++G(d,p) nosym opt freq
 --------------------------------------

 --------
 Oxidized
 --------
 Symbolic Z-matrix:
 Charge = -1 Multiplicity = 1

 SCF Done:  E(UB3LYP) =  -1462.85453353     A.U. after   17 cycles
 Optimization completed.
    -- Stationary point found.
 Normal termination of Gaussian 16 at Sun Jan  7 05:08:33 2024.

 ----------------------------------------------------------------------
 #P Geom=AllCheck Guess=TCheck SCRF=Check GenChk UB3LYP/6-311++G(d,p) F
 req
 ----------------------------------------------------------------------

 Structure from the checkpoint file:  "190.chk"
 --------
 Oxidized
 --------
 Charge = -1 Multiplicity = 1

                          Input orientation:
 ---------------------------------------------------------------------
 Center     Atomic      Atomic             Coordinates (Angstroms)
 Number     Number       Type             X           Y           Z
 ---------------------------------------------------------------------
      1          8           0        1.498347   -2.867008   -0.559080
      2          6           0        1.472514   -1.544782   -0.286123
      3          6           0        2.732962   -0.907658   -0.131849
      4          8           0        3.797840   -1.711647   -0.282688
      5          6           0        2.805987    0.457719    0.140261
      6          6           0        1.629026    1.191476    0.261385
      7          6           0        0.384840    0.584715    0.121617
      8          6           0       -0.814617    1.435502    0.266149
      9          8           0       -0.749582    2.636140    0.503514
     10          6           0       -2.149559    0.779012    0.109180
     11          6           0       -3.309445    1.552240    0.233695
     12          6           0       -4.560264    0.965684    0.091828
     13          6           0       -4.663321   -0.403293   -0.176817
     14          6           0       -3.515685   -1.175885   -0.301609
     15          6           0       -2.251590   -0.592111   -0.160313
     16          6           0       -1.035610   -1.465493   -0.302779
     17          8           0       -1.182950   -2.657996   -0.530568
     18          6           0        0.284427   -0.814631   -0.155770
     19         16           0        4.427575    1.261798    0.401939
     20          8           0        5.376095    0.222270   -0.161883
     21          8           0        4.397059    2.507053   -0.379885
     22          8           0        4.555589    1.422617    1.860943
     23          1           0        2.438890   -3.106524   -0.606907
     24          1           0        4.619211   -1.101469   -0.251200
     25          1           0        1.673789    2.254174    0.462070
     26          1           0       -3.197901    2.609296    0.442247
     27          1           0       -5.456581    1.569079    0.189284
     28          1           0       -5.639963   -0.862556   -0.287738
     29          1           0       -3.567083   -2.237719   -0.508903
 ---------------------------------------------------------------------

 SCF Done:  E(UB3LYP) =  -1462.85453353     A.U. after    2 cycles

 Alpha  occ. eigenvalues --  -88.93332 -19.07168 -19.05489 -19.02585 -19.02386
 Alpha  occ. eigenvalues --  -18.98132 -18.97261 -18.97159 -10.18314 -10.17895
 Alpha  occ. eigenvalues --  -10.16389 -10.16036 -10.12140 -10.12085 -10.12047
 Alpha  occ. eigenvalues --  -10.11953 -10.11441 -10.11439 -10.10937 -10.10567
 Alpha  occ. eigenvalues --  -10.10222 -10.09388  -7.99178  -5.95458  -5.95408
 Alpha  occ. eigenvalues --   -5.95388  -1.00384  -0.99418  -0.96345  -0.95818
 Alpha  occ. eigenvalues --   -0.95676  -0.85995  -0.85784  -0.80479  -0.78059
 Alpha  occ. eigenvalues --   -0.71938  -0.69368  -0.68126  -0.66627  -0.59933
 Alpha  occ. eigenvalues --   -0.58031  -0.56542  -0.53045  -0.51046  -0.49920
 Alpha  occ. eigenvalues --   -0.48960  -0.46448  -0.43621  -0.42214  -0.41129
 Alpha  occ. eigenvalues --   -0.40328  -0.39161  -0.37001  -0.36804  -0.36499
 Alpha  occ. eigenvalues --   -0.36022  -0.35480  -0.34507  -0.34461  -0.34016
 Alpha  occ. eigenvalues --   -0.32776  -0.31692  -0.31467  -0.30331  -0.29655
 Alpha  occ. eigenvalues --   -0.29547  -0.28736  -0.28366  -0.27698  -0.24677
 Alpha  occ. eigenvalues --   -0.21655  -0.21310  -0.19953  -0.19504  -0.19249
 Alpha  occ. eigenvalues --   -0.18716  -0.18392  -0.17998  -0.16654  -0.15397
 Alpha  occ. eigenvalues --   -0.13874  -0.13350
 Alpha virt. eigenvalues --   -0.01750   0.02019   0.05211   0.05603   0.07378
 Alpha virt. eigenvalues --    0.07406   0.08478   0.09229   0.10932   0.11656
 Alpha virt. eigenvalues --    0.11787   0.12806   0.12880   0.13382   0.14076

  Beta  occ. eigenvalues --  -88.93332 -19.07168 -19.05489 -19.02585 -19.02386
  Beta  occ. eigenvalues --  -18.98132 -18.97261 -18.97159 -10.18314 -10.17895
  Beta  occ. eigenvalues --  -10.16389 -10.16036 -10.12140 -10.12085 -10.12047
  Beta  occ. eigenvalues --  -10.11953 -10.11441 -10.11439 -10.10937 -10.10567
  Beta  occ. eigenvalues --  -10.10222 -10.09388  -7.99178  -5.95458  -5.95408
  Beta  occ. eigenvalues --   -5.95388  -1.00384  -0.99418  -0.96345  -0.95818
  Beta  occ. eigenvalues --   -0.95676  -0.85995  -0.85784  -0.80479  -0.78059
  Beta  occ. eigenvalues --   -0.71938  -0.69368  -0.68126  -0.66627  -0.59933
  Beta  occ. eigenvalues --   -0.58031  -0.56542  -0.53045  -0.51046  -0.49920
  Beta  occ. eigenvalues --   -0.48960  -0.46448  -0.43621  -0.42214  -0.41129
  Beta  occ. eigenvalues --   -0.40328  -0.39161  -0.37001  -0.36804  -0.36499
  Beta  occ. eigenvalues --   -0.36022  -0.35480  -0.34507  -0.34461  -0.34016
  Beta  occ. eigenvalues --   -0.32776  -0.31692  -0.31467  -0.30331  -0.29655
  Beta  occ. eigenvalues --   -0.29547  -0.28736  -0.28366  -0.27698  -0.24677
  Beta  occ. eigenvalues --   -0.21655  -0.21310  -0.19953  -0.19504  -0.19249
  Beta  occ. eigenvalues --   -0.18716  -0.18392  -0.17998  -0.16654  -0.15397
  Beta  occ. eigenvalues --   -0.13874  -0.13350
  Beta virt. eigenvalues --   -0.01750   0.02019   0.05211   0.05603   0.07378
  Beta virt. eigenvalues --    0.07406   0.08478   0.09229   0.10932   0.11656
  Beta virt. eigenvalues --    0.11787   0.12806   0.12880   0.13382   0.14076

 Mulliken charges and spin densities:
               1          2
     1  O   -0.203638   0.000000
     2  C   -0.227953   0.000000
     3  C   -0.512935   0.000000
     4  O   -0.443891  -0.000000
     5  C   -0.325412   0.000000
     6  C   -0.259203  -0.000000
     7  C    0.651680   0.000000
     8  C   -0.719544   0.000000
     9  O   -0.233163  -0.000000
    10  C    0.403662   0.000000
    11  C    0.086787  -0.000000
    12  C   -0.419991   0.000000
    13  C   -0.467117  -0.000000
    14  C    0.148369   0.000000
    15  C    0.082472   0.000000
    16  C   -0.525589   0.000000
    17  O   -0.235193  -0.000000
    18  C    0.598517  -0.000000
    19  S    0.839473   0.000000
    20  O   -0.412645  -0.000000
    21  O   -0.230033   0.000000
    22  O   -0.186795   0.000000
    23  H    0.296492   0.000000
    24  H    0.446580  -0.000000
    25  H    0.201306  -0.000000
    26  H    0.169814  -0.000000
    27  H    0.154544   0.000000
    28  H    0.152936  -0.000000
    29  H    0.170469  -0.000000
 Sum of Mulliken charges =  -1.00000  -0.00000

 Dipole moment (field-independent basis, Debye):
    X=            -15.7161    Y=             -4.2496    Z=             -1.6004  Tot=             16.3590
 Quadrupole moment (field-independent basis, Debye-Ang):
   XX=           -211.6249   YY=           -166.6660   ZZ=           -144.3342
   XY=            -28.2287   XZ=             -8.7968   YZ=             -5.2278

  Exact polarizability: 343.358  -1.996 228.922   5.415  23.153 117.891
 Approx polarizability: 477.794 -22.640 447.010   2.689  50.356 198.697

                      1                      2                      3
                      A                      A                      A
 Frequencies --     25.9114                28.5360                53.5072
 Red. masses --     10.4859                10.0018                10.6332
 Frc consts  --      0.0041                 0.0048                 0.0179
 IR Inten    --      1.3948                 0.0602                 2.7719

                      4                      5                      6
                      A                      A                      A
 Frequencies --    100.6741               114.0828               120.2329
 Red. masses --      8.3068                 5.4942                10.5355
 Frc consts  --      0.0496                 0.0421                 0.0897
 IR Inten    --      2.3314                 0.0499                 1.3607

                      7                      8                      9
                      A                      A                      A
 Frequencies --    125.8754               175.0565               202.1704
 Red. masses --     10.6321                 7.3845                 8.7776
 Frc consts  --      0.0993                 0.1333                 0.2114
 IR Inten    --      1.7633                 0.2894                 1.5207

                     10                     11                     12
                      A                      A                      A
 Frequencies --    228.9559               265.7312               290.8911
 Red. masses --      8.8328                 8.3420                 9.1558
 Frc consts  --      0.2728                 0.3471                 0.4565
 IR Inten    --      1.3688                19.9186                 5.1139

                     13                     14                     15
                      A                      A                      A
 Frequencies --    297.0599               303.7796               358.5521
 Red. masses --      6.8913                 6.2689                10.9454
 Frc consts  --      0.3583                 0.3408                 0.8291
 IR Inten    --      0.8286                 2.1618                 2.6205

                     16                     17                     18
                      A                      A                      A
 Frequencies --    378.8976               392.0388               404.7056
 Red. masses --      9.0386                11.2255                 6.2122
 Frc consts  --      0.7645                 1.0165                 0.5995
 IR Inten    --      1.2841                18.7192                 3.1572

                     19                     20                     21
                      A                      A                      A
 Frequencies --    432.5909               435.5695               457.1369
 Red. masses --      3.9472                 8.7865                 5.0572
 Frc consts  --      0.4352                 0.9822                 0.6227
 IR Inten    --      1.2411                 5.2352                 1.4158

                     22                     23                     24
                      A                      A                      A
 Frequencies --    469.6649               486.9571               502.5481
 Red. masses --     12.4561                12.1203                 8.8749
 Frc consts  --      1.6189                 1.6933                 1.3206
 IR Inten    --      0.9987                 8.1805                 5.0528

                     25                     26                     27
                      A                      A                      A
 Frequencies --    520.6063               564.3112               573.1680
 Red. masses --     13.1990                 1.2536                 4.8780
 Frc consts  --      2.1077                 0.2352                 0.9442
 IR Inten    --      9.4139                71.6735                 1.7996

                     28                     29                     30
                      A                      A                      A
 Frequencies --    588.1896               602.8841               635.3312
 Red. masses --      9.1335                 4.8461                11.3684
 Frc consts  --      1.8618                 1.0378                 2.7036
 IR Inten    --     81.5143                35.0393               178.3343

                     31                     32                     33
                      A                      A                      A
 Frequencies --    662.2559               678.9715               694.3186
 Red. masses --      7.1110                 6.6165                 5.7833
 Frc consts  --      1.8375                 1.7971                 1.6426
 IR Inten    --      0.6070                18.5674                 0.1088

                     34                     35                     36
                      A                      A                      A
 Frequencies --    729.9995               733.0992               742.4649
 Red. masses --      2.8226                 6.1449                 4.0483
 Frc consts  --      0.8862                 1.9458                 1.3148
 IR Inten    --     57.8684                29.2521                17.5241

                     37                     38                     39
                      A                      A                      A
 Frequencies --    781.9533               797.3748               812.5120
 Red. masses --      8.1693                 4.1360                 2.5522
 Frc consts  --      2.9430                 1.5494                 0.9927
 IR Inten    --     47.3957                 3.0231                 5.5710

                     40                     41                     42
                      A                      A                      A
 Frequencies --    866.6054               908.4780               915.1797
 Red. masses --      7.3425                 1.3955                 5.0420
 Frc consts  --      3.2489                 0.6786                 2.4881
 IR Inten    --     25.9673                 0.0338                 9.2561

                     43                     44                     45
                      A                      A                      A
 Frequencies --    925.0092               942.9482               950.9972
 Red. masses --      1.4854                 2.1347                 2.0096
 Frc consts  --      0.7489                 1.1183                 1.0708
 IR Inten    --      3.6373               152.2074               113.6545

                     46                     47                     48
                      A                      A                      A
 Frequencies --    996.8623              1005.7000              1036.9296
 Red. masses --      1.3803                 1.2973                 4.6134
 Frc consts  --      0.8081                 0.7731                 2.9226
 IR Inten    --      2.3482                 0.0052                52.6462

                     49                     50                     51
                      A                      A                      A
 Frequencies --   1062.3475              1071.8237              1111.2442
 Red. masses --      2.2256                 5.5656                 2.5089
 Frc consts  --      1.4799                 3.7671                 1.8254
 IR Inten    --     30.5120                16.8640                89.3332

                     52                     53                     54
                      A                      A                      A
 Frequencies --   1115.7783              1173.2716              1196.0200
 Red. masses --      6.0088                 1.1788                 1.9573
 Frc consts  --      4.4075                 0.9561                 1.6497
 IR Inten    --    197.1252                 5.0498                34.3834

                     55                     56                     57
                      A                      A                      A
 Frequencies --   1212.6912              1224.3660              1250.3915
 Red. masses --      2.3585                17.9568                 2.2333
 Frc consts  --      2.0436                15.8599                 2.0572
 IR Inten    --     13.3315               291.3192               113.7909

                     58                     59                     60
                      A                      A                      A
 Frequencies --   1278.1083              1301.4206              1320.5637
 Red. masses --      2.0861                 8.1789                 3.1945
 Frc consts  --      2.0078                 8.1617                 3.2823
 IR Inten    --     57.7720               799.0734               120.8452

                     61                     62                     63
                      A                      A                      A
 Frequencies --   1332.0472              1353.5388              1369.0699
 Red. masses --      4.5222                 7.7913                 2.7262
 Frc consts  --      4.7276                 8.4101                 3.0107
 IR Inten    --    158.8250                26.0474                58.0841

                     64                     65                     66
                      A                      A                      A
 Frequencies --   1467.4387              1478.1098              1493.3200
 Red. masses --      5.5614                 2.5173                 2.2377
 Frc consts  --      7.0560                 3.2405                 2.9401
 IR Inten    --    323.0271                51.9206                21.4705

                     67                     68                     69
                      A                      A                      A
 Frequencies --   1501.4449              1515.8253              1591.4042
 Red. masses --      2.6242                 2.6582                 4.9242
 Frc consts  --      3.4855                 3.5987                 7.3476
 IR Inten    --     29.1167               119.8876               295.8498

                     70                     71                     72
                      A                      A                      A
 Frequencies --   1614.2644              1616.8181              1632.1307
 Red. masses --      5.0628                 4.4432                 5.8711
 Frc consts  --      7.7730                 6.8433                 9.2146
 IR Inten    --     12.3493                16.7474                25.9495

                     73                     74                     75
                      A                      A                      A
 Frequencies --   1698.4427              1713.5160              2718.7563
 Red. masses --     11.7150                11.6769                 1.0764
 Frc consts  --     19.9110                20.2001                 4.6877
 IR Inten    --     64.1807               310.6106              1358.8362

                     76                     77                     78
                      A                      A                      A
 Frequencies --   3155.5082              3172.4009              3195.3016
 Red. masses --      1.0861                 1.0923                 1.0918
 Frc consts  --      6.3720                 6.4766                 6.5680
 IR Inten    --      7.1668                31.4354                 2.0455

                     79                     80                     81
                      A                      A                      A
 Frequencies --   3197.5311              3207.7149              3687.0330
 Red. masses --      1.0935                 1.0903                 1.0645
 Frc consts  --      6.5872                 6.6096                 8.5264
 IR Inten    --     19.5168                 3.6723               134.9711

 - Thermochemistry -
 -------------------
 Temperature   298.150 Kelvin.  Pressure   1.00000 Atm.
 Atom     1 has atomic number  8 and mass  15.99491

 Molecular mass:   318.99125 amu.
 Principal axes and moments of inertia in atomic units:
                           1         2         3
     Eigenvalues --  3084.84786********************
           X            0.99411  -0.10551  -0.02473
           Y            0.09845   0.97468  -0.20076
           Z            0.04528   0.19715   0.97933
 This molecule is an asymmetric top.
 Rotational symmetry number  1.
 Warning -- assumption of classical behavior for rotation
           may cause significant error
 Rotational temperatures (Kelvin)      0.02808     0.00762     0.00615
 Rotational constants (GHZ):           0.58503     0.15881     0.12806
 Zero-point vibrational energy     498525.3 (Joules/Mol)
                                  119.15040 (Kcal/Mol)
 Warning -- explicit consideration of  29 degrees of freedom as
           vibrations may cause significant error
 Vibrational temperatures:     37.28    41.06    76.98   144.85   164.14
          (Kelvin)            172.99   181.11   251.87   290.88   329.42
                              382.33   418.53   427.40   437.07   515.88
                              545.15   564.06   582.28   622.40   626.69
                              657.72   675.74   700.62   723.05   749.04
                              811.92   824.66   846.27   867.42   914.10
                              952.84   976.89   998.97  1050.31  1054.77
                             1068.24  1125.06  1147.24  1169.02  1246.85
                             1307.10  1316.74  1330.88  1356.69  1368.27
                             1434.26  1446.98  1491.91  1528.48  1542.12
                             1598.83  1605.36  1688.08  1720.81  1744.79
                             1761.59  1799.03  1838.91  1872.45  1900.00
                             1916.52  1947.44  1969.79  2111.32  2126.67
                             2148.55  2160.24  2180.93  2289.68  2322.57
                             2326.24  2348.27  2443.68  2465.37  3911.68
                             4540.07  4564.38  4597.33  4600.53  4615.19
                             5304.82

 Zero-point correction=                           0.189878 (Hartree/Particle)
 Thermal correction to Energy=                    0.206991
 Thermal correction to Enthalpy=                  0.207935
 Thermal correction to Gibbs Free Energy=         0.143656
 Sum of electronic and zero-point Energies=          -1462.664655
 Sum of electronic and thermal Energies=             -1462.647543
 Sum of electronic and thermal Enthalpies=           -1462.646599
 Sum of electronic and thermal Free Energies=        -1462.710877

                     E (Thermal)             CV                S
                      KCal/Mol        Cal/Mol-Kelvin    Cal/Mol-Kelvin
 Total                  129.889             66.818            135.286
 Electronic               0.000              0.000              0.000
 Translational            0.889              2.981             43.176
 Rotational               0.889              2.981             34.557
 Vibrational            128.111             60.857             57.554
 Vibration     1          0.593              1.985              6.120
 Vibration     2          0.593              1.984              5.929
 Vibration     3          0.596              1.976              4.683
 Vibration     4          0.604              1.949              3.441
 Vibration     5          0.607              1.938              3.198
 Vibration     6          0.609              1.932              3.097
 Vibration     7          0.611              1.927              3.008
 Vibration     8          0.627              1.873              2.380
 Vibration     9          0.639              1.837              2.113
 Vibration    10          0.652              1.797              1.887
 Vibration    11          0.672              1.736              1.624
 Vibration    12          0.687              1.691              1.469
 Vibration    13          0.691              1.679              1.433
 Vibration    14          0.695              1.667              1.396
 Vibration    15          0.733              1.558              1.128
 Vibration    16          0.749              1.515              1.044
 Vibration    17          0.759              1.487              0.992
 Vibration    18          0.770              1.460              0.946
 Vibration    19          0.793              1.399              0.850
 Vibration    20          0.796              1.393              0.841
 Vibration    21          0.815              1.345              0.774
 Vibration    22          0.827              1.317              0.738
 Vibration    23          0.843              1.279              0.692
 Vibration    24          0.858              1.244              0.652
 Vibration    25          0.876              1.204              0.609
 Vibration    26          0.920              1.108              0.515
 Vibration    27          0.929              1.089              0.498
 Vibration    28          0.945              1.057              0.470
 Vibration    29          0.961              1.026              0.445

 Optimization completed.
    -- Stationary point found.
 Normal termination of Gaussian 16 at Sun Jan  7 06:58:15 2024.
