 Q-Chem 5.4, Q-Chem, Inc., Pleasanton, CA (2021)
 Q-Chem 5.4.0 for Intel X86 EM64T Linux

User input:
--------------------------------------------------------------
$molecule
-1 2
C                 -1.4704310000     -2.0665090000      1.4067880000
C                 -2.0502990000     -2.0607710000      0.0810280000
C                 -1.7899960000     -1.0812280000     -0.8272650000
C                 -0.9012350000      0.0253020000     -0.5450460000
C                 -0.2791430000      0.0358400000      0.7847980000
C                 -0.5813740000     -0.9441830000      1.7316860000
O                 -1.7414680000     -2.9853950000      2.2276260000
O                 -0.6743140000      0.9109370000     -1.4143810000
H                 -2.2370290000     -1.0904850000     -1.8173730000
C                  0.5201770000     -1.9926810000      3.7434950000
C                 -0.2471880000      0.2773900000      3.9090980000
C                  0.9708960000     -1.9347700000      5.0599390000
C                  0.8125350000     -0.7701990000      5.8120110000
C                  0.1945620000      0.3354210000      5.2288930000
H                 -2.7175470000     -2.8866930000     -0.1489010000
H                  0.6230190000     -2.9082420000      3.1765820000
H                 -0.7274730000      1.1421020000      3.4666780000
H                  1.4406400000     -2.8073600000      5.5037770000
H                  1.1596680000     -0.7276330000      6.8396250000
H                  0.0545660000      1.2467320000      5.8020660000
C                  0.7302940000      1.1024870000      1.0325430000
C                  0.4434380000      2.4520380000      0.7707140000
C                  2.0187990000      0.7880580000      1.4910550000
C                  1.3945350000      3.4453700000      0.9903380000
C                  2.9751040000      1.7784440000      1.7031460000
C                  2.6668520000      3.1162590000      1.4591800000
H                 -0.5315170000      2.7135100000      0.3817250000
H                  2.2699120000     -0.2484650000      1.6825670000
H                  1.1432330000      4.4817190000      0.7856570000
H                  3.9629960000      1.5030270000      2.0592770000
H                  3.4091270000      3.8906740000      1.6253590000
C                 -0.0841800000     -0.8811420000      3.1341370000
$end
$rem
MAX_SCF_CYCLES=200
BASIS  =  6-311++G(d,p)
GUI  =  2
JOB_TYPE  =  SP
METHOD  =  B3LYP
SOLVENT_METHOD = PCM
$end
$pcm
theory = CPCM
$end
$solvent
dielectric 37.219
opticaldielectric 1.43
$end

--------------------------------------------------------------

             Standard Nuclear Orientation (Angstroms)
    I     Atom           X                Y                Z
 ----------------------------------------------------------------
    1      C      -1.4704310000    -2.0665090000     1.4067880000
    2      C      -2.0502990000    -2.0607710000     0.0810280000
    3      C      -1.7899960000    -1.0812280000    -0.8272650000
    4      C      -0.9012350000     0.0253020000    -0.5450460000
    5      C      -0.2791430000     0.0358400000     0.7847980000
    6      C      -0.5813740000    -0.9441830000     1.7316860000
    7      O      -1.7414680000    -2.9853950000     2.2276260000
    8      O      -0.6743140000     0.9109370000    -1.4143810000
    9      H      -2.2370290000    -1.0904850000    -1.8173730000
   10      C       0.5201770000    -1.9926810000     3.7434950000
   11      C      -0.2471880000     0.2773900000     3.9090980000
   12      C       0.9708960000    -1.9347700000     5.0599390000
   13      C       0.8125350000    -0.7701990000     5.8120110000
   14      C       0.1945620000     0.3354210000     5.2288930000
   15      H      -2.7175470000    -2.8866930000    -0.1489010000
   16      H       0.6230190000    -2.9082420000     3.1765820000
   17      H      -0.7274730000     1.1421020000     3.4666780000
   18      H       1.4406400000    -2.8073600000     5.5037770000
   19      H       1.1596680000    -0.7276330000     6.8396250000
   20      H       0.0545660000     1.2467320000     5.8020660000
   21      C       0.7302940000     1.1024870000     1.0325430000
   22      C       0.4434380000     2.4520380000     0.7707140000
   23      C       2.0187990000     0.7880580000     1.4910550000
   24      C       1.3945350000     3.4453700000     0.9903380000
   25      C       2.9751040000     1.7784440000     1.7031460000
   26      C       2.6668520000     3.1162590000     1.4591800000
   27      H      -0.5315170000     2.7135100000     0.3817250000
   28      H       2.2699120000    -0.2484650000     1.6825670000
   29      H       1.1432330000     4.4817190000     0.7856570000
   30      H       3.9629960000     1.5030270000     2.0592770000
   31      H       3.4091270000     3.8906740000     1.6253590000
   32      C      -0.0841800000    -0.8811420000     3.1341370000
 ----------------------------------------------------------------

    8    -843.9443800093      6.54e-06  Convergence criterion met
 Total energy in the final basis set =     -843.9443800093

                    Orbital Energies (a.u.)
 --------------------------------------------------------------

 Alpha MOs
 -- Occupied --
-19.0787 -19.0786 -10.2238 -10.2238 -10.1812 -10.1812 -10.1793 -10.1788
-10.1711 -10.1711 -10.1706 -10.1706 -10.1701 -10.1701 -10.1697 -10.1697
-10.1683 -10.1683 -10.1639 -10.1632  -1.0039  -1.0014  -0.8646  -0.8538
 -0.8240  -0.7779  -0.7568  -0.7438  -0.7433  -0.7136  -0.6799  -0.6279
 -0.6087  -0.6013  -0.5997  -0.5697  -0.5566  -0.5112  -0.5098  -0.4824
 -0.4714  -0.4595  -0.4541  -0.4458  -0.4402  -0.4324  -0.4185  -0.4169
 -0.4149  -0.4067  -0.4040  -0.3894  -0.3766  -0.3753  -0.3672  -0.3643
 -0.3458  -0.3417  -0.3413  -0.3394  -0.2867  -0.2736  -0.2666  -0.2552
 -0.2538  -0.2424  -0.2368  -0.2237  -0.1629

 Beta MOs
 -- Occupied --
-19.0721 -19.0721 -10.2223 -10.2223 -10.1813 -10.1813 -10.1781 -10.1776
-10.1710 -10.1710 -10.1706 -10.1706 -10.1701 -10.1701 -10.1696 -10.1696
-10.1682 -10.1682 -10.1628 -10.1621  -0.9924  -0.9897  -0.8636  -0.8535
 -0.8193  -0.7757  -0.7557  -0.7437  -0.7431  -0.7120  -0.6706  -0.6250
 -0.6076  -0.6011  -0.5992  -0.5677  -0.5540  -0.5101  -0.5089  -0.4805
 -0.4685  -0.4583  -0.4527  -0.4451  -0.4390  -0.4300  -0.4175  -0.4167
 -0.4142  -0.4006  -0.3881  -0.3855  -0.3730  -0.3678  -0.3631  -0.3508
 -0.3420  -0.3407  -0.3402  -0.3390  -0.2733  -0.2652  -0.2539  -0.2535
 -0.2517  -0.2372  -0.2313  -0.2181

          Ground-State Mulliken Net Atomic Charges

     Atom                 Charge (a.u.)    Spin (a.u.)
  --------------------------------------------------------
      1 C                    -0.664623       0.102495
      2 C                    -0.132376       0.077189
      3 C                    -0.130797       0.077436
      4 C                    -0.667134       0.102571
      5 C                     0.023896       0.065992
      6 C                     0.031120       0.066195
      7 O                    -0.470066       0.240067
      8 O                    -0.470005       0.240128
      9 H                     0.204220      -0.007191
     10 C                    -0.076750       0.025500
     11 C                    -0.518304       0.008174
     12 C                    -0.318270      -0.002239
     13 C                    -0.388856       0.008901
     14 C                    -0.476440      -0.003810
     15 H                     0.204091      -0.007195
     16 H                     0.226912      -0.001664
     17 H                     0.218244      -0.000975
     18 H                     0.206573       0.000282
     19 H                     0.191947      -0.000618
     20 H                     0.207100       0.000326
     21 C                     1.271132      -0.013195
     22 C                    -0.071532       0.025814
     23 C                    -0.526065       0.008278
     24 C                    -0.321030      -0.002220
     25 C                    -0.476397      -0.003768
     26 C                    -0.387266       0.008944
     27 H                     0.226718      -0.001659
     28 H                     0.217033      -0.000970
     29 H                     0.206345       0.000274
     30 H                     0.206873       0.000329
     31 H                     0.191974      -0.000621
     32 C                     1.261735      -0.012769
  --------------------------------------------------------
  Sum of atomic charges =    -1.000000

                    Cartesian Multipole Moments
 -----------------------------------------------------------------
    Charge (ESU x 10^10)
                -4.8032
    Dipole Moment (Debye)
         X       5.1253      Y       4.4798      Z      -2.6901
       Tot       7.3194
    Quadrupole Moments (Debye-Ang)
        XX    -125.4837     XY     -13.2846     YY    -136.1090
        XZ      13.1086     YZ      21.7543     ZZ    -139.1968

 Total job time:  80.51s(wall), 596.26s(cpu)
        *  Thank you very much for using Q-Chem.  Have a nice day.  *
