 Gaussian 16, Revision A.03,
 Gaussian 16:  ES64L-G16RevA.03 25-Dec-2016

 ----------------------------------------------------------------
 #P UB3LYP/6-311++G(d,p) SCRF=(PCM,Solvent=n,n-DiMethylFormamide)
 ----------------------------------------------------------------

 ------------------
 Radical PCM in DMF
 ------------------
 Symbolic Z-matrix:
 Charge = -1 Multiplicity = 2

                         Standard orientation:
 ---------------------------------------------------------------------
 Center     Atomic      Atomic             Coordinates (Angstroms)
 Number     Number       Type             X           Y           Z
 ---------------------------------------------------------------------
      1          6           0       -3.473545    1.250527    0.000128
      2          6           0       -2.663211   -0.060188    0.000084
      3          6           0       -3.066076   -0.859228    1.263794
      4          6           0       -3.066143   -0.859495   -1.263410
      5          6           0       -1.141120    0.184833   -0.000038
      6          6           0       -0.615450    1.466129   -0.000057
      7          6           0        0.783813    1.794025   -0.000181
      8          8           0        1.196464    2.986123   -0.000247
      9          6           0        1.706868    0.650901   -0.000098
     10          6           0        3.099495    0.861243    0.000094
     11          6           0        3.979826   -0.205703    0.000265
     12          6           0        3.481654   -1.523896    0.000251
     13          6           0        2.116566   -1.747958    0.000030
     14          6           0        1.202108   -0.674355   -0.000140
     15          6           0       -0.245199   -0.961903   -0.000268
     16          8           0       -0.648913   -2.159944   -0.000468
     17          1           0       -3.267106    1.858739   -0.885347
     18          1           0       -4.543102    1.013429    0.000967
     19          1           0       -3.265744    1.859261    0.884919
     20          1           0       -2.538702   -1.812026    1.295848
     21          1           0       -4.147347   -1.047597    1.264815
     22          1           0       -2.820862   -0.291914    2.167794
     23          1           0       -4.147473   -1.047469   -1.264608
     24          1           0       -2.538997   -1.812451   -1.294932
     25          1           0       -2.820467   -0.292673   -2.167588
     26          1           0       -1.267296    2.331568    0.000071
     27          1           0        3.449449    1.887541    0.000136
     28          1           0        5.051821   -0.030071    0.000471
     29          1           0        4.170712   -2.363780    0.000453
     30          1           0        1.707201   -2.751578    0.000006
 ---------------------------------------------------------------------

 SCF Done:  E(UB3LYP) =  -692.702410299     A.U. after   19 cycles

 The electronic state is 2-A.
 Alpha  occ. eigenvalues --  -19.07277 -19.07023 -10.21764 -10.21692 -10.18043
 Alpha  occ. eigenvalues --  -10.17176 -10.17128 -10.16996 -10.16902 -10.16888
 Alpha  occ. eigenvalues --  -10.16834 -10.16741 -10.15428 -10.14979 -10.14456
 Alpha  occ. eigenvalues --  -10.14455  -0.99671  -0.99412  -0.85554  -0.82389
 Alpha  occ. eigenvalues --   -0.78233  -0.74767  -0.73058  -0.68055  -0.67406
 Alpha  occ. eigenvalues --   -0.66636  -0.61634  -0.60894  -0.56026  -0.53626
 Alpha  occ. eigenvalues --   -0.50193  -0.49018  -0.46564  -0.45674  -0.43333
 Alpha  occ. eigenvalues --   -0.43113  -0.42457  -0.41649  -0.41445  -0.41062
 Alpha  occ. eigenvalues --   -0.40363  -0.38725  -0.38119  -0.36882  -0.36695
 Alpha  occ. eigenvalues --   -0.35633  -0.35225  -0.34475  -0.33625  -0.32812
 Alpha  occ. eigenvalues --   -0.32400  -0.31716  -0.26899  -0.25465  -0.24565
 Alpha  occ. eigenvalues --   -0.23962  -0.22996  -0.14919
 Alpha virt. eigenvalues --   -0.03225  -0.01294  -0.00401   0.00450   0.01338
 Alpha virt. eigenvalues --    0.02156   0.02170   0.02465   0.03766   0.04120
 Alpha virt. eigenvalues --    0.04320   0.04516   0.04679   0.05543   0.05659

  Beta  occ. eigenvalues --  -19.06664 -19.06396 -10.21592 -10.21536 -10.18052
  Beta  occ. eigenvalues --  -10.17144 -10.17095 -10.16945 -10.16865 -10.16816
  Beta  occ. eigenvalues --  -10.16736 -10.16726 -10.15300 -10.14980 -10.14447
  Beta  occ. eigenvalues --  -10.14445  -0.98594  -0.98301  -0.85354  -0.82151
  Beta  occ. eigenvalues --   -0.77893  -0.74597  -0.72853  -0.67885  -0.67374
  Beta  occ. eigenvalues --   -0.65852  -0.61465  -0.60623  -0.55815  -0.53451
  Beta  occ. eigenvalues --   -0.49969  -0.48770  -0.46327  -0.45591  -0.43271
  Beta  occ. eigenvalues --   -0.42964  -0.42381  -0.41481  -0.40803  -0.40250
  Beta  occ. eigenvalues --   -0.39901  -0.38057  -0.37835  -0.36841  -0.35854
  Beta  occ. eigenvalues --   -0.35125  -0.34434  -0.33566  -0.33488  -0.32653
  Beta  occ. eigenvalues --   -0.32090  -0.31653  -0.24830  -0.24335  -0.23806
  Beta  occ. eigenvalues --   -0.23400  -0.22448
  Beta virt. eigenvalues --   -0.08262  -0.02488  -0.00387  -0.00186   0.00451
  Beta virt. eigenvalues --    0.01353   0.02177   0.02187   0.02466   0.03776
  Beta virt. eigenvalues --    0.04180   0.04334   0.04526   0.05044   0.05673

 Mulliken charges and spin densities:
               1          2
     1  C   -0.498131  -0.002102
     2  C    0.723285  -0.020241
     3  C   -0.687986   0.013514
     4  C   -0.687773   0.013504
     5  C    0.800837   0.077375
     6  C   -0.311897   0.082166
     7  C   -0.644636   0.099163
     8  O   -0.498478   0.219850
     9  C    0.604240   0.029904
    10  C   -0.127265   0.022693
    11  C   -0.437505   0.025226
    12  C   -0.415140   0.029072
    13  C    0.133681   0.044243
    14  C    0.314147   0.040687
    15  C   -1.071789   0.108775
    16  O   -0.422630   0.235584
    17  H    0.133004  -0.000569
    18  H    0.171212  -0.000004
    19  H    0.132912  -0.000572
    20  H    0.182263  -0.002092
    21  H    0.147995   0.001182
    22  H    0.130996   0.000343
    23  H    0.148050   0.001179
    24  H    0.182220  -0.002093
    25  H    0.130992   0.000347
    26  H    0.182126  -0.008654
    27  H    0.157457  -0.002250
    28  H    0.181740  -0.002033
    29  H    0.180542  -0.002136
    30  H    0.165531  -0.002060
 Sum of Mulliken charges =  -1.00000   1.00000

 Dipole moment (field-independent basis, Debye):
    X=             -1.8885    Y=             -2.5643    Z=              0.0022  Tot=              3.1847
 Quadrupole moment (field-independent basis, Debye-Ang):
   XX=           -102.1519   YY=           -133.6173   ZZ=           -103.1069
   XY=            -13.3809   XZ=              0.0008   YZ=             -0.0010

 Normal termination of Gaussian 16 at Sun Jan 21 08:19:22 2024.
