 Q-Chem 5.4, Q-Chem, Inc., Pleasanton, CA (2021)
 Q-Chem 5.4.0 for Intel X86 EM64T Linux

User input:
--------------------------------------------------------------
$molecule
-1 2
C                 -0.1443940000      1.8367570000      4.9936950000
C                  1.0542350000      1.2551940000      4.4195510000
C                  1.3987690000      1.2838500000      3.0910480000
C                  0.4863750000      1.9377600000      2.1442350000
C                 -0.7253960000      2.4964800000      2.7000260000
C                 -1.0427580000      2.4696340000      4.0366870000
O                 -0.3702950000      1.7761100000      6.2338830000
O                  0.7115640000      2.0135480000      0.8997290000
S                 -2.5093140000      3.3344620000      4.5929530000
C                 -3.3956000000      2.0562040000      5.6089670000
C                 -4.5441090000      2.7614240000      6.3307680000
C                 -3.8792880000      0.8843050000      4.7572830000
C                  2.7014400000      0.6530590000      2.5683130000
C                  3.5378810000      0.0124130000      3.6921580000
C                  3.5720610000      1.7401210000      1.8918660000
C                  2.3692310000     -0.4527740000      1.5368920000
H                  1.6958000000      0.7842530000      5.1552200000
H                 -1.3988250000      2.9578060000      1.9852060000
H                 -2.6526260000      1.7146300000      6.3304370000
H                 -4.1741120000      3.5640840000      6.9735780000
H                 -5.0897100000      2.0464080000      6.9568990000
H                 -5.2567410000      3.1938870000      5.6191280000
H                 -3.0482290000      0.4193520000      4.2230620000
H                 -4.6176580000      1.2121700000      4.0179040000
H                 -4.3431350000      0.1192000000      5.3935890000
H                  2.9943010000     -0.7911780000      4.1976380000
H                  3.8366770000      0.7457640000      4.4468480000
H                  4.4498580000     -0.4182020000      3.2644160000
H                  3.8445910000      2.5158880000      2.6150060000
H                  3.0285900000      2.2050040000      1.0697840000
H                  4.4982160000      1.2969680000      1.5045000000
H                  1.7806120000     -1.2482680000      2.0058530000
H                  3.2935620000     -0.8988850000      1.1485540000
H                  1.7975670000     -0.0387570000      0.7067650000
$end
$rem
MAX_SCF_CYCLES=200
BASIS  =  6-311++G(d,p)
GUI  =  2
JOB_TYPE  =  SP
METHOD  =  B3LYP
SOLVENT_METHOD = PCM
$end
$pcm
theory = CPCM
$end
$solvent
dielectric 37.219
opticaldielectric 1.43
$end

--------------------------------------------------------------

             Standard Nuclear Orientation (Angstroms)
    I     Atom           X                Y                Z
 ----------------------------------------------------------------
    1      C      -0.1443940000     1.8367570000     4.9936950000
    2      C       1.0542350000     1.2551940000     4.4195510000
    3      C       1.3987690000     1.2838500000     3.0910480000
    4      C       0.4863750000     1.9377600000     2.1442350000
    5      C      -0.7253960000     2.4964800000     2.7000260000
    6      C      -1.0427580000     2.4696340000     4.0366870000
    7      O      -0.3702950000     1.7761100000     6.2338830000
    8      O       0.7115640000     2.0135480000     0.8997290000
    9      S      -2.5093140000     3.3344620000     4.5929530000
   10      C      -3.3956000000     2.0562040000     5.6089670000
   11      C      -4.5441090000     2.7614240000     6.3307680000
   12      C      -3.8792880000     0.8843050000     4.7572830000
   13      C       2.7014400000     0.6530590000     2.5683130000
   14      C       3.5378810000     0.0124130000     3.6921580000
   15      C       3.5720610000     1.7401210000     1.8918660000
   16      C       2.3692310000    -0.4527740000     1.5368920000
   17      H       1.6958000000     0.7842530000     5.1552200000
   18      H      -1.3988250000     2.9578060000     1.9852060000
   19      H      -2.6526260000     1.7146300000     6.3304370000
   20      H      -4.1741120000     3.5640840000     6.9735780000
   21      H      -5.0897100000     2.0464080000     6.9568990000
   22      H      -5.2567410000     3.1938870000     5.6191280000
   23      H      -3.0482290000     0.4193520000     4.2230620000
   24      H      -4.6176580000     1.2121700000     4.0179040000
   25      H      -4.3431350000     0.1192000000     5.3935890000
   26      H       2.9943010000    -0.7911780000     4.1976380000
   27      H       3.8366770000     0.7457640000     4.4468480000
   28      H       4.4498580000    -0.4182020000     3.2644160000
   29      H       3.8445910000     2.5158880000     2.6150060000
   30      H       3.0285900000     2.2050040000     1.0697840000
   31      H       4.4982160000     1.2969680000     1.5045000000
   32      H       1.7806120000    -1.2482680000     2.0058530000
   33      H       3.2935620000    -0.8988850000     1.1485540000
   34      H       1.7975670000    -0.0387570000     0.7067650000
 ----------------------------------------------------------------

    9   -1055.2119523607      4.64e-06  Convergence criterion met
 Total energy in the final basis set =    -1055.2119523607

                    Orbital Energies (a.u.)
 --------------------------------------------------------------

 Alpha MOs
 -- Occupied --
-88.8354 -19.0788 -19.0763 -10.2240 -10.2204 -10.1945 -10.1923 -10.1808
-10.1722 -10.1635 -10.1582 -10.1581 -10.1549 -10.1475 -10.1440 -10.1440
 -7.9216  -5.8854  -5.8818  -5.8757  -1.0025  -0.9981  -0.8369  -0.8175
 -0.7961  -0.7467  -0.6975  -0.6844  -0.6771  -0.6736  -0.6662  -0.5972
 -0.5788  -0.5529  -0.5209  -0.4812  -0.4679  -0.4586  -0.4417  -0.4334
 -0.4305  -0.4231  -0.4193  -0.4116  -0.4066  -0.4039  -0.3859  -0.3843
 -0.3721  -0.3661  -0.3657  -0.3529  -0.3521  -0.3435  -0.3404  -0.3307
 -0.3244  -0.3179  -0.3169  -0.2787  -0.2604  -0.2431  -0.2349  -0.2207
 -0.1624

 Beta MOs
 -- Occupied --
-88.8354 -19.0724 -19.0694 -10.2224 -10.2189 -10.1944 -10.1910 -10.1809
-10.1711 -10.1623 -10.1582 -10.1573 -10.1549 -10.1475 -10.1440 -10.1439
 -7.9216  -5.8855  -5.8818  -5.8756  -0.9912  -0.9859  -0.8325  -0.8166
 -0.7941  -0.7448  -0.6927  -0.6844  -0.6765  -0.6734  -0.6594  -0.5939
 -0.5761  -0.5517  -0.5182  -0.4793  -0.4653  -0.4577  -0.4407  -0.4303
 -0.4289  -0.4206  -0.4183  -0.4080  -0.3987  -0.3968  -0.3842  -0.3736
 -0.3709  -0.3639  -0.3576  -0.3516  -0.3445  -0.3403  -0.3378  -0.3291
 -0.3229  -0.3173  -0.3123  -0.2606  -0.2453  -0.2370  -0.2292  -0.2162

          Ground-State Mulliken Net Atomic Charges

     Atom                 Charge (a.u.)    Spin (a.u.)
  --------------------------------------------------------
      1 C                    -0.685313       0.137756
      2 C                    -0.492316       0.009881
      3 C                     0.977182       0.120502
      4 C                    -0.870219       0.090062
      5 C                    -0.633581       0.074912
      6 C                     1.687552       0.097122
      7 O                    -0.476338       0.230127
      8 O                    -0.463366       0.249201
      9 S                    -0.554322       0.011230
     10 C                     0.255188       0.007264
     11 C                    -0.681533       0.001525
     12 C                    -0.739019      -0.002529
     13 C                     0.601438      -0.029750
     14 C                    -0.552208      -0.000716
     15 C                    -0.713070       0.011315
     16 C                    -0.701384       0.010801
     17 H                     0.217874      -0.006827
     18 H                     0.217030      -0.009729
     19 H                     0.253401      -0.001342
     20 H                     0.164943       0.000202
     21 H                     0.157521       0.000133
     22 H                     0.154299       0.000116
     23 H                     0.152194       0.000649
     24 H                     0.172521      -0.000153
     25 H                     0.151206       0.000256
     26 H                     0.139814      -0.000184
     27 H                     0.140305      -0.000194
     28 H                     0.178541       0.000011
     29 H                     0.138458       0.001066
     30 H                     0.173847      -0.002096
     31 H                     0.159334       0.000214
     32 H                     0.139790       0.000836
     33 H                     0.157277       0.000108
     34 H                     0.172958      -0.001766
  --------------------------------------------------------
  Sum of atomic charges =    -1.000000

                    Cartesian Multipole Moments
 -----------------------------------------------------------------
    Charge (ESU x 10^10)
                -4.8032
    Dipole Moment (Debye)
         X       0.1262      Y     -11.6469      Z     -16.7948
       Tot      20.4385
    Quadrupole Moments (Debye-Ang)
        XX    -108.6875     XY       4.2874     YY    -141.4917
        XZ       4.1445     YZ     -42.2708     ZZ    -204.3131

 Total job time:  71.60s(wall), 526.03s(cpu)
        *  Thank you very much for using Q-Chem.  Have a nice day.  *
