 Gaussian 16, Revision A.03,
 Gaussian 16:  ES64L-G16RevA.03 25-Dec-2016

 ----------------------------------------------------------------------
 #P UB3LYP/6-311++G(d,p) nosym opt freq SCRF=(PCM,Solvent=n,n-DiMethylF
 ormamide)
 ----------------------------------------------------------------------

 --------
 Oxidized
 --------
 Symbolic Z-matrix:
 Charge =  0 Multiplicity = 1

 SCF Done:  E(UB3LYP) =  -534.257228015     A.U. after   14 cycles
 SCF Done:  E(UB3LYP) =  -534.257362723     A.U. after   13 cycles
 SCF Done:  E(UB3LYP) =  -534.257323853     A.U. after   13 cycles
 SCF Done:  E(UB3LYP) =  -534.257375598     A.U. after   12 cycles
 SCF Done:  E(UB3LYP) =  -534.257411423     A.U. after   11 cycles
 SCF Done:  E(UB3LYP) =  -534.257427758     A.U. after   11 cycles
 SCF Done:  E(UB3LYP) =  -534.257428747     A.U. after   11 cycles
 SCF Done:  E(UB3LYP) =  -534.257432168     A.U. after   10 cycles
 SCF Done:  E(UB3LYP) =  -534.257432397     A.U. after    9 cycles
 SCF Done:  E(UB3LYP) =  -534.257432469     A.U. after    8 cycles
 SCF Done:  E(UB3LYP) =  -534.257432494     A.U. after    8 cycles
 SCF Done:  E(UB3LYP) =  -534.257432524     A.U. after    8 cycles
 SCF Done:  E(UB3LYP) =  -534.257432545     A.U. after    8 cycles
 Optimization completed.
    -- Stationary point found.
 Normal termination of Gaussian 16 at Sat Feb 10 10:19:52 2024.

 ----------------------------------------------------------------------
 #P Geom=AllCheck Guess=TCheck SCRF=Check GenChk UB3LYP/6-311++G(d,p) F
 req
 ----------------------------------------------------------------------

 Structure from the checkpoint file:  "056.chk"
 --------
 Oxidized
 --------
 Charge =  0 Multiplicity = 1

                          Input orientation:
 ---------------------------------------------------------------------
 Center     Atomic      Atomic             Coordinates (Angstroms)
 Number     Number       Type             X           Y           Z
 ---------------------------------------------------------------------
      1          6           0        0.207699    0.782182   -0.525650
      2          6           0       -0.720336   -0.105038   -1.269397
      3          6           0       -1.127459   -1.281514   -0.777052
      4          6           0       -0.661190   -1.745720    0.546658
      5          6           0        0.278139   -0.870269    1.290007
      6          6           0        0.712566    0.304035    0.799779
      7          8           0        0.512924    1.874227   -0.980788
      8          8           0       -1.030723   -2.810573    1.022063
      9          6           0        1.708362    1.105586    1.615005
     10          6           0        2.814353    1.832859    0.901897
     11          8           0        1.609842    1.099455    2.828072
     12          1           0       -1.056565    0.269210   -2.229522
     13          1           0       -1.811204   -1.931111   -1.310985
     14          1           0        0.613188   -1.233587    2.255036
     15          1           0        2.402743    2.708098    0.393804
     16          1           0        3.262437    1.201110    0.130512
     17          1           0        3.567884    2.141619    1.625170
 ---------------------------------------------------------------------

 SCF Done:  E(UB3LYP) =  -534.257432545     A.U. after    1 cycles

 Alpha  occ. eigenvalues --  -19.15411 -19.15370 -19.14083 -10.30220 -10.29794
 Alpha  occ. eigenvalues --  -10.29346 -10.23211 -10.22798 -10.22145 -10.22012
 Alpha  occ. eigenvalues --  -10.18038  -1.08526  -1.08089  -1.07379  -0.87837
 Alpha  occ. eigenvalues --   -0.81505  -0.76337  -0.72173  -0.66319  -0.63205
 Alpha  occ. eigenvalues --   -0.56683  -0.53746  -0.51947  -0.49929  -0.48545
 Alpha  occ. eigenvalues --   -0.47225  -0.46124  -0.45667  -0.45120  -0.43940
 Alpha  occ. eigenvalues --   -0.43089  -0.42055  -0.40581  -0.38312  -0.32393
 Alpha  occ. eigenvalues --   -0.31509  -0.30193  -0.30006  -0.27797
 Alpha virt. eigenvalues --   -0.15025  -0.07383  -0.02594  -0.00481  -0.00094
 Alpha virt. eigenvalues --    0.00764   0.01321   0.02965   0.03168   0.03712
 Alpha virt. eigenvalues --    0.04701   0.05580   0.06079   0.06997   0.07281

  Beta  occ. eigenvalues --  -19.15411 -19.15370 -19.14083 -10.30220 -10.29794
  Beta  occ. eigenvalues --  -10.29346 -10.23211 -10.22798 -10.22145 -10.22012
  Beta  occ. eigenvalues --  -10.18038  -1.08526  -1.08089  -1.07379  -0.87837
  Beta  occ. eigenvalues --   -0.81505  -0.76337  -0.72173  -0.66319  -0.63205
  Beta  occ. eigenvalues --   -0.56683  -0.53746  -0.51947  -0.49929  -0.48545
  Beta  occ. eigenvalues --   -0.47225  -0.46124  -0.45667  -0.45120  -0.43940
  Beta  occ. eigenvalues --   -0.43089  -0.42055  -0.40581  -0.38312  -0.32393
  Beta  occ. eigenvalues --   -0.31509  -0.30193  -0.30006  -0.27797
  Beta virt. eigenvalues --   -0.15025  -0.07383  -0.02594  -0.00481  -0.00094
  Beta virt. eigenvalues --    0.00764   0.01321   0.02965   0.03168   0.03712
  Beta virt. eigenvalues --    0.04701   0.05580   0.06079   0.06997   0.07281

 Mulliken charges and spin densities:
               1          2
     1  C   -1.354461  -0.000000
     2  C    0.308555   0.000000
     3  C    0.102372  -0.000000
     4  C   -0.409086   0.000000
     5  C   -0.450520  -0.000000
     6  C    1.700597   0.000000
     7  O   -0.245388   0.000000
     8  O   -0.275326  -0.000000
     9  C    0.216976  -0.000000
    10  C   -0.636726   0.000000
    11  O   -0.295520   0.000000
    12  H    0.251112  -0.000000
    13  H    0.250562  -0.000000
    14  H    0.256820  -0.000000
    15  H    0.216009  -0.000000
    16  H    0.183224  -0.000000
    17  H    0.180799  -0.000000
 Sum of Mulliken charges =   0.00000  -0.00000

 Dipole moment (field-independent basis, Debye):
    X=              0.4852    Y=             -0.0622    Z=             -3.9183  Tot=              3.9487
 Quadrupole moment (field-independent basis, Debye-Ang):
   XX=            -57.6855   YY=            -75.9798   ZZ=            -73.7917
   XY=             -2.6652   XZ=              1.0923   YZ=              3.8784

  Exact polarizability: 107.565  46.775 174.626   5.967 -29.390 129.808
 Approx polarizability: 118.601  58.758 235.502  -5.582 -53.090 153.204

                      1                      2                      3
                      A                      A                      A
 Frequencies --     36.6002                69.9952               115.5124
 Red. masses --      4.1081                 6.9056                 1.3386
 Frc consts  --      0.0032                 0.0199                 0.0105
 IR Inten    --      6.9626                14.2488                 3.4145

                      4                      5                      6
                      A                      A                      A
 Frequencies --    131.6426               192.1083               231.1831
 Red. masses --      3.7594                 3.9806                 5.0368
 Frc consts  --      0.0384                 0.0866                 0.1586
 IR Inten    --      9.0114                 3.3855                 1.7203

                      7                      8                      9
                      A                      A                      A
 Frequencies --    307.3246               323.3846               407.7524
 Red. masses --      4.0164                 6.4334                 4.0412
 Frc consts  --      0.2235                 0.3964                 0.3959
 IR Inten    --      5.2164                 1.0723                 3.4365

                     10                     11                     12
                      A                      A                      A
 Frequencies --    430.4223               468.1576               524.3114
 Red. masses --      7.9636                 9.7334                 2.8586
 Frc consts  --      0.8693                 1.2569                 0.4630
 IR Inten    --     33.3723                 6.5315                 7.2488

                     13                     14                     15
                      A                      A                      A
 Frequencies --    554.8570               596.1204               643.9627
 Red. masses --      4.6151                 3.6463                 2.6179
 Frc consts  --      0.8371                 0.7634                 0.6396
 IR Inten    --     23.7217                11.5390                 0.9611

                     16                     17                     18
                      A                      A                      A
 Frequencies --    669.6717               787.3171               793.3785
 Red. masses --      5.2327                 4.0909                 3.6766
 Frc consts  --      1.3826                 1.4941                 1.3635
 IR Inten    --     10.9097                 1.7712                 5.0016

                     19                     20                     21
                      A                      A                      A
 Frequencies --    841.2286               844.1205               941.8306
 Red. masses --      2.6660                 3.7282                 1.6134
 Frc consts  --      1.1116                 1.5652                 0.8432
 IR Inten    --     22.0020                18.6155                69.4276

                     22                     23                     24
                      A                      A                      A
 Frequencies --    988.7942              1014.5397              1019.7257
 Red. masses --      2.0109                 1.2741                 2.8932
 Frc consts  --      1.1584                 0.7727                 1.7725
 IR Inten    --     24.4159                 0.6800                43.7077

                     25                     26                     27
                      A                      A                      A
 Frequencies --   1045.7202              1114.7092              1200.8101
 Red. masses --      1.9391                 1.5230                 2.0779
 Frc consts  --      1.2493                 1.1150                 1.7653
 IR Inten    --     12.2781                64.0198                40.5982

                     28                     29                     30
                      A                      A                      A
 Frequencies --   1243.1647              1288.8800              1349.9888
 Red. masses --      2.1235                 3.1177                 2.2818
 Frc consts  --      1.9336                 3.0515                 2.4502
 IR Inten    --    185.9670               148.6269                71.3458

                     31                     32                     33
                      A                      A                      A
 Frequencies --   1381.0677              1392.0292              1441.9371
 Red. masses --      1.2823                 1.9539                 1.0520
 Frc consts  --      1.4410                 2.2308                 1.2887
 IR Inten    --     67.4417                 8.2485                31.5385

                     34                     35                     36
                      A                      A                      A
 Frequencies --   1461.7953              1639.2669              1667.4220
 Red. masses --      1.0678                 8.6117                 9.4905
 Frc consts  --      1.3443                13.6345                15.5464
 IR Inten    --     20.2944                 2.3142                38.4107

                     37                     38                     39
                      A                      A                      A
 Frequencies --   1697.5948              1712.8179              1736.6631
 Red. masses --     11.4264                 9.0709                10.3565
 Frc consts  --     19.4012                15.6791                18.4032
 IR Inten    --   1151.9787                27.8266               282.7878

                     40                     41                     42
                      A                      A                      A
 Frequencies --   3042.7984              3105.5973              3144.1819
 Red. masses --      1.0356                 1.0982                 1.1046
 Frc consts  --      5.6493                 6.2405                 6.4336
 IR Inten    --      1.9113                 5.7813                16.3660

                     43                     44                     45
                      A                      A                      A
 Frequencies --   3185.3744              3191.2094              3201.3149
 Red. masses --      1.0879                 1.0921                 1.0997
 Frc consts  --      6.5036                 6.5529                 6.6399
 IR Inten    --      2.1030                 1.1219                 1.5058

 - Thermochemistry -
 -------------------
 Temperature   298.150 Kelvin.  Pressure   1.00000 Atm.
 Atom     1 has atomic number  6 and mass  12.00000

 Molecular mass:   150.03169 amu.
 Principal axes and moments of inertia in atomic units:
                           1         2         3
     Eigenvalues --   983.569252009.719222868.24258
           X            0.63134   0.16828   0.75703
           Y            0.73377  -0.44553  -0.51292
           Z            0.25096   0.87931  -0.40476
 This molecule is an asymmetric top.
 Rotational symmetry number  1.
 Warning -- assumption of classical behavior for rotation
           may cause significant error
 Rotational temperatures (Kelvin)      0.08806     0.04310     0.03020
 Rotational constants (GHZ):           1.83489     0.89801     0.62921
 Zero-point vibrational energy     318076.8 (Joules/Mol)
                                   76.02217 (Kcal/Mol)
 Warning -- explicit consideration of  14 degrees of freedom as
           vibrations may cause significant error
 Vibrational temperatures:     52.66   100.71   166.20   189.40   276.40
          (Kelvin)            332.62   442.17   465.28   586.66   619.28
                              673.57   754.37   798.32   857.68   926.52
                              963.51  1132.77  1141.49  1210.34  1214.50
                             1355.08  1422.65  1459.70  1467.16  1504.56
                             1603.82  1727.70  1788.64  1854.41  1942.33
                             1987.05  2002.82  2074.63  2103.20  2358.54
                             2399.05  2442.46  2464.36  2498.67  4377.91
                             4468.26  4523.78  4583.04  4591.44  4605.98

 Zero-point correction=                           0.121149 (Hartree/Particle)
 Thermal correction to Energy=                    0.131154
 Thermal correction to Enthalpy=                  0.132098
 Thermal correction to Gibbs Free Energy=         0.084654
 Sum of electronic and zero-point Energies=           -534.136283
 Sum of electronic and thermal Energies=              -534.126279
 Sum of electronic and thermal Enthalpies=            -534.125335
 Sum of electronic and thermal Free Energies=         -534.172778

                     E (Thermal)             CV                S
                      KCal/Mol        Cal/Mol-Kelvin    Cal/Mol-Kelvin
 Total                   82.300             35.976             99.854
 Electronic               0.000              0.000              0.000
 Translational            0.889              2.981             40.927
 Rotational               0.889              2.981             30.118
 Vibrational             80.523             30.015             28.809
 Vibration     1          0.594              1.982              5.435
 Vibration     2          0.598              1.968              4.153
 Vibration     3          0.608              1.937              3.174
 Vibration     4          0.612              1.922              2.922
 Vibration     5          0.634              1.851              2.207
 Vibration     6          0.653              1.793              1.870
 Vibration     7          0.697              1.660              1.377
 Vibration     8          0.708              1.629              1.293
 Vibration     9          0.772              1.453              0.935
 Vibration    10          0.792              1.404              0.857
 Vibration    11          0.825              1.321              0.743
 Vibration    12          0.879              1.196              0.600
 Vibration    13          0.910              1.129              0.534
 Vibration    14          0.954              1.040              0.456

 Optimization completed.
    -- Stationary point found.
 Normal termination of Gaussian 16 at Sat Feb 10 10:28:38 2024.
