 Gaussian 16, Revision A.03,
 Gaussian 16:  ES64L-G16RevA.03 25-Dec-2016

 ----------------------------------------------
 #P UB3LYP/6-311++G(d,p) nosym opt freq SCF=YQC
 ----------------------------------------------

 -------
 Reduced
 -------
 Symbolic Z-matrix:
 Charge = -2 Multiplicity = 1

 SCF Done:  E(UB3LYP) =  -696.142128278     a.u. after   16 cycles
 SCF Done:  E(UB3LYP) =  -696.144093879     A.U. after   27 cycles
 Optimization completed.
    -- Stationary point found.
 Normal termination of Gaussian 16 at Thu Jan 11 04:01:19 2024.

 ----------------------------------------------------------------------
 #P Geom=AllCheck Guess=TCheck SCRF=Check GenChk UB3LYP/6-311++G(d,p) F
 req
 ----------------------------------------------------------------------

 Structure from the checkpoint file:  "319-an.chk"
 -------
 Reduced
 -------
 Charge = -2 Multiplicity = 1

                          Input orientation:
 ---------------------------------------------------------------------
 Center     Atomic      Atomic             Coordinates (Angstroms)
 Number     Number       Type             X           Y           Z
 ---------------------------------------------------------------------
      1          6           0       -0.727971    3.123158    0.002669
      2          6           0       -1.887351    2.326442    0.286654
      3          6           0       -1.899107    0.930548    0.268936
      4          6           0        0.549308    2.372551   -0.313174
      5          6           0        0.485594    0.928554   -0.309907
      6          6           0       -0.700540    0.248153   -0.025267
      7          8           0        1.628398    2.986975   -0.558484
      8          8           0       -0.753787    4.387113    0.015270
      9          6           0        1.753484    0.172204   -0.620286
     10          6           0        2.773322    0.120909    0.538331
     11          6           0        4.066010   -0.619602    0.178111
     12          6           0        5.081030   -0.701823    1.324238
     13          6           0       -3.163313    0.153828    0.559544
     14          6           0       -4.227504    0.162449   -0.564319
     15          6           0       -5.461609   -0.686078   -0.238499
     16          6           0       -6.549554   -0.663855   -1.317508
     17          1           0       -2.798521    2.879070    0.516459
     18          1           0       -0.702135   -0.842722   -0.030238
     19          1           0        2.252057    0.651569   -1.473648
     20          1           0        1.504661   -0.858437   -0.915962
     21          1           0        2.304539   -0.363215    1.405731
     22          1           0        3.000606    1.152108    0.826797
     23          1           0        4.532841   -0.122532   -0.682205
     24          1           0        3.822099   -1.637787   -0.158491
     25          1           0        5.380043    0.297726    1.658157
     26          1           0        5.992325   -1.240698    1.032133
     27          1           0        4.657805   -1.222840    2.190783
     28          1           0       -3.643306    0.546053    1.470738
     29          1           0       -2.901373   -0.891901    0.773449
     30          1           0       -3.764341   -0.198279   -1.490442
     31          1           0       -4.529680    1.198734   -0.756785
     32          1           0       -5.891635   -0.345826    0.713187
     33          1           0       -5.148723   -1.725898   -0.067495
     34          1           0       -6.922168    0.352793   -1.486088
     35          1           0       -7.411843   -1.287390   -1.046829
     36          1           0       -6.168160   -1.036888   -2.274647
 ---------------------------------------------------------------------

 SCF Done:  E(UB3LYP) =  -696.144093879     a.u. after    1 cycles
 SCF Done:  E(UB3LYP) =  -696.144093879     A.U. after   10 cycles

 Alpha  occ. eigenvalues --  -18.80938 -18.80402  -9.98973  -9.98678  -9.98608
 Alpha  occ. eigenvalues --   -9.98232  -9.96947  -9.96179  -9.95742  -9.95670
 Alpha  occ. eigenvalues --   -9.95642  -9.94578  -9.92961  -9.92054  -9.91462
 Alpha  occ. eigenvalues --   -9.90089  -0.73619  -0.70873  -0.61456  -0.60629
 Alpha  occ. eigenvalues --   -0.58524  -0.55003  -0.52397  -0.48162  -0.45613
 Alpha  occ. eigenvalues --   -0.43241  -0.40966  -0.38735  -0.38097  -0.31696
 Alpha  occ. eigenvalues --   -0.31061  -0.28603  -0.28113  -0.24864  -0.24677
 Alpha  occ. eigenvalues --   -0.24303  -0.23611  -0.22102  -0.20977  -0.20243
 Alpha  occ. eigenvalues --   -0.20019  -0.18133  -0.17738  -0.16570  -0.15722
 Alpha  occ. eigenvalues --   -0.15189  -0.15051  -0.14478  -0.13894  -0.13623
 Alpha  occ. eigenvalues --   -0.13273  -0.12796  -0.12145  -0.10634  -0.09470
 Alpha  occ. eigenvalues --   -0.06447  -0.05293   0.01174   0.03557   0.04399
 Alpha  occ. eigenvalues --    0.10831
 Alpha virt. eigenvalues --    0.12067   0.12327   0.15197   0.15383   0.15520
 Alpha virt. eigenvalues --    0.15888   0.16253   0.17198   0.18300   0.18619
 Alpha virt. eigenvalues --    0.18868   0.19317   0.19880   0.20354   0.21470

  Beta  occ. eigenvalues --  -18.80938 -18.80402  -9.98973  -9.98678  -9.98608
  Beta  occ. eigenvalues --   -9.98232  -9.96947  -9.96179  -9.95742  -9.95670
  Beta  occ. eigenvalues --   -9.95642  -9.94578  -9.92961  -9.92054  -9.91462
  Beta  occ. eigenvalues --   -9.90089  -0.73619  -0.70873  -0.61456  -0.60629
  Beta  occ. eigenvalues --   -0.58524  -0.55003  -0.52397  -0.48162  -0.45613
  Beta  occ. eigenvalues --   -0.43241  -0.40966  -0.38735  -0.38097  -0.31696
  Beta  occ. eigenvalues --   -0.31061  -0.28603  -0.28113  -0.24864  -0.24677
  Beta  occ. eigenvalues --   -0.24303  -0.23611  -0.22102  -0.20977  -0.20243
  Beta  occ. eigenvalues --   -0.20019  -0.18133  -0.17738  -0.16570  -0.15722
  Beta  occ. eigenvalues --   -0.15189  -0.15051  -0.14478  -0.13894  -0.13623
  Beta  occ. eigenvalues --   -0.13273  -0.12796  -0.12145  -0.10634  -0.09470
  Beta  occ. eigenvalues --   -0.06447  -0.05293   0.01174   0.03557   0.04399
  Beta  occ. eigenvalues --    0.10831
  Beta virt. eigenvalues --    0.12067   0.12327   0.15197   0.15383   0.15520
  Beta virt. eigenvalues --    0.15888   0.16253   0.17198   0.18300   0.18619
  Beta virt. eigenvalues --    0.18868   0.19317   0.19880   0.20354   0.21470

 Mulliken charges and spin densities:
               1          2
     1  C   -0.938492  -0.000000
     2  C    0.045968   0.000000
     3  C    0.878254   0.000000
     4  C   -0.397118   0.000000
     5  C    1.482613   0.000000
     6  C   -0.952786  -0.000000
     7  O   -0.430776  -0.000000
     8  O   -0.447426   0.000000
     9  C   -0.466009  -0.000000
    10  C   -0.012827   0.000000
    11  C   -0.815807  -0.000000
    12  C    0.468959  -0.000000
    13  C   -0.719215  -0.000000
    14  C    0.946867   0.000000
    15  C   -1.948082  -0.000000
    16  C    1.804217   0.000000
    17  H    0.059780   0.000000
    18  H    0.054141   0.000000
    19  H    0.133922   0.000000
    20  H    0.091527  -0.000000
    21  H    0.115785   0.000000
    22  H    0.201594  -0.000000
    23  H    0.114655   0.000000
    24  H    0.022734   0.000000
    25  H    0.054722   0.000000
    26  H   -0.520529   0.000000
    27  H   -0.005323   0.000000
    28  H    0.065239  -0.000000
    29  H    0.102149  -0.000000
    30  H    0.127478  -0.000000
    31  H    0.191683  -0.000000
    32  H    0.003056   0.000000
    33  H   -0.019105   0.000000
    34  H   -0.128238  -0.000000
    35  H   -1.015266  -0.000000
    36  H   -0.148344   0.000000
 Sum of Mulliken charges =  -2.00000  -0.00000

 Dipole moment (field-independent basis, Debye):
    X=              8.1103    Y=            -13.3328    Z=              1.9988  Tot=             15.7332
 Quadrupole moment (field-independent basis, Debye-Ang):
   XX=           -310.7038   YY=           -201.5132   ZZ=           -127.4741
   XY=            -11.4867   XZ=            -24.3105   YZ=              1.9201

  Exact polarizability:6684.493-249.856 932.4341083.781 -46.149 876.079
 Approx polarizability:********1629.7143761.1252835.833 136.3521058.007

                      1                      2                      3
                      A                      A                      A
 Frequencies --     21.2247                29.9410                59.9123
 Red. masses --      3.0027                 3.0914                 3.2358
 Frc consts  --      0.0008                 0.0016                 0.0068
 IR Inten    --      4.1029                 2.1854                 6.4349

                      4                      5                      6
                      A                      A                      A
 Frequencies --     63.6376                66.0855                74.2793
 Red. masses --      2.0906                 4.6742                 1.7285
 Frc consts  --      0.0050                 0.0120                 0.0056
 IR Inten    --      1.4889                 3.1007                 1.0191

                      7                      8                      9
                      A                      A                      A
 Frequencies --    109.6647               119.1884               129.7313
 Red. masses --      4.2715                 2.3543                 2.6395
 Frc consts  --      0.0303                 0.0197                 0.0262
 IR Inten    --      0.8093                 4.8109                 4.6559

                     10                     11                     12
                      A                      A                      A
 Frequencies --    195.0530               211.1955               235.6062
 Red. masses --      3.9705                 3.3427                 2.8356
 Frc consts  --      0.0890                 0.0878                 0.0927
 IR Inten    --      3.5769                 4.9541                 5.0960

                     13                     14                     15
                      A                      A                      A
 Frequencies --    246.8752               253.3084               267.8939
 Red. masses --      1.2756                 1.6866                 1.9421
 Frc consts  --      0.0458                 0.0638                 0.0821
 IR Inten    --     14.6195                27.1656                23.3263

                     16                     17                     18
                      A                      A                      A
 Frequencies --    278.2948               327.5489               341.2610
 Red. masses --      1.9538                 3.7565                 4.4462
 Frc consts  --      0.0892                 0.2375                 0.3051
 IR Inten    --     12.8760                22.8853                11.0105

                     19                     20                     21
                      A                      A                      A
 Frequencies --    368.1773               403.2733               435.2088
 Red. masses --      7.4460                 3.0520                 3.7745
 Frc consts  --      0.5947                 0.2924                 0.4212
 IR Inten    --      1.9896                13.5541                 6.6848

                     22                     23                     24
                      A                      A                      A
 Frequencies --    484.1781               526.4973               568.2937
 Red. masses --      6.7538                 5.0816                 4.0194
 Frc consts  --      0.9328                 0.8299                 0.7648
 IR Inten    --      1.2036                79.9423                18.0810

                     25                     26                     27
                      A                      A                      A
 Frequencies --    611.3256               622.6598               659.2223
 Red. masses --      3.5590                 3.6964                 4.5293
 Frc consts  --      0.7837                 0.8444                 1.1597
 IR Inten    --     14.4344                11.6991                 1.5629

                     28                     29                     30
                      A                      A                      A
 Frequencies --    725.7188               730.7259               768.4195
 Red. masses --      1.0836                 1.1115                 1.7627
 Frc consts  --      0.3362                 0.3497                 0.6132
 IR Inten    --      2.3336                 3.0825                 4.7014

                     31                     32                     33
                      A                      A                      A
 Frequencies --    776.7614               790.5688               794.1600
 Red. masses --      1.8802                 1.4046                 1.4765
 Frc consts  --      0.6684                 0.5172                 0.5487
 IR Inten    --      2.5148                11.6907                28.7942

                     34                     35                     36
                      A                      A                      A
 Frequencies --    807.0234               822.8594               889.2755
 Red. masses --      2.0071                 2.7162                 1.8617
 Frc consts  --      0.7702                 1.0836                 0.8674
 IR Inten    --      9.3457                18.3407                17.2164

                     37                     38                     39
                      A                      A                      A
 Frequencies --    892.6606               920.9219               932.0933
 Red. masses --      1.8052                 1.3138                 1.2685
 Frc consts  --      0.8475                 0.6565                 0.6493
 IR Inten    --      8.2843                12.8976                 8.7398

                     40                     41                     42
                      A                      A                      A
 Frequencies --    958.2119               988.8023              1009.2955
 Red. masses --      4.6991                 4.2223                 3.4077
 Frc consts  --      2.5421                 2.4323                 2.0452
 IR Inten    --     37.4389                 0.6926                53.2196

                     43                     44                     45
                      A                      A                      A
 Frequencies --   1017.6605              1047.6030              1048.1566
 Red. masses --      3.0147                 2.5618                 2.5601
 Frc consts  --      1.8395                 1.6565                 1.6572
 IR Inten    --     13.0077                22.7148                35.8282

                     46                     47                     48
                      A                      A                      A
 Frequencies --   1096.2055              1103.5045              1111.6123
 Red. masses --      1.3678                 1.5197                 2.1719
 Frc consts  --      0.9684                 1.0903                 1.5812
 IR Inten    --     20.4306                85.0233                25.9858

                     49                     50                     51
                      A                      A                      A
 Frequencies --   1112.7552              1165.0390              1215.7383
 Red. masses --      2.2098                 1.8638                 1.8377
 Frc consts  --      1.6121                 1.4905                 1.6003
 IR Inten    --     24.2195                18.6509                45.6197

                     52                     53                     54
                      A                      A                      A
 Frequencies --   1228.2361              1233.6576              1252.7779
 Red. masses --      1.5403                 1.5050                 2.7428
 Frc consts  --      1.3690                 1.3495                 2.5362
 IR Inten    --     67.9935                 0.8813               157.3904

                     55                     56                     57
                      A                      A                      A
 Frequencies --   1264.7583              1270.6330              1298.4619
 Red. masses --      1.3385                 1.5377                 1.3333
 Frc consts  --      1.2614                 1.4627                 1.3244
 IR Inten    --     18.8133                98.4403                24.6948

                     58                     59                     60
                      A                      A                      A
 Frequencies --   1303.1451              1316.6580              1317.9234
 Red. masses --      1.2656                 1.0764                 1.0757
 Frc consts  --      1.2663                 1.0994                 1.1009
 IR Inten    --     12.9456                 2.7296                 5.7723

                     61                     62                     63
                      A                      A                      A
 Frequencies --   1335.3557              1344.1522              1357.7429
 Red. masses --      1.4222                 1.3906                 1.9486
 Frc consts  --      1.4942                 1.4803                 2.1165
 IR Inten    --    108.2377                 8.0991               261.1578

                     64                     65                     66
                      A                      A                      A
 Frequencies --   1366.4287              1369.9315              1392.9435
 Red. masses --      1.5295                 1.5344                 1.2411
 Frc consts  --      1.6826                 1.6967                 1.4188
 IR Inten    --     10.9151                20.1450              1177.2087

                     67                     68                     69
                      A                      A                      A
 Frequencies --   1396.3929              1407.0128              1449.3382
 Red. masses --      1.2417                 3.5493                 1.2331
 Frc consts  --      1.4265                 4.1399                 1.5261
 IR Inten    --    495.8766                84.4861               384.4398

                     70                     71                     72
                      A                      A                      A
 Frequencies --   1469.0966              1479.8512              1480.3448
 Red. masses --      1.1136                 1.0828                 1.1509
 Frc consts  --      1.4161                 1.3972                 1.4859
 IR Inten    --      1.3750                11.9391               233.2337

                     73                     74                     75
                      A                      A                      A
 Frequencies --   1480.9471              1483.7278              1488.1906
 Red. masses --      1.0431                 1.0511                 2.7254
 Frc consts  --      1.3479                 1.3633                 3.5563
 IR Inten    --    258.6645               265.6057              1442.5952

                     76                     77                     78
                      A                      A                      A
 Frequencies --   1492.9259              1494.5400              1497.5507
 Red. masses --      1.3320                 1.1087                 3.0607
 Frc consts  --      1.7491                 1.4591                 4.0442
 IR Inten    --     55.9983               280.4610              1017.7583

                     79                     80                     81
                      A                      A                      A
 Frequencies --   1505.3847              1506.5239              1518.2783
 Red. masses --      1.0905                 1.1225                 6.8018
 Frc consts  --      1.4561                 1.5010                 9.2379
 IR Inten    --    443.8542                68.2705               637.7318

                     82                     83                     84
                      A                      A                      A
 Frequencies --   1569.3287              2938.7984              2955.0152
 Red. masses --      4.8201                 1.0654                 1.0608
 Frc consts  --      6.9942                 5.4215                 5.4575
 IR Inten    --    132.0583               192.6288                61.9922

                     85                     86                     87
                      A                      A                      A
 Frequencies --   2972.7466              2975.7029              2980.8291
 Red. masses --      1.0614                 1.0568                 1.0457
 Frc consts  --      5.5267                 5.5136                 5.4743
 IR Inten    --     39.0004                58.1226                20.2773

                     88                     89                     90
                      A                      A                      A
 Frequencies --   2981.7891              2987.2994              2990.8345
 Red. masses --      1.0485                 1.0704                 1.0903
 Frc consts  --      5.4925                 5.6281                 5.7462
 IR Inten    --     13.4042                20.9949                18.9650

                     91                     92                     93
                      A                      A                      A
 Frequencies --   3000.2179              3001.6853              3007.4495
 Red. masses --      1.0973                 1.0959                 1.0595
 Frc consts  --      5.8195                 5.8175                 5.6461
 IR Inten    --     14.6422                14.1540                30.3997

                     94                     95                     96
                      A                      A                      A
 Frequencies --   3010.6159              3036.9015              3036.9919
 Red. masses --      1.0857                 1.0931                 1.0944
 Frc consts  --      5.7976                 5.9401                 5.9471
 IR Inten    --     66.5322               113.5913                23.8626

                     97                     98                     99
                      A                      A                      A
 Frequencies --   3044.0758              3055.6719              3057.6747
 Red. masses --      1.1048                 1.0993                 1.1021
 Frc consts  --      6.0320                 6.0477                 6.0709
 IR Inten    --     17.1615                21.7672                13.1709

                    100                    101                    102
                      A                      A                      A
 Frequencies --   3063.8699              3081.6842              3095.4213
 Red. masses --      1.1002                 1.0869                 1.0873
 Frc consts  --      6.0848                 6.0817                 6.1383
 IR Inten    --     41.5194                 7.3495                97.7749

 - Thermochemistry -
 -------------------
 Temperature   298.150 Kelvin.  Pressure   1.00000 Atm.
 Atom     1 has atomic number  6 and mass  12.00000

 Molecular mass:   220.14633 amu.
 Principal axes and moments of inertia in atomic units:
                           1         2         3
     Eigenvalues --  2301.766368734.61028**********
           X            0.99399  -0.03405  -0.10402
           Y            0.03900   0.99818   0.04598
           Z            0.10226  -0.04976   0.99351
 This molecule is an asymmetric top.
 Rotational symmetry number  1.
 Warning -- assumption of classical behavior for rotation
           may cause significant error
 Rotational temperatures (Kelvin)      0.03763     0.00992     0.00823
 Rotational constants (GHZ):           0.78407     0.20662     0.17149
 Zero-point vibrational energy     801993.4 (Joules/Mol)
                                  191.68102 (Kcal/Mol)
 Warning -- explicit consideration of  25 degrees of freedom as
           vibrations may cause significant error
 Vibrational temperatures:     30.54    43.08    86.20    91.56    95.08
          (Kelvin)            106.87   157.78   171.49   186.65   280.64
                              303.86   338.98   355.20   364.45   385.44
                              400.40   471.27   491.00   529.73   580.22
                              626.17   696.62   757.51   817.65   879.56
                              895.87   948.47  1044.15  1051.35  1105.58
                             1117.59  1137.45  1142.62  1161.13  1183.91
                             1279.47  1284.34  1325.00  1341.07  1378.65
                             1422.67  1452.15  1464.19  1507.27  1508.06
                             1577.20  1587.70  1599.36  1601.01  1676.23
                             1749.18  1767.16  1774.96  1802.47  1819.71
                             1828.16  1868.20  1874.94  1894.38  1896.20
                             1921.28  1933.94  1953.49  1965.99  1971.03
                             2004.14  2009.10  2024.38  2085.27  2113.70
                             2129.18  2129.89  2130.75  2134.75  2141.17
                             2147.99  2150.31  2154.64  2165.91  2167.55
                             2184.46  2257.91  4228.28  4251.61  4277.12
                             4281.37  4288.75  4290.13  4298.06  4303.14
                             4316.64  4318.76  4327.05  4331.60  4369.42
                             4369.55  4379.75  4396.43  4399.31  4408.23
                             4433.86  4453.62

 Zero-point correction=                           0.305463 (Hartree/Particle)
 Thermal correction to Energy=                    0.323099
 Thermal correction to Enthalpy=                  0.324043
 Thermal correction to Gibbs Free Energy=         0.257787
 Sum of electronic and zero-point Energies=           -695.838631
 Sum of electronic and thermal Energies=              -695.820995
 Sum of electronic and thermal Enthalpies=            -695.820051
 Sum of electronic and thermal Free Energies=         -695.886306

                     E (Thermal)             CV                S
                      KCal/Mol        Cal/Mol-Kelvin    Cal/Mol-Kelvin
 Total                  202.747             64.787            139.446
 Electronic               0.000              0.000              0.000
 Translational            0.889              2.981             42.070
 Rotational               0.889              2.981             33.714
 Vibrational            200.970             58.825             63.662
 Vibration     1          0.593              1.985              6.516
 Vibration     2          0.594              1.984              5.833
 Vibration     3          0.597              1.973              4.460
 Vibration     4          0.597              1.972              4.341
 Vibration     5          0.597              1.970              4.267
 Vibration     6          0.599              1.966              4.037
 Vibration     7          0.606              1.941              3.275
 Vibration     8          0.609              1.933              3.113
 Vibration     9          0.612              1.924              2.950
 Vibration    10          0.636              1.847              2.179
 Vibration    11          0.643              1.824              2.033
 Vibration    12          0.655              1.786              1.836
 Vibration    13          0.661              1.768              1.753
 Vibration    14          0.664              1.757              1.707
 Vibration    15          0.673              1.732              1.610
 Vibration    16          0.679              1.714              1.544
 Vibration    17          0.711              1.620              1.272
 Vibration    18          0.721              1.593              1.206
 Vibration    19          0.741              1.538              1.087
 Vibration    20          0.769              1.463              0.951
 Vibration    21          0.796              1.393              0.842
 Vibration    22          0.840              1.285              0.699
 Vibration    23          0.881              1.191              0.595
 Vibration    24          0.924              1.100              0.508
 Vibration    25          0.970              1.008              0.431

 Optimization completed.
    -- Stationary point found.
 Normal termination of Gaussian 16 at Thu Jan 11 05:28:43 2024.
