 Gaussian 16, Revision A.03,
 Gaussian 16:  ES64L-G16RevA.03 25-Dec-2016

 ----------------------------------------------------------------
 #P UB3LYP/6-311++G(d,p) SCRF=(PCM,Solvent=n,n-DiMethylFormamide)
 ----------------------------------------------------------------

 -------
 Reduced
 -------
 Symbolic Z-matrix:
 Charge = -2 Multiplicity = 1

                         Standard orientation:
 ---------------------------------------------------------------------
 Center     Atomic      Atomic             Coordinates (Angstroms)
 Number     Number       Type             X           Y           Z
 ---------------------------------------------------------------------
      1          6           0        0.074231    2.275804   -0.165640
      2          6           0        1.221753    1.498520   -0.537912
      3          6           0        1.280391    0.105878   -0.459912
      4          6           0       -1.137101    1.506371    0.319394
      5          6           0       -1.027518    0.066124    0.373057
      6          6           0        0.142766   -0.594319   -0.007900
      7          8           0       -2.203081    2.101998    0.652624
      8          8           0        0.057736    3.537974   -0.236793
      9          6           0       -2.229918   -0.709046    0.851902
     10          6           0       -3.365495   -0.843066   -0.186172
     11          6           0       -4.587724   -1.600737    0.344155
     12          6           0       -5.716181   -1.764913   -0.680669
     13          6           0        2.530732   -0.648888   -0.850987
     14          6           0        3.708050   -0.557913    0.149658
     15          6           0        4.927034   -1.386870   -0.269958
     16          6           0        6.122728   -1.283790    0.682970
     17          1           0        2.084844    2.064339   -0.889140
     18          1           0        0.180098   -1.683280    0.045063
     19          1           0       -2.649694   -0.203581    1.732177
     20          1           0       -1.917793   -1.717325    1.164168
     21          1           0       -2.976668   -1.354763   -1.076957
     22          1           0       -3.655463    0.166700   -0.493633
     23          1           0       -4.975786   -1.076396    1.227121
     24          1           0       -4.276512   -2.594772    0.697049
     25          1           0       -6.081264   -0.790865   -1.024113
     26          1           0       -6.573185   -2.314050   -0.268162
     27          1           0       -5.371345   -2.314652   -1.564045
     28          1           0        2.897730   -0.287318   -1.825198
     29          1           0        2.281336   -1.710351   -0.988882
     30          1           0        3.358354   -0.886865    1.135484
     31          1           0        3.995444    0.494204    0.262326
     32          1           0        5.241730   -1.080481   -1.276681
     33          1           0        4.631403   -2.441793   -0.359996
     34          1           0        6.478203   -0.250487    0.765162
     35          1           0        6.970845   -1.895645    0.348403
     36          1           0        5.858001   -1.621323    1.691295
 ---------------------------------------------------------------------

 SCF Done:  E(UB3LYP) =  -696.417362616     A.U. after   17 cycles

 The electronic state is 1-A.
 Alpha  occ. eigenvalues --  -19.00926 -19.00553 -10.15521 -10.15431 -10.15168
 Alpha  occ. eigenvalues --  -10.15147 -10.14968 -10.14963 -10.14749 -10.14372
 Alpha  occ. eigenvalues --  -10.14006 -10.13435 -10.11752 -10.10826 -10.10592
 Alpha  occ. eigenvalues --  -10.09937  -0.94234  -0.91555  -0.79439  -0.78177
 Alpha  occ. eigenvalues --   -0.76661  -0.72960  -0.70237  -0.66398  -0.64279
 Alpha  occ. eigenvalues --   -0.61137  -0.59029  -0.56554  -0.56194  -0.51094
 Alpha  occ. eigenvalues --   -0.50399  -0.46107  -0.45373  -0.42864  -0.42408
 Alpha  occ. eigenvalues --   -0.41675  -0.41403  -0.39742  -0.39287  -0.38296
 Alpha  occ. eigenvalues --   -0.37852  -0.36348  -0.35961  -0.34941  -0.34022
 Alpha  occ. eigenvalues --   -0.33961  -0.33661  -0.32818  -0.32491  -0.32067
 Alpha  occ. eigenvalues --   -0.31586  -0.31229  -0.30859  -0.30246  -0.28489
 Alpha  occ. eigenvalues --   -0.27293  -0.25230  -0.19911  -0.16723  -0.16555
 Alpha  occ. eigenvalues --   -0.10491
 Alpha virt. eigenvalues --   -0.00034   0.00349   0.01345   0.01443   0.01540
 Alpha virt. eigenvalues --    0.02256   0.02492   0.03154   0.03874   0.04130
 Alpha virt. eigenvalues --    0.04392   0.04605   0.05192   0.05505   0.05779

  Beta  occ. eigenvalues --  -19.00926 -19.00553 -10.15521 -10.15431 -10.15168
  Beta  occ. eigenvalues --  -10.15147 -10.14968 -10.14963 -10.14749 -10.14372
  Beta  occ. eigenvalues --  -10.14006 -10.13435 -10.11752 -10.10826 -10.10592
  Beta  occ. eigenvalues --  -10.09937  -0.94234  -0.91555  -0.79439  -0.78177
  Beta  occ. eigenvalues --   -0.76661  -0.72960  -0.70237  -0.66398  -0.64279
  Beta  occ. eigenvalues --   -0.61137  -0.59029  -0.56554  -0.56194  -0.51094
  Beta  occ. eigenvalues --   -0.50399  -0.46107  -0.45373  -0.42864  -0.42408
  Beta  occ. eigenvalues --   -0.41675  -0.41403  -0.39742  -0.39287  -0.38296
  Beta  occ. eigenvalues --   -0.37852  -0.36348  -0.35961  -0.34941  -0.34022
  Beta  occ. eigenvalues --   -0.33961  -0.33661  -0.32818  -0.32491  -0.32067
  Beta  occ. eigenvalues --   -0.31586  -0.31229  -0.30859  -0.30246  -0.28489
  Beta  occ. eigenvalues --   -0.27293  -0.25230  -0.19911  -0.16723  -0.16555
  Beta  occ. eigenvalues --   -0.10491
  Beta virt. eigenvalues --   -0.00034   0.00349   0.01345   0.01443   0.01540
  Beta virt. eigenvalues --    0.02256   0.02492   0.03154   0.03874   0.04130
  Beta virt. eigenvalues --    0.04392   0.04605   0.05192   0.05505   0.05779

 Mulliken charges and spin densities:
               1          2
     1  C   -0.589497  -0.000000
     2  C   -0.008821  -0.000000
     3  C    0.656229   0.000000
     4  C   -0.383905   0.000000
     5  C    1.149003  -0.000000
     6  C   -1.010112   0.000000
     7  O   -0.677206  -0.000000
     8  O   -0.700074  -0.000000
     9  C   -0.304352   0.000000
    10  C   -0.418466  -0.000000
    11  C   -0.143821   0.000000
    12  C   -0.659426   0.000000
    13  C   -0.327095  -0.000000
    14  C   -0.314779   0.000000
    15  C   -0.192837  -0.000000
    16  C   -0.648478  -0.000000
    17  H    0.112161   0.000000
    18  H    0.135493   0.000000
    19  H    0.137750  -0.000000
    20  H    0.122562   0.000000
    21  H    0.113380  -0.000000
    22  H    0.161905   0.000000
    23  H    0.119882  -0.000000
    24  H    0.113887   0.000000
    25  H    0.137892   0.000000
    26  H    0.136855   0.000000
    27  H    0.136263  -0.000000
    28  H    0.123408  -0.000000
    29  H    0.124727  -0.000000
    30  H    0.124895   0.000000
    31  H    0.115693   0.000000
    32  H    0.123678   0.000000
    33  H    0.119197   0.000000
    34  H    0.140143  -0.000000
    35  H    0.136228  -0.000000
    36  H    0.137639  -0.000000
 Sum of Mulliken charges =  -2.00000  -0.00000

 Dipole moment (field-independent basis, Debye):
    X=              6.4345    Y=            -20.2536    Z=             -1.0158  Tot=             21.2754
 Quadrupole moment (field-independent basis, Debye-Ang):
   XX=           -136.9135   YY=           -174.9502   ZZ=           -114.3608
   XY=             14.3340   XZ=              4.9326   YZ=             -1.7233

 Normal termination of Gaussian 16 at Sat Jan 13 19:21:43 2024.
