 Q-Chem 5.4, Q-Chem, Inc., Pleasanton, CA (2021)
 Q-Chem 5.4.0 for Intel X86 EM64T Linux

User input:
--------------------------------------------------------------
$molecule
-1 2
C                 -2.8936590000      1.3085910000     -0.7452600000
C                 -2.1732080000      0.0820270000     -0.1527180000
C                 -2.7230090000     -0.1373420000      1.2781290000
C                 -2.5297160000     -1.1407540000     -1.0332700000
C                 -0.6428080000      0.2613820000     -0.1026590000
C                 -0.0359640000      1.4211120000     -0.5552240000
C                  1.3776540000      1.6801530000     -0.5495200000
O                  1.8662200000      2.7614070000     -0.9779740000
C                  2.2212100000      0.6040210000     -0.0118260000
C                  3.6205100000      0.7555470000      0.0396870000
C                  4.4265380000     -0.2493950000      0.5434410000
C                  3.8446400000     -1.4438060000      1.0131080000
C                  2.4718440000     -1.6087500000      0.9696040000
C                  1.6322980000     -0.5966840000      0.4599550000
C                  0.1735390000     -0.8173790000      0.4335570000
O                 -0.3065040000     -1.9044570000      0.8649610000
H                 -2.5807140000      1.5088980000     -1.7741180000
H                 -3.9733600000      1.1233000000     -0.7542550000
H                 -2.7147830000      2.2120400000     -0.1550250000
H                 -2.2631150000     -1.0143940000      1.7322810000
H                 -3.8111900000     -0.2775100000      1.2490410000
H                 -2.5110900000      0.7346190000      1.9057950000
H                 -3.6177600000     -1.2814380000     -1.0645480000
H                 -2.0651950000     -2.0431800000     -0.6372270000
H                 -2.1790110000     -0.9870110000     -2.0592080000
H                 -0.6278760000      2.2345090000     -0.9576100000
H                  4.0358400000      1.6866140000     -0.3295960000
H                  5.5045620000     -0.1201490000      0.5777600000
H                  4.4752220000     -2.2347370000      1.4093400000
H                  1.9988870000     -2.5172350000      1.3242860000
$end

$rem
BASIS  =  6-311++G(d,p)
GUI  =  2
JOB_TYPE  =  SP
METHOD  =  B3LYP
SCF_CONVERGENCE  = 8
SOLVENT_METHOD = sm12
$end

$smx
solvent dimethylformamide
charges CM5
$end

--------------------------------------------------------------

             Standard Nuclear Orientation (Angstroms)
    I     Atom           X                Y                Z
 ----------------------------------------------------------------
    1      C      -2.8936590000     1.3085910000    -0.7452600000
    2      C      -2.1732080000     0.0820270000    -0.1527180000
    3      C      -2.7230090000    -0.1373420000     1.2781290000
    4      C      -2.5297160000    -1.1407540000    -1.0332700000
    5      C      -0.6428080000     0.2613820000    -0.1026590000
    6      C      -0.0359640000     1.4211120000    -0.5552240000
    7      C       1.3776540000     1.6801530000    -0.5495200000
    8      O       1.8662200000     2.7614070000    -0.9779740000
    9      C       2.2212100000     0.6040210000    -0.0118260000
   10      C       3.6205100000     0.7555470000     0.0396870000
   11      C       4.4265380000    -0.2493950000     0.5434410000
   12      C       3.8446400000    -1.4438060000     1.0131080000
   13      C       2.4718440000    -1.6087500000     0.9696040000
   14      C       1.6322980000    -0.5966840000     0.4599550000
   15      C       0.1735390000    -0.8173790000     0.4335570000
   16      O      -0.3065040000    -1.9044570000     0.8649610000
   17      H      -2.5807140000     1.5088980000    -1.7741180000
   18      H      -3.9733600000     1.1233000000    -0.7542550000
   19      H      -2.7147830000     2.2120400000    -0.1550250000
   20      H      -2.2631150000    -1.0143940000     1.7322810000
   21      H      -3.8111900000    -0.2775100000     1.2490410000
   22      H      -2.5110900000     0.7346190000     1.9057950000
   23      H      -3.6177600000    -1.2814380000    -1.0645480000
   24      H      -2.0651950000    -2.0431800000    -0.6372270000
   25      H      -2.1790110000    -0.9870110000    -2.0592080000
   26      H      -0.6278760000     2.2345090000    -0.9576100000
   27      H       4.0358400000     1.6866140000    -0.3295960000
   28      H       5.5045620000    -0.1201490000     0.5777600000
   29      H       4.4752220000    -2.2347370000     1.4093400000
   30      H       1.9988870000    -2.5172350000     1.3242860000
 ----------------------------------------------------------------

   17    -692.6249513792      9.24e-09  Convergence criterion met
 Total energy in the final basis set =     -692.7085712281

                    Orbital Energies (a.u.)
 --------------------------------------------------------------

 Alpha MOs
 -- Occupied --
-19.0757 -19.0755 -10.2239 -10.2220 -10.1924 -10.1835 -10.1830 -10.1798
-10.1797 -10.1787 -10.1784 -10.1772 -10.1640 -10.1619 -10.1575 -10.1575
 -1.0005  -0.9974  -0.8647  -0.8346  -0.7929  -0.7575  -0.7408  -0.6912
 -0.6866  -0.6749  -0.6270  -0.6191  -0.5707  -0.5468  -0.5115  -0.4995
 -0.4746  -0.4669  -0.4447  -0.4419  -0.4350  -0.4260  -0.4222  -0.4193
 -0.4067  -0.3956  -0.3894  -0.3788  -0.3745  -0.3658  -0.3630  -0.3537
 -0.3459  -0.3381  -0.3358  -0.3283  -0.2752  -0.2640  -0.2565  -0.2420
 -0.2348  -0.1550

 Beta MOs
 -- Occupied --
-19.0691 -19.0689 -10.2224 -10.2208 -10.1925 -10.1832 -10.1827 -10.1797
-10.1793 -10.1784 -10.1780 -10.1757 -10.1625 -10.1619 -10.1574 -10.1574
 -0.9892  -0.9858  -0.8628  -0.8324  -0.7894  -0.7559  -0.7387  -0.6900
 -0.6863  -0.6669  -0.6255  -0.6164  -0.5687  -0.5451  -0.5094  -0.4972
 -0.4723  -0.4659  -0.4441  -0.4407  -0.4344  -0.4248  -0.4170  -0.4112
 -0.4008  -0.3907  -0.3862  -0.3784  -0.3695  -0.3620  -0.3492  -0.3448
 -0.3443  -0.3365  -0.3318  -0.3276  -0.2576  -0.2514  -0.2448  -0.2360
 -0.2289

          Ground-State Mulliken Net Atomic Charges

     Atom                 Charge (a.u.)    Spin (a.u.)
  --------------------------------------------------------
      1 C                     0.437794      -0.001142
      2 C                     1.426965      -0.021699
      3 C                    -0.466880       0.015050
      4 C                    -0.466214       0.015144
      5 C                     0.718361       0.071438
      6 C                    -0.807318       0.099169
      7 C                    -1.752692       0.063422
      8 O                    -0.356122       0.243270
      9 C                    -1.154695       0.037799
     10 C                    -0.093497       0.019853
     11 C                     0.997974       0.027119
     12 C                     1.077882       0.028166
     13 C                     0.162359       0.044891
     14 C                    -0.817518       0.043170
     15 C                    -2.432540       0.086740
     16 O                    -0.220397       0.248650
     17 H                     0.139275      -0.000633
     18 H                     0.341269       0.000097
     19 H                     0.139599      -0.000647
     20 H                     0.111177      -0.002507
     21 H                     0.271596       0.001275
     22 H                     0.094166       0.000408
     23 H                     0.271741       0.001288
     24 H                     0.110810      -0.002508
     25 H                     0.094229       0.000386
     26 H                     0.138007      -0.009556
     27 H                     0.140620      -0.002390
     28 H                     0.367893      -0.002077
     29 H                     0.364269      -0.001974
     30 H                     0.161887      -0.002199
  --------------------------------------------------------
  Sum of atomic charges =    -1.000000

                    Cartesian Multipole Moments
 -----------------------------------------------------------------
    Charge (ESU x 10^10)
                -4.8032
    Dipole Moment (Debye)
         X      -4.1084      Y      -2.2750      Z       0.3358
       Tot       4.7082
    Quadrupole Moments (Debye-Ang)
        XX    -112.8195     XY     -13.1500     YY    -126.6179
        XZ       4.6928     YZ       8.6007     ZZ    -107.2400

 Total job time:  794.22s(wall), 6197.67s(cpu)
        *  Thank you very much for using Q-Chem.  Have a nice day.  *
