 Q-Chem 5.4, Q-Chem, Inc., Pleasanton, CA (2021)
 Q-Chem 5.4.0 for Intel X86 EM64T Linux

User input:
--------------------------------------------------------------
$molecule
-2 1
C                 -0.2921660000      1.7929220000     -1.2443950000
C                 -1.2554330000      1.6739110000     -0.1496820000
C                 -1.0291850000      0.9493060000      0.9710360000
C                  0.1686920000      0.1488330000      1.1956210000
C                  1.1509580000      0.1671480000      0.1290150000
C                  0.9368180000      1.1149530000     -0.9882010000
O                 -0.5949650000      2.4746110000     -2.2679770000
O                  0.2074050000     -0.5411700000      2.2710060000
S                  2.2531710000      1.7213190000     -2.0426420000
C                  3.8264390000      1.4784680000     -1.1237940000
C                  4.0047250000      2.0872080000      0.1156280000
C                  4.8859830000      0.8408220000     -1.7594650000
C                  6.1434550000      0.8248680000     -1.1569710000
C                  5.2600170000      2.0524470000      0.7253940000
C                  6.3335430000      1.4283370000      0.0887270000
O                  2.2066920000      3.2073980000     -2.0994740000
O                  2.4342870000      1.0492570000     -3.3511530000
H                 -2.1799750000      2.2334850000     -0.2855410000
H                 -1.7664790000      0.8970700000      1.7702110000
H                  3.1668360000      2.5812660000      0.5916550000
H                  4.6955020000      0.3583150000     -2.7099760000
H                  6.9725360000      0.3255840000     -1.6510280000
H                  5.3974420000      2.5122720000      1.6997730000
H                  7.3100260000      1.4031360000      0.5646840000
C                  2.1618350000     -0.8713420000     -0.0467520000
O                  2.6919930000     -1.0216510000     -1.1638010000
C                  2.6745350000     -1.8641250000      1.0649480000
C                  3.0714320000     -1.1319220000      2.3627260000
C                  1.6074040000     -2.9475180000      1.3362690000
C                  3.9359250000     -2.5754890000      0.5281210000
H                  2.2076050000     -0.6233330000      2.7904070000
H                  3.8696770000     -0.4097750000      2.1612350000
H                  3.4531590000     -1.8590440000      3.0953940000
H                  0.7013270000     -2.4966510000      1.7421610000
H                  1.9943710000     -3.6793300000      2.0609860000
H                  1.3744790000     -3.4836380000      0.4087850000
H                  4.7312070000     -1.8614680000      0.3002670000
H                  3.7238260000     -3.1291430000     -0.3883450000
H                  4.3021110000     -3.2753270000      1.2919370000
$end
$rem
MAX_SCF_CYCLES=200
BASIS  =  6-311++G(d,p)
GUI  =  2
JOB_TYPE  =  SP
METHOD  =  B3LYP
SOLVENT_METHOD = PCM
$end
$pcm
theory = CPCM
$end
$solvent
dielectric 37.219
opticaldielectric 1.43
$end

--------------------------------------------------------------

             Standard Nuclear Orientation (Angstroms)
    I     Atom           X                Y                Z
 ----------------------------------------------------------------
    1      C      -0.2921660000     1.7929220000    -1.2443950000
    2      C      -1.2554330000     1.6739110000    -0.1496820000
    3      C      -1.0291850000     0.9493060000     0.9710360000
    4      C       0.1686920000     0.1488330000     1.1956210000
    5      C       1.1509580000     0.1671480000     0.1290150000
    6      C       0.9368180000     1.1149530000    -0.9882010000
    7      O      -0.5949650000     2.4746110000    -2.2679770000
    8      O       0.2074050000    -0.5411700000     2.2710060000
    9      S       2.2531710000     1.7213190000    -2.0426420000
   10      C       3.8264390000     1.4784680000    -1.1237940000
   11      C       4.0047250000     2.0872080000     0.1156280000
   12      C       4.8859830000     0.8408220000    -1.7594650000
   13      C       6.1434550000     0.8248680000    -1.1569710000
   14      C       5.2600170000     2.0524470000     0.7253940000
   15      C       6.3335430000     1.4283370000     0.0887270000
   16      O       2.2066920000     3.2073980000    -2.0994740000
   17      O       2.4342870000     1.0492570000    -3.3511530000
   18      H      -2.1799750000     2.2334850000    -0.2855410000
   19      H      -1.7664790000     0.8970700000     1.7702110000
   20      H       3.1668360000     2.5812660000     0.5916550000
   21      H       4.6955020000     0.3583150000    -2.7099760000
   22      H       6.9725360000     0.3255840000    -1.6510280000
   23      H       5.3974420000     2.5122720000     1.6997730000
   24      H       7.3100260000     1.4031360000     0.5646840000
   25      C       2.1618350000    -0.8713420000    -0.0467520000
   26      O       2.6919930000    -1.0216510000    -1.1638010000
   27      C       2.6745350000    -1.8641250000     1.0649480000
   28      C       3.0714320000    -1.1319220000     2.3627260000
   29      C       1.6074040000    -2.9475180000     1.3362690000
   30      C       3.9359250000    -2.5754890000     0.5281210000
   31      H       2.2076050000    -0.6233330000     2.7904070000
   32      H       3.8696770000    -0.4097750000     2.1612350000
   33      H       3.4531590000    -1.8590440000     3.0953940000
   34      H       0.7013270000    -2.4966510000     1.7421610000
   35      H       1.9943710000    -3.6793300000     2.0609860000
   36      H       1.3744790000    -3.4836380000     0.4087850000
   37      H       4.7312070000    -1.8614680000     0.3002670000
   38      H       3.7238260000    -3.1291430000    -0.3883450000
   39      H       4.3021110000    -3.2753270000     1.2919370000
 ----------------------------------------------------------------

    9   -1432.2515899023      7.79e-06  Convergence criterion met
 Total energy in the final basis set =    -1432.2515899023

                    Orbital Energies (a.u.)
 --------------------------------------------------------------

 Alpha MOs
 -- Occupied --
-89.0301 -19.0977 -19.0906 -19.0704 -19.0449 -19.0444 -10.2247 -10.2090
-10.2074 -10.1962 -10.1796 -10.1773 -10.1770 -10.1765 -10.1761 -10.1682
-10.1661 -10.1562 -10.1549 -10.1531 -10.1373 -10.1360 -10.1326  -8.0933
 -6.0560  -6.0552  -6.0541  -1.0834  -1.0031  -0.9778  -0.9704  -0.9669
 -0.8626  -0.8058  -0.7905  -0.7658  -0.7507  -0.7403  -0.6970  -0.6659
 -0.6621  -0.6500  -0.6176  -0.6108  -0.5913  -0.5657  -0.5484  -0.5211
 -0.4886  -0.4817  -0.4689  -0.4633  -0.4563  -0.4466  -0.4427  -0.4369
 -0.4307  -0.4256  -0.4237  -0.4201  -0.4033  -0.3981  -0.3893  -0.3766
 -0.3729  -0.3682  -0.3665  -0.3643  -0.3552  -0.3526  -0.3476  -0.3449
 -0.3372  -0.3311  -0.3200  -0.3097  -0.3060  -0.3021  -0.2926  -0.2831
 -0.2595  -0.2549  -0.2497  -0.2355  -0.2240  -0.2172  -0.2106  -0.1511

          Ground-State Mulliken Net Atomic Charges

     Atom                 Charge (a.u.)
  ----------------------------------------
      1 C                    -0.416743
      2 C                    -0.140109
      3 C                    -0.351992
      4 C                    -0.787069
      5 C                     0.843349
      6 C                    -0.436589
      7 O                    -0.555323
      8 O                    -0.489427
      9 S                     1.144506
     10 C                    -0.330325
     11 C                    -0.133755
     12 C                     0.076078
     13 C                    -0.478967
     14 C                    -0.483515
     15 C                    -0.370809
     16 O                    -0.230639
     17 O                    -0.288959
     18 H                     0.198889
     19 H                     0.194297
     20 H                     0.235748
     21 H                     0.240729
     22 H                     0.222927
     23 H                     0.225698
     24 H                     0.201290
     25 C                     0.015155
     26 O                    -0.309653
     27 C                     0.684036
     28 C                    -0.557926
     29 C                    -0.695925
     30 C                    -0.635718
     31 H                     0.189917
     32 H                     0.148876
     33 H                     0.154358
     34 H                     0.173645
     35 H                     0.154834
     36 H                     0.147945
     37 H                     0.126849
     38 H                     0.161169
     39 H                     0.153149
  ----------------------------------------
  Sum of atomic charges =    -2.000000

                    Cartesian Multipole Moments
 -----------------------------------------------------------------
    Charge (ESU x 10^10)
                -9.6064
    Dipole Moment (Debye)
         X      -8.1962      Y     -10.2125      Z      12.4561
       Tot      18.0728
    Quadrupole Moments (Debye-Ang)
        XX    -163.1951     XY      -5.0488     YY    -196.3954
        XZ      21.9418     YZ      40.2345     ZZ    -212.9963

 Total job time:  122.78s(wall), 889.05s(cpu)
        *  Thank you very much for using Q-Chem.  Have a nice day.  *
