 Q-Chem 5.4, Q-Chem, Inc., Pleasanton, CA (2021)
 Q-Chem 5.4.0 for Intel X86 EM64T Linux

User input:
--------------------------------------------------------------
$molecule
-2 1
C                  5.7947660000     -5.1056190000      1.2602130000
C                  6.7865390000     -5.0510130000      0.3118590000
C                  6.6689280000     -4.1199000000     -0.7826290000
C                  4.6392070000     -4.2784540000      1.2183050000
C                  4.5205450000     -3.3378820000      0.1126650000
C                  5.5378660000     -3.2935300000     -0.8450970000
C                  3.6384000000     -4.3860990000      2.2428970000
C                  2.5208630000     -3.4912150000      2.0798290000
C                  2.3933030000     -2.5759510000      1.0150990000
C                  3.3745840000     -2.4439240000     -0.0236970000
O                  3.7308770000     -5.2185630000      3.2329480000
O                  3.2637440000     -1.6106750000     -0.9984570000
C                  7.6796810000     -4.0490330000     -1.7686810000
N                  8.5326230000     -4.0152600000     -2.5672570000
H                  5.8580630000     -5.7974070000      2.0947810000
H                  7.6582290000     -5.6966040000      0.3712610000
H                  5.4176360000     -2.5814460000     -1.6553240000
C                  1.4436500000     -3.5722070000      3.1371330000
C                  1.1846210000     -1.6728420000      0.9230290000
H                  1.7341750000     -4.3393590000      3.8587000000
H                  0.4617260000     -3.8327570000      2.7127910000
H                  1.3067610000     -2.6167020000      3.6668740000
H                  0.2417970000     -2.2373570000      0.8465100000
H                  1.2910980000     -1.0485540000      0.0327930000
H                  1.0800160000     -1.0181750000      1.8026130000
$end

$rem
BASIS  =  6-311++G(d,p)
GUI  =  2
JOB_TYPE  =  SP
METHOD  =  B3LYP
SCF_CONVERGENCE  = 8
SOLVENT_METHOD = sm12
$end

$smx
solvent dimethylformamide
charges CM5
$end

--------------------------------------------------------------

             Standard Nuclear Orientation (Angstroms)
    I     Atom           X                Y                Z
 ----------------------------------------------------------------
    1      C       5.7947660000    -5.1056190000     1.2602130000
    2      C       6.7865390000    -5.0510130000     0.3118590000
    3      C       6.6689280000    -4.1199000000    -0.7826290000
    4      C       4.6392070000    -4.2784540000     1.2183050000
    5      C       4.5205450000    -3.3378820000     0.1126650000
    6      C       5.5378660000    -3.2935300000    -0.8450970000
    7      C       3.6384000000    -4.3860990000     2.2428970000
    8      C       2.5208630000    -3.4912150000     2.0798290000
    9      C       2.3933030000    -2.5759510000     1.0150990000
   10      C       3.3745840000    -2.4439240000    -0.0236970000
   11      O       3.7308770000    -5.2185630000     3.2329480000
   12      O       3.2637440000    -1.6106750000    -0.9984570000
   13      C       7.6796810000    -4.0490330000    -1.7686810000
   14      N       8.5326230000    -4.0152600000    -2.5672570000
   15      H       5.8580630000    -5.7974070000     2.0947810000
   16      H       7.6582290000    -5.6966040000     0.3712610000
   17      H       5.4176360000    -2.5814460000    -1.6553240000
   18      C       1.4436500000    -3.5722070000     3.1371330000
   19      C       1.1846210000    -1.6728420000     0.9230290000
   20      H       1.7341750000    -4.3393590000     3.8587000000
   21      H       0.4617260000    -3.8327570000     2.7127910000
   22      H       1.3067610000    -2.6167020000     3.6668740000
   23      H       0.2417970000    -2.2373570000     0.8465100000
   24      H       1.2910980000    -1.0485540000     0.0327930000
   25      H       1.0800160000    -1.0181750000     1.8026130000
 ----------------------------------------------------------------

   19    -706.1865457258      2.96e-09  Convergence criterion met
 Total energy in the final basis set =     -706.4495668387

                    Orbital Energies (a.u.)
 --------------------------------------------------------------

 Alpha MOs
 -- Occupied --
-19.0362 -19.0245 -14.3236 -10.2285 -10.2037 -10.1960 -10.1879 -10.1863
-10.1825 -10.1731 -10.1634 -10.1629 -10.1628 -10.1581 -10.1554 -10.1534
 -0.9530  -0.9389  -0.9234  -0.8562  -0.8063  -0.7665  -0.7549  -0.7229
 -0.6835  -0.6573  -0.6126  -0.5939  -0.5551  -0.5270  -0.4990  -0.4636
 -0.4604  -0.4319  -0.4307  -0.4140  -0.4051  -0.4050  -0.3966  -0.3904
 -0.3839  -0.3799  -0.3710  -0.3674  -0.3631  -0.3469  -0.3333  -0.3303
 -0.3209  -0.3203  -0.2574  -0.2403  -0.2262  -0.2134  -0.2019  -0.1284

          Ground-State Mulliken Net Atomic Charges

     Atom                 Charge (a.u.)
  ----------------------------------------
      1 C                    -0.208678
      2 C                     0.789174
      3 C                     2.319512
      4 C                    -1.604227
      5 C                    -1.987117
      6 C                    -0.313704
      7 C                    -1.924427
      8 C                    -0.028685
      9 C                     0.343896
     10 C                    -1.811230
     11 O                    -0.370041
     12 O                    -0.338807
     13 C                    -0.349325
     14 N                    -0.300399
     15 H                     0.153230
     16 H                     0.348721
     17 H                     0.135553
     18 C                     0.937272
     19 C                     0.940286
     20 H                     0.204103
     21 H                     0.217203
     22 H                     0.216064
     23 H                     0.212971
     24 H                     0.204782
     25 H                     0.213873
  ----------------------------------------
  Sum of atomic charges =    -2.000000

                    Cartesian Multipole Moments
 -----------------------------------------------------------------
    Charge (ESU x 10^10)
                -9.6064
    Dipole Moment (Debye)
         X     -44.4060      Y      34.9410      Z      -3.9133
       Tot      56.6399
    Quadrupole Moments (Debye-Ang)
        XX    -359.9376     XY     171.5449     YY    -253.3484
        XZ      13.6305     YZ      33.6386     ZZ    -158.9101

 Total job time:  543.76s(wall), 4251.13s(cpu)
        *  Thank you very much for using Q-Chem.  Have a nice day.  *
