 Gaussian 16, Revision A.03,
 Gaussian 16:  ES64L-G16RevA.03 25-Dec-2016

 ----------------------------------------------------------------------
 #P UB3LYP/6-311++G(d,p) nosym opt freq SCRF=(PCM,Solvent=n,n-DiMethylF
 ormamide)
 ----------------------------------------------------------------------

 --------
 Oxidized
 --------
 Symbolic Z-matrix:
 Charge =  0 Multiplicity = 1

 SCF Done:  E(UB3LYP) =  -5764.59742738     A.U. after   16 cycles
 SCF Done:  E(UB3LYP) =  -5764.59746304     A.U. after   11 cycles
 SCF Done:  E(UB3LYP) =  -5764.59748025     A.U. after   10 cycles
 SCF Done:  E(UB3LYP) =  -5764.59747873     A.U. after    9 cycles
 SCF Done:  E(UB3LYP) =  -5764.59747865     A.U. after   10 cycles
 SCF Done:  E(UB3LYP) =  -5764.59748116     A.U. after    9 cycles
 SCF Done:  E(UB3LYP) =  -5764.59748108     A.U. after    9 cycles
 SCF Done:  E(UB3LYP) =  -5764.59748144     A.U. after    9 cycles
 Optimization completed.
    -- Stationary point found.
 Normal termination of Gaussian 16 at Sat Feb 10 10:34:16 2024.

 ----------------------------------------------------------------------
 #P Geom=AllCheck Guess=TCheck SCRF=Check GenChk UB3LYP/6-311++G(d,p) F
 req
 ----------------------------------------------------------------------

 Structure from the checkpoint file:  "020.chk"
 --------
 Oxidized
 --------
 Charge =  0 Multiplicity = 1

                          Input orientation:
 ---------------------------------------------------------------------
 Center     Atomic      Atomic             Coordinates (Angstroms)
 Number     Number       Type             X           Y           Z
 ---------------------------------------------------------------------
      1          6           0       -2.022207    0.363351    1.507579
      2          6           0       -2.952408    1.224079    0.699800
      3          6           0       -2.570800    1.533631   -0.553725
      4          6           0       -1.288453    1.072697   -1.174220
      5          6           0       -0.358433    0.211647   -0.366575
      6          6           0       -0.740032   -0.097887    0.886957
      7          8           0       -1.000267    1.387425   -2.312868
      8          8           0       -2.310411    0.048597    2.646214
      9         35           0        0.322331   -1.181671    2.052610
     10         35           0       -3.633334    2.617112   -1.719505
     11          6           0        0.936085   -0.244028   -1.015156
     12          6           0        1.871228    0.935983   -1.349892
     13          6           0        0.692633   -1.159226   -2.232495
     14          6           0       -4.247104    1.679428    1.348251
     15          6           0       -4.004027    2.595328    2.565140
     16          6           0       -5.181627    0.499108    1.683616
     17          1           0        1.447396   -0.847359   -0.265526
     18          1           0        2.048027    1.560911   -0.470527
     19          1           0        1.465145    1.560756   -2.145316
     20          1           0        2.836247    0.542152   -1.679718
     21          1           0        0.045463   -2.000387   -1.970457
     22          1           0        1.650185   -1.566035   -2.568230
     23          1           0        0.239920   -0.616602   -3.062251
     24          1           0       -4.758764    2.282153    0.598371
     25          1           0       -4.961758    3.001826    2.900743
     26          1           0       -3.357288    3.436680    2.302658
     27          1           0       -3.550993    2.053320    3.395122
     28          1           0       -6.146813    0.892613    2.013342
     29          1           0       -4.775167   -0.125094    2.479298
     30          1           0       -5.358193   -0.126319    0.804558
 ---------------------------------------------------------------------

 SCF Done:  E(UB3LYP) =  -5764.59748144     A.U. after    1 cycles

 Alpha  occ. eigenvalues -- -482.84890-482.84890 -62.50163 -62.50163 -56.32206
 Alpha  occ. eigenvalues --  -56.32206 -56.31824 -56.31824 -56.31780 -56.31780
 Alpha  occ. eigenvalues --  -19.15168 -19.15168 -10.30484 -10.30483 -10.26481
 Alpha  occ. eigenvalues --  -10.26480 -10.23327 -10.23326 -10.19776 -10.19775
 Alpha  occ. eigenvalues --  -10.16493 -10.16493 -10.16488 -10.16488  -8.71133
 Alpha  occ. eigenvalues --   -8.71133  -6.54290  -6.54290  -6.53019  -6.53019
 Alpha  occ. eigenvalues --   -6.52897  -6.52897  -2.65382  -2.65382  -2.65039
 Alpha  occ. eigenvalues --   -2.65039  -2.64947  -2.64946  -2.63935  -2.63935
 Alpha  occ. eigenvalues --   -2.63934  -2.63934  -1.08869  -1.08673  -0.89627
 Alpha  occ. eigenvalues --   -0.86661  -0.81294  -0.81147  -0.79080  -0.74650
 Alpha  occ. eigenvalues --   -0.70189  -0.69278  -0.69271  -0.65599  -0.60769
 Alpha  occ. eigenvalues --   -0.59960  -0.57078  -0.55656  -0.49469  -0.48876
 Alpha  occ. eigenvalues --   -0.47350  -0.47239  -0.46060  -0.44328  -0.44324
 Alpha  occ. eigenvalues --   -0.44016  -0.43690  -0.42387  -0.41622  -0.40833
 Alpha  occ. eigenvalues --   -0.38955  -0.38946  -0.37467  -0.36700  -0.36363
 Alpha  occ. eigenvalues --   -0.35639  -0.35628  -0.35267  -0.34450  -0.34437
 Alpha  occ. eigenvalues --   -0.30993  -0.29982  -0.29346  -0.29310  -0.28751
 Alpha  occ. eigenvalues --   -0.27178
 Alpha virt. eigenvalues --   -0.14346  -0.03872  -0.03019  -0.02929  -0.01705
 Alpha virt. eigenvalues --   -0.00633   0.00118   0.01233   0.01429   0.01836
 Alpha virt. eigenvalues --    0.02075   0.02695   0.03852   0.03948   0.04337

  Beta  occ. eigenvalues -- -482.84890-482.84890 -62.50163 -62.50163 -56.32206
  Beta  occ. eigenvalues --  -56.32206 -56.31824 -56.31824 -56.31780 -56.31780
  Beta  occ. eigenvalues --  -19.15168 -19.15168 -10.30484 -10.30483 -10.26481
  Beta  occ. eigenvalues --  -10.26480 -10.23327 -10.23326 -10.19776 -10.19775
  Beta  occ. eigenvalues --  -10.16493 -10.16493 -10.16488 -10.16488  -8.71133
  Beta  occ. eigenvalues --   -8.71133  -6.54290  -6.54290  -6.53019  -6.53019
  Beta  occ. eigenvalues --   -6.52897  -6.52897  -2.65382  -2.65382  -2.65039
  Beta  occ. eigenvalues --   -2.65039  -2.64947  -2.64946  -2.63935  -2.63935
  Beta  occ. eigenvalues --   -2.63934  -2.63934  -1.08869  -1.08673  -0.89627
  Beta  occ. eigenvalues --   -0.86661  -0.81294  -0.81147  -0.79080  -0.74650
  Beta  occ. eigenvalues --   -0.70189  -0.69278  -0.69271  -0.65599  -0.60769
  Beta  occ. eigenvalues --   -0.59960  -0.57078  -0.55656  -0.49469  -0.48876
  Beta  occ. eigenvalues --   -0.47350  -0.47239  -0.46060  -0.44328  -0.44324
  Beta  occ. eigenvalues --   -0.44016  -0.43690  -0.42387  -0.41622  -0.40833
  Beta  occ. eigenvalues --   -0.38955  -0.38946  -0.37467  -0.36700  -0.36363
  Beta  occ. eigenvalues --   -0.35639  -0.35628  -0.35267  -0.34450  -0.34437
  Beta  occ. eigenvalues --   -0.30993  -0.29982  -0.29346  -0.29310  -0.28751
  Beta  occ. eigenvalues --   -0.27178
  Beta virt. eigenvalues --   -0.14346  -0.03872  -0.03019  -0.02929  -0.01705
  Beta virt. eigenvalues --   -0.00633   0.00118   0.01233   0.01429   0.01836
  Beta virt. eigenvalues --    0.02075   0.02695   0.03852   0.03948   0.04337

 Mulliken charges and spin densities:
               1          2
     1  C   -1.224592   0.000000
     2  C    1.453429  -0.000000
     3  C    0.012708  -0.000000
     4  C   -1.224588   0.000000
     5  C    1.453453  -0.000000
     6  C    0.012712  -0.000000
     7  O   -0.162769  -0.000000
     8  O   -0.162768  -0.000000
     9  Br  -0.067245   0.000000
    10  Br  -0.067245   0.000000
    11  C    0.256278   0.000000
    12  C   -0.719472  -0.000000
    13  C   -0.718744  -0.000000
    14  C    0.256280   0.000000
    15  C   -0.718724   0.000000
    16  C   -0.719486   0.000000
    17  H    0.184025  -0.000000
    18  H    0.139007  -0.000000
    19  H    0.185939  -0.000000
    20  H    0.168286   0.000000
    21  H    0.138988  -0.000000
    22  H    0.168335   0.000000
    23  H    0.185805  -0.000000
    24  H    0.184027  -0.000000
    25  H    0.168365   0.000000
    26  H    0.138992  -0.000000
    27  H    0.185822  -0.000000
    28  H    0.168253  -0.000000
    29  H    0.185925  -0.000000
    30  H    0.139002  -0.000000
 Sum of Mulliken charges =  -0.00000   0.00000

 Dipole moment (field-independent basis, Debye):
    X=             -0.0001    Y=             -0.0002    Z=             -0.0000  Tot=              0.0002
 Quadrupole moment (field-independent basis, Debye-Ang):
   XX=           -111.1724   YY=           -121.0792   ZZ=           -136.3348
   XY=             -4.3356   XZ=             -1.8324   YZ=              7.7507

  Exact polarizability: 249.880 -32.903 221.222 -15.269 -54.702 331.164
 Approx polarizability: 261.168 -25.538 246.086 -23.011 -79.445 419.374

                      1                      2                      3
                      A                      A                      A
 Frequencies --     14.9594                35.9665                41.1313
 Red. masses --      4.3121                 5.8725                 3.5555
 Frc consts  --      0.0006                 0.0045                 0.0035
 IR Inten    --      4.2027                 0.5350                 0.0000

                      4                      5                      6
                      A                      A                      A
 Frequencies --     62.2360                82.4935               142.5621
 Red. masses --      3.5927                 4.4022                 6.1880
 Frc consts  --      0.0082                 0.0177                 0.0741
 IR Inten    --      0.2556                 0.0000                 0.9766

                      7                      8                      9
                      A                      A                      A
 Frequencies --    150.5260               153.2453               170.1591
 Red. masses --      5.2103                 2.8189                 5.0879
 Frc consts  --      0.0696                 0.0390                 0.0868
 IR Inten    --      0.0003                 5.3388                 2.2885

                     10                     11                     12
                      A                      A                      A
 Frequencies --    176.5938               191.9754               222.1565
 Red. masses --      1.9325                21.8862                 1.2322
 Frc consts  --      0.0355                 0.4752                 0.0358
 IR Inten    --      0.0000                 0.0000                 0.0003

                     13                     14                     15
                      A                      A                      A
 Frequencies --    224.4368               226.1380               231.8655
 Red. masses --      1.0848                 1.2051                 1.5477
 Frc consts  --      0.0322                 0.0363                 0.0490
 IR Inten    --      0.8305                 1.8716                 0.0000

                     16                     17                     18
                      A                      A                      A
 Frequencies --    233.5902               304.1192               311.4330
 Red. masses --      2.0913                 4.5799                 2.9098
 Frc consts  --      0.0672                 0.2496                 0.1663
 IR Inten    --      0.0000                 0.2178                 0.9412

                     19                     20                     21
                      A                      A                      A
 Frequencies --    312.9500               338.2095               342.2609
 Red. masses --      7.6537                 9.5967                13.6337
 Frc consts  --      0.4416                 0.6468                 0.9410
 IR Inten    --      0.0000                 0.0000                 3.8264

                     22                     23                     24
                      A                      A                      A
 Frequencies --    416.1902               462.2941               468.5902
 Red. masses --      2.9894                 2.8454                 5.5058
 Frc consts  --      0.3051                 0.3583                 0.7123
 IR Inten    --      0.0000                 1.2100                65.5887

                     25                     26                     27
                      A                      A                      A
 Frequencies --    470.7395               502.8926               528.7633
 Red. masses --      4.2365                 5.1747                 6.2090
 Frc consts  --      0.5531                 0.7711                 1.0228
 IR Inten    --      0.0001                 0.0000                 0.0000

                     28                     29                     30
                      A                      A                      A
 Frequencies --    611.6894               715.5263               743.7227
 Red. masses --      8.4605                 3.9413                 6.3634
 Frc consts  --      1.8651                 1.1889                 2.0738
 IR Inten    --      2.1755               270.2341                 0.0000

                     31                     32                     33
                      A                      A                      A
 Frequencies --    756.6043               783.3797               803.3393
 Red. masses --      9.0272                 7.0641                10.1593
 Frc consts  --      3.0447                 2.5542                 3.8629
 IR Inten    --     30.8673                 0.0000                 0.0000

                     34                     35                     36
                      A                      A                      A
 Frequencies --    848.6259               865.4325               932.3310
 Red. masses --      4.7641                 3.0955                 3.1912
 Frc consts  --      2.0215                 1.3660                 1.6343
 IR Inten    --     36.1587                 0.0000                 2.4243

                     37                     38                     39
                      A                      A                      A
 Frequencies --    936.7710               936.7915               967.4213
 Red. masses --      1.1543                 1.1542                 1.5332
 Frc consts  --      0.5968                 0.5968                 0.8455
 IR Inten    --      0.0144                 4.8305                 0.2647

                     40                     41                     42
                      A                      A                      A
 Frequencies --    967.4350               987.4674              1034.1613
 Red. masses --      1.5303                 2.7374                 2.2694
 Frc consts  --      0.8438                 1.5726                 1.4300
 IR Inten    --      0.0029                 0.0000               490.4863

                     43                     44                     45
                      A                      A                      A
 Frequencies --   1109.9825              1112.6114              1118.5807
 Red. masses --      2.4728                 2.4819                 2.1459
 Frc consts  --      1.7950                 1.8102                 1.5820
 IR Inten    --      0.0000                 6.7623                 0.0000

                     46                     47                     48
                      A                      A                      A
 Frequencies --   1180.3736              1190.8020              1193.1986
 Red. masses --      2.3454                 3.1725                 2.0382
 Frc consts  --      1.9253                 2.6505                 1.7097
 IR Inten    --     55.8249                94.1295                 0.0000

                     49                     50                     51
                      A                      A                      A
 Frequencies --   1248.7885              1275.5492              1344.4022
 Red. masses --      5.7700                 6.3346                 1.2938
 Frc consts  --      5.3016                 6.0725                 1.3778
 IR Inten    --    392.9836                 0.0000                 3.5123

                     52                     53                     54
                      A                      A                      A
 Frequencies --   1344.5011              1381.9699              1382.2925
 Red. masses --      1.2920                 1.2590                 1.2627
 Frc consts  --      1.3760                 1.4167                 1.4215
 IR Inten    --      0.0000                16.0584                 0.0000

                     55                     56                     57
                      A                      A                      A
 Frequencies --   1389.2685              1389.3201              1407.1657
 Red. masses --      1.2012                 1.2014                 1.2122
 Frc consts  --      1.3660                 1.3662                 1.4142
 IR Inten    --      0.0214                11.9025                16.5982

                     58                     59                     60
                      A                      A                      A
 Frequencies --   1407.2869              1478.6713              1478.6957
 Red. masses --      1.2197                 1.0404                 1.0404
 Frc consts  --      1.4232                 1.3402                 1.3403
 IR Inten    --      0.0613                 0.0026                 3.8358

                     61                     62                     63
                      A                      A                      A
 Frequencies --   1489.3540              1489.4507              1490.4046
 Red. masses --      1.0436                 1.0434                 1.0473
 Frc consts  --      1.3639                 1.3639                 1.3707
 IR Inten    --      0.0750                56.5947                 1.1988

                     64                     65                     66
                      A                      A                      A
 Frequencies --   1490.4143              1504.6141              1504.8600
 Red. masses --      1.0473                 1.0607                 1.0592
 Frc consts  --      1.3707                 1.4147                 1.4133
 IR Inten    --      6.3215                17.6720                 0.0020

                     67                     68                     69
                      A                      A                      A
 Frequencies --   1605.2432              1640.9121              1703.4347
 Red. masses --      9.7795                10.0036                12.7165
 Frc consts  --     14.8473                15.8701                21.7404
 IR Inten    --    236.4218                 0.0000              1032.4478

                     70                     71                     72
                      A                      A                      A
 Frequencies --   1711.2696              3031.2813              3031.2993
 Red. masses --     12.8935                 1.0361                 1.0361
 Frc consts  --     22.2463                 5.6095                 5.6095
 IR Inten    --      0.0000                 5.5003               102.9598

                     73                     74                     75
                      A                      A                      A
 Frequencies --   3034.0925              3034.2677              3085.8795
 Red. masses --      1.0369                 1.0369                 1.0850
 Frc consts  --      5.6240                 5.6245                 6.0875
 IR Inten    --     69.7835                 0.0082                 0.0485

                     76                     77                     78
                      A                      A                      A
 Frequencies --   3085.9188              3090.4214              3090.4484
 Red. masses --      1.0850                 1.1024                 1.1024
 Frc consts  --      6.0877                 6.2035                 6.2037
 IR Inten    --      0.0000                 0.4506                48.9680

                     79                     80                     81
                      A                      A                      A
 Frequencies --   3091.5935              3091.6334              3122.3780
 Red. masses --      1.1015                 1.1014                 1.1008
 Frc consts  --      6.2028                 6.2027                 6.3231
 IR Inten    --    124.1799                 0.0895                 0.7525

                     82                     83                     84
                      A                      A                      A
 Frequencies --   3122.3894              3128.1626              3128.1733
 Red. masses --      1.1008                 1.0987                 1.0987
 Frc consts  --      6.3231                 6.3344                 6.3345
 IR Inten    --      0.3966                71.3813                20.6528

 - Thermochemistry -
 -------------------
 Temperature   298.150 Kelvin.  Pressure   1.00000 Atm.
 Atom     1 has atomic number  6 and mass  12.00000

 Molecular mass:   347.93605 amu.
 Principal axes and moments of inertia in atomic units:
                           1         2         3
     Eigenvalues --  4314.554887849.01474**********
           X            0.73939  -0.49170   0.45993
           Y           -0.56695  -0.08626   0.81922
           Z            0.36314   0.86648   0.34255
 This molecule is an asymmetric top.
 Rotational symmetry number  1.
 Warning -- assumption of classical behavior for rotation
           may cause significant error
 Rotational temperatures (Kelvin)      0.02007     0.01104     0.00762
 Rotational constants (GHZ):           0.41829     0.22993     0.15878
 Zero-point vibrational energy     609739.8 (Joules/Mol)
                                  145.73131 (Kcal/Mol)
 Warning -- explicit consideration of  28 degrees of freedom as
           vibrations may cause significant error
 Vibrational temperatures:     21.52    51.75    59.18    89.54   118.69
          (Kelvin)            205.12   216.57   220.49   244.82   254.08
                              276.21   319.63   322.91   325.36   333.60
                              336.08   437.56   448.08   450.27   486.61
                              492.44   598.80   665.14   674.20   677.29
                              723.55   760.77   880.08  1029.48  1070.05
                             1088.58  1127.11  1155.83  1220.98  1245.16
                             1341.42  1347.80  1347.83  1391.90  1391.92
                             1420.75  1487.93  1597.02  1600.80  1609.39
                             1698.29  1713.30  1716.75  1796.73  1835.23
                             1934.29  1934.44  1988.35  1988.81  1998.85
                             1998.92  2024.60  2024.77  2127.48  2127.51
                             2142.85  2142.99  2144.36  2144.37  2164.80
                             2165.16  2309.59  2360.91  2450.86  2462.14
                             4361.34  4361.36  4365.38  4365.63  4439.89
                             4439.95  4446.43  4446.47  4448.11  4448.17
                             4492.41  4492.42  4500.73  4500.74

 Zero-point correction=                           0.232238 (Hartree/Particle)
 Thermal correction to Energy=                    0.250323
 Thermal correction to Enthalpy=                  0.251268
 Thermal correction to Gibbs Free Energy=         0.183470
 Sum of electronic and zero-point Energies=          -5764.365244
 Sum of electronic and thermal Energies=             -5764.347158
 Sum of electronic and thermal Enthalpies=           -5764.346214
 Sum of electronic and thermal Free Energies=        -5764.414011

                     E (Thermal)             CV                S
                      KCal/Mol        Cal/Mol-Kelvin    Cal/Mol-Kelvin
 Total                  157.080             64.265            142.692
 Electronic               0.000              0.000              0.000
 Translational            0.889              2.981             43.435
 Rotational               0.889              2.981             34.309
 Vibrational            155.303             58.303             64.948
 Vibration     1          0.593              1.986              7.211
 Vibration     2          0.594              1.982              5.470
 Vibration     3          0.594              1.981              5.204
 Vibration     4          0.597              1.972              4.385
 Vibration     5          0.600              1.961              3.831
 Vibration     6          0.616              1.911              2.769
 Vibration     7          0.618              1.902              2.666
 Vibration     8          0.619              1.899              2.632
 Vibration     9          0.625              1.879              2.434
 Vibration    10          0.628              1.871              2.364
 Vibration    11          0.634              1.851              2.209
 Vibration    12          0.648              1.807              1.941
 Vibration    13          0.649              1.804              1.923
 Vibration    14          0.650              1.801              1.909
 Vibration    15          0.653              1.792              1.864
 Vibration    16          0.654              1.790              1.851
 Vibration    17          0.695              1.666              1.394
 Vibration    18          0.700              1.652              1.355
 Vibration    19          0.701              1.649              1.347
 Vibration    20          0.719              1.599              1.221
 Vibration    21          0.721              1.591              1.202
 Vibration    22          0.779              1.435              0.905
 Vibration    23          0.820              1.334              0.759
 Vibration    24          0.826              1.320              0.742
 Vibration    25          0.828              1.315              0.735
 Vibration    26          0.858              1.244              0.651
 Vibration    27          0.884              1.186              0.590
 Vibration    28          0.971              1.007              0.430

 Optimization completed.
    -- Stationary point found.
 Normal termination of Gaussian 16 at Sat Feb 10 11:16:32 2024.
