 Q-Chem 5.4, Q-Chem, Inc., Pleasanton, CA (2021)
 Q-Chem 5.4.0 for Intel X86 EM64T Linux

User input:
--------------------------------------------------------------
$molecule
-1 2
C                 -0.3038570000      1.1747840000     -0.2733370000
C                 -1.3689470000      0.3007860000     -0.7430280000
C                 -1.3104270000     -1.0574160000     -0.6541120000
C                 -0.1716090000     -1.7565660000     -0.0786180000
C                  0.8941540000     -0.9099310000      0.3925660000
C                  0.8438250000      0.4737450000      0.3064090000
O                 -0.3735040000      2.4214770000     -0.3624900000
O                 -0.1244590000     -3.0162220000      0.0005430000
C                  1.9381580000      1.2470580000      0.7945160000
N                  2.8465690000      1.8414020000      1.2016070000
H                 -2.2299390000      0.8010080000     -1.1768840000
H                 -2.1252490000     -1.6788700000     -1.0155380000
H                  1.7584050000     -1.4005860000      0.8274060000
$end
$rem
MAX_SCF_CYCLES=200
BASIS  =  6-311++G(d,p)
GUI  =  2
JOB_TYPE  =  SP
METHOD  =  B3LYP
SOLVENT_METHOD = PCM
$end
$pcm
theory = CPCM
$end
$solvent
dielectric 37.219
opticaldielectric 1.43
$end

--------------------------------------------------------------

             Standard Nuclear Orientation (Angstroms)
    I     Atom           X                Y                Z
 ----------------------------------------------------------------
    1      C      -0.3038570000     1.1747840000    -0.2733370000
    2      C      -1.3689470000     0.3007860000    -0.7430280000
    3      C      -1.3104270000    -1.0574160000    -0.6541120000
    4      C      -0.1716090000    -1.7565660000    -0.0786180000
    5      C       0.8941540000    -0.9099310000     0.3925660000
    6      C       0.8438250000     0.4737450000     0.3064090000
    7      O      -0.3735040000     2.4214770000    -0.3624900000
    8      O      -0.1244590000    -3.0162220000     0.0005430000
    9      C       1.9381580000     1.2470580000     0.7945160000
   10      N       2.8465690000     1.8414020000     1.2016070000
   11      H      -2.2299390000     0.8010080000    -1.1768840000
   12      H      -2.1252490000    -1.6788700000    -1.0155380000
   13      H       1.7584050000    -1.4005860000     0.8274060000
 ----------------------------------------------------------------

    9    -474.0069911451      8.02e-06  Convergence criterion met
 Total energy in the final basis set =     -474.0069911451

                    Orbital Energies (a.u.)
 --------------------------------------------------------------

 Alpha MOs
 -- Occupied --
-19.0967 -19.0937 -14.3179 -10.2461 -10.2354 -10.2212 -10.2079 -10.1897
-10.1798 -10.1785  -1.0232  -1.0139  -0.9189  -0.8444  -0.7756  -0.7080
 -0.6433  -0.5981  -0.5196  -0.4941  -0.4781  -0.4414  -0.4312  -0.4229
 -0.4010  -0.3940  -0.3874  -0.3771  -0.3700  -0.3461  -0.2967  -0.2744
 -0.2611  -0.2559  -0.1820

 Beta MOs
 -- Occupied --
-19.0906 -19.0860 -14.3172 -10.2452 -10.2343 -10.2214 -10.2068 -10.1872
-10.1793 -10.1776  -1.0128  -1.0004  -0.9178  -0.8381  -0.7728  -0.6973
 -0.6392  -0.5942  -0.5155  -0.4918  -0.4743  -0.4389  -0.4166  -0.4152
 -0.3970  -0.3857  -0.3752  -0.3698  -0.3577  -0.3453  -0.2662  -0.2637
 -0.2552  -0.2491

          Ground-State Mulliken Net Atomic Charges

     Atom                 Charge (a.u.)    Spin (a.u.)
  --------------------------------------------------------
      1 C                    -1.051813       0.038618
      2 C                     0.144234       0.072341
      3 C                     0.038706       0.031807
      4 C                    -0.319810       0.099550
      5 C                    -0.438350       0.171621
      6 C                     2.114775       0.078919
      7 O                    -0.474077       0.219783
      8 O                    -0.495121       0.271490
      9 C                    -0.834104       0.005657
     10 N                    -0.349249       0.031368
     11 H                     0.220937      -0.005618
     12 H                     0.219919      -0.003287
     13 H                     0.223953      -0.012248
  --------------------------------------------------------
  Sum of atomic charges =    -1.000000

                    Cartesian Multipole Moments
 -----------------------------------------------------------------
    Charge (ESU x 10^10)
                -4.8032
    Dipole Moment (Debye)
         X      -4.0989      Y      -2.0996      Z      -1.5015
       Tot       4.8440
    Quadrupole Moments (Debye-Ang)
        XX     -71.5582     XY      -9.6831     YY    -104.6254
        XZ      -4.8804     YZ      -2.4550     ZZ     -61.8951

 Total job time:  10.76s(wall), 77.02s(cpu)
        *  Thank you very much for using Q-Chem.  Have a nice day.  *
