 Q-Chem 5.4, Q-Chem, Inc., Pleasanton, CA (2021)
 Q-Chem 5.4.0 for Intel X86 EM64T Linux

User input:
--------------------------------------------------------------
$molecule
-1 2
C                  0.2561850000      3.9358110000      0.3266390000
C                 -0.9080710000      3.5440990000      0.9633550000
C                 -1.2667710000      2.1824560000      0.9946130000
C                  1.0962440000      2.9901950000     -0.2938620000
C                  0.7350910000      1.6221550000     -0.2639970000
C                 -0.4548190000      1.2411330000      0.3875050000
C                  2.3204710000      3.4475160000     -0.9752340000
C                  3.1467860000      2.4059290000     -1.5579290000
C                  2.8037690000      1.0527200000     -1.5306710000
C                  1.5782570000      0.5992520000     -0.8996810000
O                  2.6054340000      4.6709120000     -1.0271710000
O                  1.2443000000     -0.6173450000     -0.8771770000
H                  0.5567460000      4.9762340000      0.2829900000
H                 -1.5451380000      4.2846980000      1.4381680000
H                 -2.1809010000      1.8732490000      1.4932340000
H                 -0.7055670000      0.1866520000      0.3928550000
S                  4.6169830000      2.9154610000     -2.4571490000
C                  3.6628610000     -0.0158570000     -2.1568710000
H                  3.5554330000     -0.0298260000     -3.2492150000
H                  3.3487550000     -0.9905120000     -1.7826670000
H                  4.7218650000      0.1534680000     -1.9484570000
C                  5.5326910000      3.9338320000     -1.2207560000
C                  6.7701740000      4.5418830000     -1.8749080000
H                  5.8120610000      3.2866900000     -0.3854710000
H                  4.8444490000      4.7000290000     -0.8680460000
H                  7.4409390000      3.7716700000     -2.2693640000
H                  7.3316130000      5.1347950000     -1.1446470000
H                  6.4917780000      5.2022700000     -2.7010960000
$end

$rem
BASIS  =  6-311++G(d,p)
GUI  =  2
JOB_TYPE  =  SP
METHOD  =  B3LYP
SCF_CONVERGENCE  = 8
SOLVENT_METHOD = sm12
$end

$smx
solvent dimethylformamide
charges CM5
$end

--------------------------------------------------------------

             Standard Nuclear Orientation (Angstroms)
    I     Atom           X                Y                Z
 ----------------------------------------------------------------
    1      C       0.2561850000     3.9358110000     0.3266390000
    2      C      -0.9080710000     3.5440990000     0.9633550000
    3      C      -1.2667710000     2.1824560000     0.9946130000
    4      C       1.0962440000     2.9901950000    -0.2938620000
    5      C       0.7350910000     1.6221550000    -0.2639970000
    6      C      -0.4548190000     1.2411330000     0.3875050000
    7      C       2.3204710000     3.4475160000    -0.9752340000
    8      C       3.1467860000     2.4059290000    -1.5579290000
    9      C       2.8037690000     1.0527200000    -1.5306710000
   10      C       1.5782570000     0.5992520000    -0.8996810000
   11      O       2.6054340000     4.6709120000    -1.0271710000
   12      O       1.2443000000    -0.6173450000    -0.8771770000
   13      H       0.5567460000     4.9762340000     0.2829900000
   14      H      -1.5451380000     4.2846980000     1.4381680000
   15      H      -2.1809010000     1.8732490000     1.4932340000
   16      H      -0.7055670000     0.1866520000     0.3928550000
   17      S       4.6169830000     2.9154610000    -2.4571490000
   18      C       3.6628610000    -0.0158570000    -2.1568710000
   19      H       3.5554330000    -0.0298260000    -3.2492150000
   20      H       3.3487550000    -0.9905120000    -1.7826670000
   21      H       4.7218650000     0.1534680000    -1.9484570000
   22      C       5.5326910000     3.9338320000    -1.2207560000
   23      C       6.7701740000     4.5418830000    -1.8749080000
   24      H       5.8120610000     3.2866900000    -0.3854710000
   25      H       4.8444490000     4.7000290000    -0.8680460000
   26      H       7.4409390000     3.7716700000    -2.2693640000
   27      H       7.3316130000     5.1347950000    -1.1446470000
   28      H       6.4917780000     5.2022700000    -2.7010960000
 ----------------------------------------------------------------

   18   -1051.5213360689      4.12e-09  Convergence criterion met
 Total energy in the final basis set =    -1051.6043489584

                    Orbital Energies (a.u.)
 --------------------------------------------------------------

 Alpha MOs
 -- Occupied --
-88.8357 -19.0763 -19.0761 -10.2273 -10.2227 -10.1931 -10.1905 -10.1831
-10.1826 -10.1803 -10.1801 -10.1796 -10.1788 -10.1786 -10.1681 -10.1602
 -7.9214  -5.8854  -5.8816  -5.8753  -1.0034  -1.0000  -0.8652  -0.8285
 -0.7902  -0.7621  -0.7575  -0.7242  -0.6827  -0.6613  -0.6196  -0.6018
 -0.5834  -0.5581  -0.5179  -0.4967  -0.4718  -0.4585  -0.4528  -0.4376
 -0.4338  -0.4316  -0.4178  -0.4108  -0.4027  -0.3907  -0.3881  -0.3783
 -0.3733  -0.3683  -0.3596  -0.3544  -0.3487  -0.3422  -0.3174  -0.2735
 -0.2638  -0.2594  -0.2464  -0.2364  -0.2186  -0.1545

 Beta MOs
 -- Occupied --
-88.8356 -19.0701 -19.0695 -10.2260 -10.2213 -10.1918 -10.1904 -10.1828
-10.1823 -10.1795 -10.1791 -10.1787 -10.1785 -10.1785 -10.1681 -10.1604
 -7.9214  -5.8854  -5.8816  -5.8751  -0.9929  -0.9883  -0.8633  -0.8247
 -0.7887  -0.7603  -0.7559  -0.7212  -0.6811  -0.6550  -0.6186  -0.5999
 -0.5813  -0.5557  -0.5157  -0.4945  -0.4695  -0.4578  -0.4522  -0.4365
 -0.4315  -0.4244  -0.4147  -0.4053  -0.3966  -0.3885  -0.3853  -0.3769
 -0.3683  -0.3602  -0.3523  -0.3475  -0.3431  -0.3390  -0.3139  -0.2582
 -0.2541  -0.2493  -0.2401  -0.2308  -0.2132

          Ground-State Mulliken Net Atomic Charges

     Atom                 Charge (a.u.)    Spin (a.u.)
  --------------------------------------------------------
      1 C                     0.112398       0.025185
      2 C                     0.857953       0.026471
      3 C                     0.833203       0.020700
      4 C                    -1.116391       0.006461
      5 C                    -0.683147       0.024406
      6 C                    -0.140107       0.024426
      7 C                    -2.167342       0.082915
      8 C                     1.272030       0.097003
      9 C                     0.442443       0.137876
     10 C                    -2.183715       0.059652
     11 O                    -0.243888       0.224376
     12 O                    -0.317327       0.251427
     13 H                     0.169102      -0.002098
     14 H                     0.357897      -0.002091
     15 H                     0.355296      -0.001869
     16 H                     0.155793      -0.002565
     17 S                     0.095600       0.011548
     18 C                     0.347080      -0.001719
     19 H                     0.191430       0.008791
     20 H                     0.164579      -0.001120
     21 H                     0.183114       0.003782
     22 C                    -0.461819       0.004911
     23 C                     0.038492       0.001514
     24 H                     0.114412       0.000655
     25 H                     0.058691      -0.000920
     26 H                     0.161923      -0.000143
     27 H                     0.236006       0.000094
     28 H                     0.166294       0.000332
  --------------------------------------------------------
  Sum of atomic charges =    -1.000000

                    Cartesian Multipole Moments
 -----------------------------------------------------------------
    Charge (ESU x 10^10)
                -4.8032
    Dipole Moment (Debye)
         X      -9.4086      Y      -9.2863      Z       5.8483
       Tot      14.4554
    Quadrupole Moments (Debye-Ang)
        XX    -128.9117     XY     -23.3327     YY    -152.7105
        XZ      16.0134     YZ      14.2676     ZZ    -118.5879

 Total job time:  754.21s(wall), 5202.33s(cpu)
        *  Thank you very much for using Q-Chem.  Have a nice day.  *
