 Q-Chem 5.4, Q-Chem, Inc., Pleasanton, CA (2021)
 Q-Chem 5.4.0 for Intel X86 EM64T Linux

User input:
--------------------------------------------------------------
$molecule
-2 1
C                 -1.7884430000     -3.7300970000      1.2876370000
C                 -0.4173630000     -3.9348370000      1.0667330000
C                  0.4350520000     -2.9030240000      0.6037950000
C                 -0.0162180000     -1.5825980000      0.3212910000
C                 -1.4320960000     -1.3640330000      0.5531320000
C                 -2.2390070000     -2.4024410000      1.0062600000
O                 -2.7007240000     -4.5996060000      1.7208340000
O                  0.7558690000     -0.6218130000     -0.1123750000
O                 -3.6053460000     -2.2519370000      1.2422470000
C                 -1.9964480000      0.0094220000      0.2991750000
H                 -0.0077510000     -4.9283140000      1.2621780000
H                  1.4945910000     -3.1079190000      0.4432790000
H                 -1.2845340000      0.7717730000      0.6396860000
H                 -2.9613430000      0.1412660000      0.8011170000
H                 -2.1488680000      0.2076140000     -0.7768290000
H                 -3.7870290000     -3.1845730000      1.5479710000
$end
$rem
MAX_SCF_CYCLES=200
BASIS  =  6-311++G(d,p)
GUI  =  2
JOB_TYPE  =  SP
METHOD  =  B3LYP
SOLVENT_METHOD = COSMO
$end
$solvent
dielectric 37.219
opticaldielectric 1.43
$end

--------------------------------------------------------------

             Standard Nuclear Orientation (Angstroms)
    I     Atom           X                Y                Z
 ----------------------------------------------------------------
    1      C       1.4754000081     0.5496986898    -0.0009391371
    2      C       0.7533479171     1.7535273249     0.0029087764
    3      C      -0.6624887379     1.7846191630     0.0038334739
    4      C      -1.4711851017     0.6128882465    -0.0020652284
    5      C      -0.7296171627    -0.6346318465    -0.0006408002
    6      C       0.6612947976    -0.6259187335    -0.0037264235
    7      O       2.7960376771     0.3711673001     0.0012642901
    8      O      -2.7777522562     0.6247614084    -0.0078660879
    9      O       1.4257691933    -1.7924492613    -0.0067276193
   10      C      -1.5021979463    -1.9278115212     0.0124449328
   11      H       1.3152242993     2.6901535032     0.0048117601
   12      H      -1.1824926639     2.7437677858     0.0041092905
   13      H      -2.3725408084    -1.8332723331     0.6738933254
   14      H      -0.8713904920    -2.7639635532     0.3338212040
   15      H      -1.9128955658    -2.1808253843    -0.9813397439
   16      H       2.3243356721    -1.3579235332     0.0004459379
 ----------------------------------------------------------------

   11    -496.1213641711      6.08e-06  Convergence criterion met
 Total energy in the final basis set =     -496.1213641711
    6    -496.4278966838      2.91e-06  Convergence criterion met
 Total energy in the final basis set =     -496.4278966838

                    Orbital Energies (a.u.)
 --------------------------------------------------------------

 Alpha MOs
 -- Occupied --
-19.1117 -19.0344 -19.0210 -10.1803 -10.1724 -10.1679 -10.1391 -10.1310
-10.1270 -10.1182  -1.0211  -0.9286  -0.9245  -0.7828  -0.7256  -0.6572
 -0.6357  -0.5479  -0.5423  -0.4703  -0.4479  -0.4177  -0.4009  -0.3930
 -0.3694  -0.3666  -0.3631  -0.3595  -0.3252  -0.3220  -0.3077  -0.3028
 -0.2305  -0.2226  -0.2012  -0.1911  -0.1270

          Ground-State Mulliken Net Atomic Charges

     Atom                 Charge (a.u.)
  ----------------------------------------
      1 C                    -0.139597
      2 C                    -0.106761
      3 C                     0.016734
      4 C                    -0.921187
      5 C                     1.709897
      6 C                    -1.296332
      7 O                    -0.808228
      8 O                    -0.771518
      9 O                    -0.382891
     10 C                    -0.339185
     11 H                     0.153761
     12 H                     0.137479
     13 H                     0.147718
     14 H                     0.156529
     15 H                     0.152401
     16 H                     0.291181
  ----------------------------------------
  Sum of atomic charges =    -2.000000

                    Cartesian Multipole Moments
 -----------------------------------------------------------------
    Charge (ESU x 10^10)
                -9.6064
    Dipole Moment (Debye)
         X       0.5242      Y      -3.3224      Z       0.0403
       Tot       3.3638
    Quadrupole Moments (Debye-Ang)
        XX    -126.8300     XY       4.8633     YY     -76.6099
        XZ      -0.0718     YZ      -0.0237     ZZ     -67.8098

 Total job time:  22.23s(wall), 122.61s(cpu)
        *  Thank you very much for using Q-Chem.  Have a nice day.  *
