 Gaussian 16, Revision A.03,
 Gaussian 16:  ES64L-G16RevA.03 25-Dec-2016

 ----------------------------------------------------------------
 #P UB3LYP/6-311++G(d,p) SCRF=(PCM,Solvent=n,n-DiMethylFormamide)
 ----------------------------------------------------------------

 ------------------
 Quinone PCM in DMF
 ------------------
 Symbolic Z-matrix:
 Charge =  0 Multiplicity = 1

                         Standard orientation:
 ---------------------------------------------------------------------
 Center     Atomic      Atomic             Coordinates (Angstroms)
 Number     Number       Type             X           Y           Z
 ---------------------------------------------------------------------
      1          6           0      -13.527175    3.592736    0.546573
      2          6           0      -13.784184    4.360273   -0.584781
      3          6           0      -13.415136    3.893113   -1.848844
      4          6           0      -12.898590    2.351615    0.418812
      5          6           0      -12.529485    1.882790   -0.849195
      6          6           0      -12.789549    2.657818   -1.982019
      7          6           0      -12.620995    1.533322    1.632946
      8          6           0      -11.938429    0.211646    1.465667
      9          6           0      -11.605463   -0.250932    0.235501
     10          6           0      -11.862396    0.558592   -0.993249
     11          8           0      -12.944560    1.930517    2.742077
     12          8           0      -11.528948    0.139880   -2.092362
     13          1           0      -14.271845    5.323310   -0.484609
     14          1           0      -13.616805    4.494067   -2.728325
     15          6           0      -11.667886   -0.559667    2.728539
     16          1           0      -13.804308    3.935868    1.535618
     17          1           0      -12.495274    2.276167   -2.951843
     18          1           0      -12.344746   -1.417364    2.811933
     19          1           0      -11.828343    0.073912    3.598982
     20          1           0      -10.645845   -0.942982    2.740728
     21          6           0      -10.926655   -1.586358    0.013943
     22          6           0       -9.418953   -1.467834    0.066911
     23          6           0       -8.551060   -2.223414    0.753968
     24          6           0       -7.063912   -1.955446    0.639359
     25          6           0       -6.274971   -3.067172   -0.097315
     26          6           0       -4.798905   -2.782670   -0.139907
     27          6           0       -4.021666   -2.532167   -1.203178
     28          6           0       -8.936941   -3.374196    1.650783
     29          6           0       -2.543927   -2.253373   -1.014569
     30          6           0       -2.131251   -0.788968   -1.308996
     31          6           0       -0.649589   -0.575925   -1.165834
     32          6           0        0.009029    0.194751   -0.288477
     33          6           0       -4.507723   -2.514213   -2.631896
     34          6           0       -0.654523    1.057511    0.757286
     35          6           0        1.523380    0.250642   -0.313248
     36          6           0        2.204481   -0.415292    0.909100
     37          6           0        3.701809   -0.283151    0.867358
     38          6           0        4.628869   -1.245159    0.755513
     39          6           0        4.323427   -2.721092    0.674849
     40          6           0        6.099759   -0.881808    0.714280
     41          6           0        6.769181   -1.101949   -0.666046
     42          6           0        8.239096   -0.785651   -0.643211
     43          6           0        8.901314    0.182959   -1.291853
     44          6           0        8.260886    1.170735   -2.236523
     45          6           0       10.398485    0.333448   -1.110138
     46          6           0       10.818796    1.599536   -0.321416
     47          6           0       12.312819    1.740688   -0.225729
     48          6           0       13.094429    1.698677    0.862728
     49          6           0       12.586656    1.518037    2.272610
     50          6           0       14.596226    1.850716    0.726430
     51          6           0       15.395613    0.556193    1.019911
     52          6           0       16.881144    0.772040    0.932623
     53          6           0       17.757054    0.231452    0.075008
     54          6           0       17.404912   -0.753080   -1.011860
     55          6           0       19.223785    0.582497    0.143457
     56          1           0      -11.211967   -1.943012   -0.980260
     57          1           0      -11.293575   -2.310603    0.741239
     58          1           0       -9.013476   -0.675558   -0.558573
     59          1           0       -6.639797   -1.836276    1.645588
     60          1           0       -6.900571   -1.008836    0.116889
     61          1           0       -6.692162   -3.187175   -1.099602
     62          1           0       -6.432057   -4.020967    0.420907
     63          1           0       -4.316145   -2.772708    0.837701
     64          1           0      -10.011250   -3.444528    1.821001
     65          1           0       -8.445324   -3.282219    2.625829
     66          1           0       -8.612190   -4.330301    1.226423
     67          1           0       -1.963222   -2.916444   -1.670083
     68          1           0       -2.252550   -2.495963    0.011405
     69          1           0       -2.699893   -0.126283   -0.652884
     70          1           0       -2.423053   -0.534490   -2.335151
     71          1           0       -0.045591   -1.142331   -1.875290
     72          1           0       -5.567104   -2.750256   -2.726339
     73          1           0       -3.946499   -3.238688   -3.233790
     74          1           0       -4.346079   -1.534245   -3.093144
     75          1           0       -1.742509    1.019058    0.714710
     76          1           0       -0.350114    2.103904    0.636610
     77          1           0       -0.352824    0.759774    1.767122
     78          1           0        1.847020    1.299236   -0.362454
     79          1           0        1.893546   -0.232753   -1.221910
     80          1           0        1.892542   -1.460946    0.957157
     81          1           0        1.837315    0.060432    1.826612
     82          1           0        4.062134    0.744343    0.925850
     83          1           0        3.258026   -2.940662    0.736132
     84          1           0        4.824916   -3.258467    1.488476
     85          1           0        4.696348   -3.152897   -0.259958
     86          1           0        6.642098   -1.475814    1.462358
     87          1           0        6.226853    0.167060    0.997271
     88          1           0        6.239190   -0.504375   -1.411015
     89          1           0        6.642217   -2.150319   -0.962255
     90          1           0        8.827425   -1.437225    0.003549
     91          1           0        7.190934    1.008680   -2.362832
     92          1           0        8.729444    1.110039   -3.225968
     93          1           0        8.400080    2.199779   -1.888568
     94          1           0       10.882614    0.361640   -2.095777
     95          1           0       10.795803   -0.544559   -0.592803
     96          1           0       10.351840    1.568125    0.665474
     97          1           0       10.416288    2.485887   -0.826726
     98          1           0       12.810758    1.885964   -1.184860
     99          1           0       11.501077    1.444958    2.329339
    100          1           0       12.900453    2.359990    2.901013
    101          1           0       13.002814    0.614854    2.731398
    102          1           0       14.944991    2.636616    1.410122
    103          1           0       14.840930    2.187003   -0.285183
    104          1           0       15.061220   -0.226024    0.334701
    105          1           0       15.152384    0.206243    2.030578
    106          1           0       17.276783    1.475027    1.665980
    107          1           0       16.340281   -0.979243   -1.061910
    108          1           0       17.943656   -1.696758   -0.864673
    109          1           0       17.714431   -0.368804   -1.990908
    110          1           0       19.433836    1.295934    0.942874
    111          1           0       19.568110    1.017696   -0.802398
    112          1           0       19.834105   -0.312283    0.315558
 ---------------------------------------------------------------------

 SCF Done:  E(UB3LYP) =  -1942.34666231     A.U. after   16 cycles

 Alpha  occ. eigenvalues --   -0.23594  -0.22989  -0.22537
 Alpha virt. eigenvalues --   -0.12438  -0.05665  -0.03188  -0.01105  -0.00975
 Alpha virt. eigenvalues --   -0.00730  -0.00361  -0.00076   0.00027   0.00075
 Alpha virt. eigenvalues --    0.00173   0.00262   0.00380   0.00460   0.00542

  Beta  occ. eigenvalues --  -19.13475 -19.13429 -10.28275 -10.28228 -10.21493
  Beta  occ. eigenvalues --  -10.21231 -10.20751 -10.20697 -10.19870 -10.19835
  Beta  occ. eigenvalues --  -10.19795 -10.19778 -10.18314 -10.18162 -10.17703
  Beta  occ. eigenvalues --  -10.17592 -10.17551 -10.17548 -10.17547 -10.17538
  Beta  occ. eigenvalues --  -10.17299 -10.17047 -10.17029 -10.16947 -10.16836
  Beta  occ. eigenvalues --  -10.16830 -10.16828 -10.16825 -10.16808 -10.16796
  Beta  occ. eigenvalues --  -10.16782 -10.16781 -10.16780 -10.16754 -10.16520
  Beta  occ. eigenvalues --  -10.16181 -10.16179 -10.16173 -10.16167 -10.16164
  Beta  occ. eigenvalues --  -10.16163 -10.16159 -10.16133 -10.16129 -10.16128
  Beta  occ. eigenvalues --  -10.16120 -10.16108 -10.16044  -1.06866  -1.06672
  Beta  occ. eigenvalues --   -0.89097  -0.85600  -0.83305  -0.83111  -0.82771
  Beta  occ. eigenvalues --   -0.82302  -0.81726  -0.81090  -0.80550  -0.79022
  Beta  occ. eigenvalues --   -0.77854  -0.77750  -0.77007  -0.76094  -0.75106
  Beta  occ. eigenvalues --   -0.74091  -0.73119  -0.72372  -0.71132  -0.69236
  Beta  occ. eigenvalues --   -0.69016  -0.68925  -0.68795  -0.68556  -0.68250
  Beta  occ. eigenvalues --   -0.67904  -0.67194  -0.66330  -0.64404  -0.63436
  Beta  occ. eigenvalues --   -0.62692  -0.61692  -0.60831  -0.59927  -0.59099
  Beta  occ. eigenvalues --   -0.58577  -0.58425  -0.55260  -0.52638  -0.52374
  Beta  occ. eigenvalues --   -0.52260  -0.52129  -0.52037  -0.51749  -0.51467
  Beta  occ. eigenvalues --   -0.51289  -0.50114  -0.48388  -0.48066  -0.47997
  Beta  occ. eigenvalues --   -0.47898  -0.47822  -0.47349  -0.46697  -0.46414
  Beta  occ. eigenvalues --   -0.46262  -0.46065  -0.45653  -0.45225  -0.44842
  Beta  occ. eigenvalues --   -0.44652  -0.44365  -0.43927  -0.43771  -0.43432
  Beta  occ. eigenvalues --   -0.43171  -0.43133  -0.42672  -0.42328  -0.42036
  Beta  occ. eigenvalues --   -0.41784  -0.41725  -0.41645  -0.41341  -0.41201
  Beta  occ. eigenvalues --   -0.41095  -0.40967  -0.40565  -0.40439  -0.40399
  Beta  occ. eigenvalues --   -0.40136  -0.39667  -0.39470  -0.39273  -0.38688
  Beta  occ. eigenvalues --   -0.38494  -0.37890  -0.37677  -0.37472  -0.37430
  Beta  occ. eigenvalues --   -0.37364  -0.37342  -0.37208  -0.37128  -0.37068
  Beta  occ. eigenvalues --   -0.36912  -0.36853  -0.36697  -0.36605  -0.36278
  Beta  occ. eigenvalues --   -0.36244  -0.35889  -0.35799  -0.35584  -0.35012
  Beta  occ. eigenvalues --   -0.34220  -0.33874  -0.33663  -0.33598  -0.33309
  Beta  occ. eigenvalues --   -0.32972  -0.32908  -0.32816  -0.32178  -0.31502
  Beta  occ. eigenvalues --   -0.31043  -0.29206  -0.29074  -0.27926  -0.27731
  Beta  occ. eigenvalues --   -0.27275  -0.25383  -0.25153  -0.24754  -0.24217
  Beta  occ. eigenvalues --   -0.23594  -0.22989  -0.22537
  Beta virt. eigenvalues --   -0.12438  -0.05665  -0.03188  -0.01105  -0.00975
  Beta virt. eigenvalues --   -0.00730  -0.00361  -0.00076   0.00027   0.00075
  Beta virt. eigenvalues --    0.00173   0.00262   0.00380   0.00460   0.00542

 Mulliken charges and spin densities:
               1          2
     1  C    0.184430  -0.000000
     2  C   -0.465168   0.000000
     3  C   -0.402347   0.000000
     4  C   -0.091447  -0.000000
     5  C    0.262257  -0.000000
     6  C    0.089992   0.000000
     7  C   -0.865740   0.000000
     8  C    0.773484  -0.000000
     9  C    1.102736   0.000000
    10  C   -0.957015   0.000000
    11  O   -0.273926  -0.000000
    12  O   -0.253091  -0.000000
    13  H    0.203188  -0.000000
    14  H    0.207187   0.000000
    15  C   -0.488817   0.000000
    16  H    0.191085  -0.000000
    17  H    0.188496  -0.000000
    18  H    0.215111  -0.000000
    19  H    0.188097  -0.000000
    20  H    0.177694   0.000000
    21  C   -0.199567  -0.000000
    22  C   -1.134568  -0.000000
    23  C    1.304878  -0.000000
    24  C   -0.710614   0.000000
    25  C   -0.326136  -0.000000
    26  C   -0.398962   0.000000
    27  C    0.633745  -0.000000
    28  C   -0.699766  -0.000000
    29  C   -0.503715   0.000000
    30  C   -0.260581  -0.000000
    31  C   -0.298096   0.000000
    32  C    0.478650  -0.000000
    33  C   -0.697971  -0.000000
    34  C   -0.725352   0.000000
    35  C   -0.419173   0.000000
    36  C   -0.275611  -0.000000
    37  C   -0.308509  -0.000000
    38  C    0.502089   0.000000
    39  C   -0.713465   0.000000
    40  C   -0.445458   0.000000
    41  C   -0.248129  -0.000000
    42  C   -0.390732  -0.000000
    43  C    0.519335  -0.000000
    44  C   -0.714942   0.000000
    45  C   -0.395434   0.000000
    46  C   -0.195613   0.000000
    47  C   -0.195174   0.000000
    48  C    0.445456  -0.000000
    49  C   -0.753278  -0.000000
    50  C   -0.584783  -0.000000
    51  C   -0.250166  -0.000000
    52  C    0.041405   0.000000
    53  C    0.270521   0.000000
    54  C   -0.685982   0.000000
    55  C   -0.622300  -0.000000
    56  H    0.236913  -0.000000
    57  H    0.189123   0.000000
    58  H    0.220505  -0.000000
    59  H    0.161983   0.000000
    60  H    0.173619  -0.000000
    61  H    0.146308   0.000000
    62  H    0.137513   0.000000
    63  H    0.183197  -0.000000
    64  H    0.113354   0.000000
    65  H    0.179244  -0.000000
    66  H    0.178238   0.000000
    67  H    0.137400  -0.000000
    68  H    0.179607  -0.000000
    69  H    0.145364  -0.000000
    70  H    0.127939   0.000000
    71  H    0.193264   0.000000
    72  H    0.125807  -0.000000
    73  H    0.162053   0.000000
    74  H    0.168106   0.000000
    75  H    0.129909   0.000000
    76  H    0.162773  -0.000000
    77  H    0.168528  -0.000000
    78  H    0.139458   0.000000
    79  H    0.174372   0.000000
    80  H    0.138982  -0.000000
    81  H    0.128083   0.000000
    82  H    0.192310  -0.000000
    83  H    0.130506   0.000000
    84  H    0.162240  -0.000000
    85  H    0.168378  -0.000000
    86  H    0.140687   0.000000
    87  H    0.171504  -0.000000
    88  H    0.135361  -0.000000
    89  H    0.128731   0.000000
    90  H    0.186980  -0.000000
    91  H    0.131407   0.000000
    92  H    0.162616   0.000000
    93  H    0.167985  -0.000000
    94  H    0.134569  -0.000000
    95  H    0.179254   0.000000
    96  H    0.144163   0.000000
    97  H    0.124247  -0.000000
    98  H    0.206202   0.000000
    99  H    0.128327  -0.000000
   100  H    0.163629   0.000000
   101  H    0.170390   0.000000
   102  H    0.137551   0.000000
   103  H    0.164919   0.000000
   104  H    0.135298   0.000000
   105  H    0.124980  -0.000000
   106  H    0.193176  -0.000000
   107  H    0.140363  -0.000000
   108  H    0.145931  -0.000000
   109  H    0.148424  -0.000000
   110  H    0.151523   0.000000
   111  H    0.151408   0.000000
   112  H    0.147090  -0.000000
 Sum of Mulliken charges =  -0.00000  -0.00000

 Dipole moment (field-independent basis, Debye):
    X=              0.0481    Y=             -0.0371    Z=             -0.2616  Tot=              0.2685
 Quadrupole moment (field-independent basis, Debye-Ang):
   XX=           -288.8786   YY=           -283.7548   ZZ=           -305.4668
   XY=            -11.6732   XZ=              6.9706   YZ=            -13.3159

 Normal termination of Gaussian 16 at Sun Jan 21 08:33:32 2024.
