 Gaussian 16, Revision A.03,
 Gaussian 16:  ES64L-G16RevA.03 25-Dec-2016

 ----------------------------------------------------------------
 #P UB3LYP/6-311++G(d,p) SCRF=(PCM,Solvent=n,n-DiMethylFormamide)
 ----------------------------------------------------------------

 -------
 Reduced
 -------
 Symbolic Z-matrix:
 Charge = -2 Multiplicity = 1

                         Standard orientation:
 ---------------------------------------------------------------------
 Center     Atomic      Atomic             Coordinates (Angstroms)
 Number     Number       Type             X           Y           Z
 ---------------------------------------------------------------------
      1          6           0        4.180753   -1.747208    0.043058
      2          8           0        2.790535   -1.537770    0.027863
      3          6           0        2.309792   -0.250351    0.002857
      4          6           0        3.182234    0.829515   -0.013507
      5          6           0        2.675669    2.155129   -0.038485
      6          6           0        1.322127    2.371134   -0.026574
      7          6           0        0.394843    1.295589    0.001853
      8          6           0       -1.011133    1.649952    0.019696
      9          8           0       -1.417108    2.867834    0.028409
     10          6           0       -1.929012    0.534065    0.011718
     11          6           0       -3.327353    0.776304    0.018220
     12          6           0       -4.246958   -0.251759    0.009699
     13          6           0       -3.793972   -1.598809   -0.005049
     14          6           0       -2.436642   -1.860137   -0.014808
     15          6           0       -1.468719   -0.828984   -0.009272
     16          6           0       -0.051578   -1.202985   -0.021596
     17          8           0        0.281938   -2.428566   -0.039972
     18          6           0        0.879884   -0.079414   -0.006123
     19          1           0        4.671867   -1.280354    0.910764
     20          1           0        4.674923   -1.375478   -0.867746
     21          1           0        4.323738   -2.828989    0.102866
     22          1           0        4.253073    0.673496   -0.021210
     23          1           0        3.374018    2.989740   -0.057555
     24          1           0        0.898191    3.368990   -0.037106
     25          1           0       -3.637590    1.816473    0.029826
     26          1           0       -5.313888   -0.034243    0.015343
     27          1           0       -4.511294   -2.417495   -0.009149
     28          1           0       -2.055569   -2.876375   -0.026556
 ---------------------------------------------------------------------

 SCF Done:  E(UB3LYP) =  -803.732983370     A.U. after   17 cycles

 The electronic state is 1-A.
 Alpha  occ. eigenvalues --  -19.13293 -19.01393 -19.01385 -10.21276 -10.20790
 Alpha  occ. eigenvalues --  -10.17704 -10.16655 -10.14821 -10.14626 -10.14589
 Alpha  occ. eigenvalues --  -10.14331 -10.14326 -10.13995 -10.13980 -10.13455
 Alpha  occ. eigenvalues --  -10.13258 -10.13205 -10.13162  -1.05002  -0.94050
 Alpha  occ. eigenvalues --   -0.93343  -0.82385  -0.81693  -0.74802  -0.73386
 Alpha  occ. eigenvalues --   -0.71957  -0.70545  -0.67561  -0.63097  -0.60208
 Alpha  occ. eigenvalues --   -0.58714  -0.55377  -0.52980  -0.51102  -0.49967
 Alpha  occ. eigenvalues --   -0.45953  -0.45438  -0.45401  -0.43845  -0.42708
 Alpha  occ. eigenvalues --   -0.42315  -0.40116  -0.39656  -0.37920  -0.37592
 Alpha  occ. eigenvalues --   -0.36750  -0.36294  -0.35040  -0.34745  -0.32800
 Alpha  occ. eigenvalues --   -0.32586  -0.32025  -0.30934  -0.30915  -0.29997
 Alpha  occ. eigenvalues --   -0.29070  -0.22738  -0.22172  -0.21485  -0.20426
 Alpha  occ. eigenvalues --   -0.19583  -0.18599  -0.09930
 Alpha virt. eigenvalues --   -0.01999  -0.00040   0.00484   0.00581   0.01275
 Alpha virt. eigenvalues --    0.02261   0.02365   0.02765   0.03787   0.03933
 Alpha virt. eigenvalues --    0.04280   0.04606   0.05516   0.06158   0.06513

  Beta  occ. eigenvalues --  -19.13293 -19.01393 -19.01385 -10.21276 -10.20790
  Beta  occ. eigenvalues --  -10.17704 -10.16655 -10.14821 -10.14626 -10.14589
  Beta  occ. eigenvalues --  -10.14331 -10.14326 -10.13995 -10.13980 -10.13455
  Beta  occ. eigenvalues --  -10.13258 -10.13205 -10.13162  -1.05002  -0.94050
  Beta  occ. eigenvalues --   -0.93343  -0.82385  -0.81693  -0.74802  -0.73386
  Beta  occ. eigenvalues --   -0.71957  -0.70545  -0.67561  -0.63097  -0.60208
  Beta  occ. eigenvalues --   -0.58714  -0.55377  -0.52980  -0.51102  -0.49967
  Beta  occ. eigenvalues --   -0.45953  -0.45438  -0.45401  -0.43845  -0.42708
  Beta  occ. eigenvalues --   -0.42315  -0.40116  -0.39656  -0.37920  -0.37592
  Beta  occ. eigenvalues --   -0.36750  -0.36294  -0.35040  -0.34745  -0.32800
  Beta  occ. eigenvalues --   -0.32586  -0.32025  -0.30934  -0.30915  -0.29997
  Beta  occ. eigenvalues --   -0.29070  -0.22738  -0.22172  -0.21485  -0.20426
  Beta  occ. eigenvalues --   -0.19583  -0.18599  -0.09930
  Beta virt. eigenvalues --   -0.01999  -0.00040   0.00484   0.00581   0.01275
  Beta virt. eigenvalues --    0.02261   0.02365   0.02765   0.03787   0.03933
  Beta virt. eigenvalues --    0.04280   0.04606   0.05516   0.06158   0.06513

 Mulliken charges and spin densities:
               1          2
     1  C   -0.277901  -0.000000
     2  O   -0.148854  -0.000000
     3  C   -0.114280  -0.000000
     4  C   -0.088245  -0.000000
     5  C   -0.507684   0.000000
     6  C   -0.081373  -0.000000
     7  C    0.481627  -0.000000
     8  C   -0.515247   0.000000
     9  O   -0.661909  -0.000000
    10  C    0.010946   0.000000
    11  C   -0.005785  -0.000000
    12  C   -0.533683   0.000000
    13  C   -0.545573  -0.000000
    14  C    0.029780  -0.000000
    15  C    0.282277   0.000000
    16  C   -0.358862  -0.000000
    17  O   -0.643175   0.000000
    18  C    0.147654   0.000000
    19  H    0.143125  -0.000000
    20  H    0.149540  -0.000000
    21  H    0.182749  -0.000000
    22  H    0.162849  -0.000000
    23  H    0.162394   0.000000
    24  H    0.136581  -0.000000
    25  H    0.144442   0.000000
    26  H    0.154201   0.000000
    27  H    0.154658  -0.000000
    28  H    0.139747   0.000000
 Sum of Mulliken charges =  -2.00000   0.00000

 Dipole moment (field-independent basis, Debye):
    X=              6.8202    Y=             -2.7997    Z=              0.0473  Tot=              7.3726
 Quadrupole moment (field-independent basis, Debye-Ang):
   XX=           -127.8917   YY=           -165.7975   ZZ=           -117.7966
   XY=              9.2396   XZ=              0.2821   YZ=             -0.6776

 Normal termination of Gaussian 16 at Sun Jan 14 01:25:37 2024.
