 Q-Chem 5.4, Q-Chem, Inc., Pleasanton, CA (2021)
 Q-Chem 5.4.0 for Intel X86 EM64T Linux

User input:
--------------------------------------------------------------
$molecule
-1 2
C                 -4.0127750000     -1.0154600000      0.2448240000
C                 -2.6318800000     -0.4069570000      0.2506500000
C                 -2.4618100000      0.9859470000      0.4234900000
C                 -3.6584280000      1.8873140000      0.6047720000
C                 -1.1773990000      1.5382140000      0.4275190000
O                 -1.0342710000      2.8775240000      0.5951240000
C                 -0.0284420000      0.7174700000      0.2590200000
C                  1.2894280000      1.3160820000      0.2670590000
O                  1.4524520000      2.5758220000      0.4231420000
C                  2.4314280000      0.4349040000      0.0907060000
C                  3.7387720000      0.9699190000      0.0910310000
C                  4.8407130000      0.1555970000     -0.0745060000
C                  4.6707000000     -1.2364980000     -0.2478710000
C                  3.4027380000     -1.7815220000     -0.2515590000
C                  2.2600870000     -0.9681030000     -0.0839280000
C                  0.9370610000     -1.5691450000     -0.0918320000
O                  0.7921080000     -2.8309470000     -0.2490920000
C                 -0.2004920000     -0.6914870000      0.0838870000
C                 -1.5157060000     -1.2321420000      0.0834250000
O                 -1.6992140000     -2.5669240000     -0.0810000000
H                 -3.9529930000     -2.0930780000      0.1011750000
H                 -4.6339420000     -0.5959590000     -0.5559170000
H                 -4.5412140000     -0.8229380000      1.1864650000
H                 -4.2435550000      1.6062810000      1.4889090000
H                 -3.3410130000      2.9223420000      0.7206540000
H                 -4.3386910000      1.8303430000     -0.2536970000
H                 -0.0388230000      3.0355640000      0.5625180000
H                  3.8418330000      2.0401170000      0.2257980000
H                  5.8388220000      0.5830470000     -0.0717630000
H                  5.5385050000     -1.8759670000     -0.3780110000
H                  3.2451280000     -2.8455300000     -0.3825530000
H                 -0.7691260000     -2.9438320000     -0.1799910000
$end

$rem
BASIS  =  6-311++G(d,p)
GUI  =  2
JOB_TYPE  =  SP
METHOD  =  B3LYP
SCF_CONVERGENCE  = 8
SOLVENT_METHOD = sm12
$end

$smx
solvent dimethylformamide
charges CM5
$end

--------------------------------------------------------------

             Standard Nuclear Orientation (Angstroms)
    I     Atom           X                Y                Z
 ----------------------------------------------------------------
    1      C      -4.0127750000    -1.0154600000     0.2448240000
    2      C      -2.6318800000    -0.4069570000     0.2506500000
    3      C      -2.4618100000     0.9859470000     0.4234900000
    4      C      -3.6584280000     1.8873140000     0.6047720000
    5      C      -1.1773990000     1.5382140000     0.4275190000
    6      O      -1.0342710000     2.8775240000     0.5951240000
    7      C      -0.0284420000     0.7174700000     0.2590200000
    8      C       1.2894280000     1.3160820000     0.2670590000
    9      O       1.4524520000     2.5758220000     0.4231420000
   10      C       2.4314280000     0.4349040000     0.0907060000
   11      C       3.7387720000     0.9699190000     0.0910310000
   12      C       4.8407130000     0.1555970000    -0.0745060000
   13      C       4.6707000000    -1.2364980000    -0.2478710000
   14      C       3.4027380000    -1.7815220000    -0.2515590000
   15      C       2.2600870000    -0.9681030000    -0.0839280000
   16      C       0.9370610000    -1.5691450000    -0.0918320000
   17      O       0.7921080000    -2.8309470000    -0.2490920000
   18      C      -0.2004920000    -0.6914870000     0.0838870000
   19      C      -1.5157060000    -1.2321420000     0.0834250000
   20      O      -1.6992140000    -2.5669240000    -0.0810000000
   21      H      -3.9529930000    -2.0930780000     0.1011750000
   22      H      -4.6339420000    -0.5959590000    -0.5559170000
   23      H      -4.5412140000    -0.8229380000     1.1864650000
   24      H      -4.2435550000     1.6062810000     1.4889090000
   25      H      -3.3410130000     2.9223420000     0.7206540000
   26      H      -4.3386910000     1.8303430000    -0.2536970000
   27      H      -0.0388230000     3.0355640000     0.5625180000
   28      H       3.8418330000     2.0401170000     0.2257980000
   29      H       5.8388220000     0.5830470000    -0.0717630000
   30      H       5.5385050000    -1.8759670000    -0.3780110000
   31      H       3.2451280000    -2.8455300000    -0.3825530000
   32      H      -0.7691260000    -2.9438320000    -0.1799910000
 ----------------------------------------------------------------

   16    -918.1972578204      5.57e-09  Convergence criterion met
 Total energy in the final basis set =     -918.2832198615

                    Orbital Energies (a.u.)
 --------------------------------------------------------------

 Alpha MOs
 -- Occupied --
-19.1267 -19.1267 -19.0910 -19.0910 -10.2362 -10.2362 -10.2306 -10.2306
-10.1830 -10.1828 -10.1826 -10.1823 -10.1811 -10.1807 -10.1800 -10.1800
-10.1793 -10.1789 -10.1678 -10.1678  -1.0516  -1.0502  -1.0067  -1.0049
 -0.8696  -0.8543  -0.8084  -0.7630  -0.7622  -0.7535  -0.7139  -0.6945
 -0.6615  -0.6295  -0.6246  -0.5972  -0.5773  -0.5440  -0.5257  -0.5116
 -0.5083  -0.4775  -0.4684  -0.4579  -0.4515  -0.4411  -0.4336  -0.4274
 -0.4237  -0.4206  -0.4110  -0.4097  -0.4032  -0.3940  -0.3891  -0.3791
 -0.3727  -0.3663  -0.3652  -0.3542  -0.3538  -0.3531  -0.3424  -0.3030
 -0.2703  -0.2662  -0.2629  -0.2491  -0.2485  -0.2139  -0.1468

 Beta MOs
 -- Occupied --
-19.1260 -19.1260 -19.0863 -19.0863 -10.2343 -10.2343 -10.2299 -10.2299
-10.1823 -10.1822 -10.1819 -10.1818 -10.1802 -10.1799 -10.1799 -10.1797
-10.1794 -10.1790 -10.1679 -10.1679  -1.0494  -1.0480  -0.9991  -0.9972
 -0.8671  -0.8527  -0.8055  -0.7613  -0.7597  -0.7514  -0.7111  -0.6929
 -0.6563  -0.6281  -0.6225  -0.5963  -0.5756  -0.5419  -0.5244  -0.5104
 -0.5066  -0.4757  -0.4669  -0.4561  -0.4468  -0.4401  -0.4332  -0.4196
 -0.4193  -0.4184  -0.4087  -0.4068  -0.4023  -0.3853  -0.3849  -0.3784
 -0.3719  -0.3643  -0.3538  -0.3524  -0.3524  -0.3432  -0.3410  -0.2947
 -0.2592  -0.2589  -0.2559  -0.2453  -0.2424  -0.2025

          Ground-State Mulliken Net Atomic Charges

     Atom                 Charge (a.u.)    Spin (a.u.)
  --------------------------------------------------------
      1 C                     0.764108      -0.005529
      2 C                     1.014969       0.073692
      3 C                     1.015181       0.073739
      4 C                     0.767897      -0.005515
      5 C                    -0.858963       0.052832
      6 O                    -0.340299       0.020606
      7 C                    -1.268792      -0.026176
      8 C                    -1.490538       0.100897
      9 O                    -0.345449       0.174218
     10 C                    -0.778611       0.036751
     11 C                     0.286283       0.032414
     12 C                     0.944455       0.041150
     13 C                     0.943476       0.041243
     14 C                     0.285960       0.032385
     15 C                    -0.782799       0.036780
     16 C                    -1.490261       0.100958
     17 O                    -0.345608       0.174210
     18 C                    -1.268358      -0.026169
     19 C                    -0.860904       0.052833
     20 O                    -0.340594       0.020598
     21 H                     0.218785       0.000299
     22 H                     0.222501       0.003426
     23 H                     0.222945       0.003428
     24 H                     0.222575       0.003449
     25 H                     0.219174       0.000298
     26 H                     0.222540       0.003415
     27 H                     0.372222      -0.004239
     28 H                     0.179632      -0.000615
     29 H                     0.358299      -0.003263
     30 H                     0.358276      -0.003264
     31 H                     0.179577      -0.000614
     32 H                     0.372321      -0.004236
  --------------------------------------------------------
  Sum of atomic charges =    -1.000000

                    Cartesian Multipole Moments
 -----------------------------------------------------------------
    Charge (ESU x 10^10)
                -4.8032
    Dipole Moment (Debye)
         X      -1.7746      Y       0.2029      Z      -0.6633
       Tot       1.9054
    Quadrupole Moments (Debye-Ang)
        XX    -128.4043     XY      -3.3001     YY    -154.6870
        XZ      -0.4420     YZ      -3.8981     ZZ    -123.8453

 Total job time:  1030.63s(wall), 8014.70s(cpu)
        *  Thank you very much for using Q-Chem.  Have a nice day.  *
