 Gaussian 16, Revision A.03,
 Gaussian 16:  ES64L-G16RevA.03 25-Dec-2016

 ----------------------------------------------------------------------
 #P UB3LYP/6-311++G(d,p) nosym opt freq SCRF=(PCM,Solvent=n,n-DiMethylF
 ormamide)
 ----------------------------------------------------------------------

 --------
 Oxidized
 --------
 Symbolic Z-matrix:
 Charge =  0 Multiplicity = 1

 SCF Done:  E(UB3LYP) =  -893.514010478     A.U. after   16 cycles
 SCF Done:  E(UB3LYP) =  -893.512646510     A.U. after   14 cycles
 SCF Done:  E(UB3LYP) =  -893.513386195     A.U. after   15 cycles
 SCF Done:  E(UB3LYP) =  -893.514209472     A.U. after   10 cycles
 SCF Done:  E(UB3LYP) =  -893.514243734     A.U. after   13 cycles
 SCF Done:  E(UB3LYP) =  -893.514205100     A.U. after   13 cycles
 SCF Done:  E(UB3LYP) =  -893.514267559     A.U. after   13 cycles
 SCF Done:  E(UB3LYP) =  -893.514272910     A.U. after   12 cycles
 SCF Done:  E(UB3LYP) =  -893.514280123     A.U. after   13 cycles
 SCF Done:  E(UB3LYP) =  -893.514282582     A.U. after   13 cycles
 SCF Done:  E(UB3LYP) =  -893.514283649     A.U. after   12 cycles
 SCF Done:  E(UB3LYP) =  -893.514283835     A.U. after   12 cycles
 SCF Done:  E(UB3LYP) =  -893.514283846     A.U. after   10 cycles
 SCF Done:  E(UB3LYP) =  -893.514283833     A.U. after    9 cycles
 Optimization completed.
    -- Stationary point found.
 Normal termination of Gaussian 16 at Sat Feb 10 16:37:23 2024.

 ----------------------------------------------------------------------
 #P Geom=AllCheck Guess=TCheck SCRF=Check GenChk UB3LYP/6-311++G(d,p) F
 req
 ----------------------------------------------------------------------

 Structure from the checkpoint file:  "174.chk"
 --------
 Oxidized
 --------
 Charge =  0 Multiplicity = 1

                          Input orientation:
 ---------------------------------------------------------------------
 Center     Atomic      Atomic             Coordinates (Angstroms)
 Number     Number       Type             X           Y           Z
 ---------------------------------------------------------------------
      1          8           0        2.531626    2.914878   -1.103605
      2          7           0        2.647004    2.320295   -0.044149
      3          8           0        3.033597    2.811986    1.004626
      4          6           0        2.393355    0.854889   -0.054491
      5          6           0        3.521350    0.053527   -0.142170
      6          6           0        3.361596   -1.329784   -0.199499
      7          6           0        2.088584   -1.884495   -0.167629
      8          6           0        0.961247   -1.065885   -0.070156
      9          6           0       -0.390697   -1.708462   -0.049317
     10          8           0       -0.500065   -2.924328   -0.102340
     11          6           0       -1.579650   -0.821217    0.024338
     12          6           0       -2.858121   -1.386263   -0.000390
     13          6           0       -3.984089   -0.573137    0.070338
     14          6           0       -3.842347    0.813344    0.170958
     15          6           0       -2.574960    1.384643    0.201857
     16          6           0       -1.437157    0.575247    0.126151
     17          6           0       -0.097219    1.213667    0.168787
     18          8           0        0.036914    2.414153    0.352283
     19          6           0        1.096565    0.333681   -0.003909
     20          1           0        4.506622    0.501412   -0.174786
     21          1           0        4.234746   -1.965785   -0.271845
     22          1           0        1.949018   -2.956362   -0.216237
     23          1           0       -2.953662   -2.461855   -0.075396
     24          1           0       -4.972378   -1.016566    0.048023
     25          1           0       -4.720498    1.445483    0.226059
     26          1           0       -2.451381    2.456933    0.282502
 ---------------------------------------------------------------------

 SCF Done:  E(UB3LYP) =  -893.514283833     A.U. after    1 cycles

 Alpha  occ. eigenvalues --  -19.18980 -19.18945 -19.14452 -19.14092 -14.58058
 Alpha  occ. eigenvalues --  -10.29898 -10.29382 -10.26983 -10.23803 -10.22814
 Alpha  occ. eigenvalues --  -10.22479 -10.21769 -10.21676 -10.21664 -10.21364
 Alpha  occ. eigenvalues --  -10.20472 -10.20449 -10.20406 -10.20371  -1.26641
 Alpha  occ. eigenvalues --   -1.09317  -1.08011  -1.07440  -0.92201  -0.89551
 Alpha  occ. eigenvalues --   -0.83944  -0.82479  -0.78619  -0.78572  -0.73535
 Alpha  occ. eigenvalues --   -0.70216  -0.67653  -0.66239  -0.61958  -0.60138
 Alpha  occ. eigenvalues --   -0.58824  -0.57570  -0.55982  -0.54834  -0.54375
 Alpha  occ. eigenvalues --   -0.51527  -0.50302  -0.49865  -0.49183  -0.46956
 Alpha  occ. eigenvalues --   -0.46850  -0.45869  -0.45762  -0.45096  -0.43096
 Alpha  occ. eigenvalues --   -0.41458  -0.41285  -0.41086  -0.38823  -0.38235
 Alpha  occ. eigenvalues --   -0.37636  -0.34697  -0.34232  -0.34011  -0.30478
 Alpha  occ. eigenvalues --   -0.30019  -0.29212  -0.28801  -0.28726  -0.28477
 Alpha virt. eigenvalues --   -0.13071  -0.10450  -0.08749  -0.04977  -0.03997
 Alpha virt. eigenvalues --   -0.00697   0.00139   0.01161   0.01705   0.02176
 Alpha virt. eigenvalues --    0.02239   0.02501   0.03503   0.04147   0.04251

  Beta  occ. eigenvalues --  -19.18980 -19.18945 -19.14452 -19.14092 -14.58058
  Beta  occ. eigenvalues --  -10.29898 -10.29382 -10.26983 -10.23803 -10.22814
  Beta  occ. eigenvalues --  -10.22479 -10.21769 -10.21676 -10.21664 -10.21364
  Beta  occ. eigenvalues --  -10.20472 -10.20449 -10.20406 -10.20371  -1.26641
  Beta  occ. eigenvalues --   -1.09317  -1.08011  -1.07440  -0.92201  -0.89551
  Beta  occ. eigenvalues --   -0.83944  -0.82479  -0.78619  -0.78572  -0.73535
  Beta  occ. eigenvalues --   -0.70216  -0.67653  -0.66239  -0.61958  -0.60138
  Beta  occ. eigenvalues --   -0.58824  -0.57570  -0.55982  -0.54834  -0.54375
  Beta  occ. eigenvalues --   -0.51527  -0.50302  -0.49865  -0.49183  -0.46956
  Beta  occ. eigenvalues --   -0.46850  -0.45869  -0.45762  -0.45096  -0.43096
  Beta  occ. eigenvalues --   -0.41458  -0.41285  -0.41086  -0.38823  -0.38235
  Beta  occ. eigenvalues --   -0.37636  -0.34697  -0.34232  -0.34011  -0.30478
  Beta  occ. eigenvalues --   -0.30019  -0.29212  -0.28801  -0.28726  -0.28477
  Beta virt. eigenvalues --   -0.13071  -0.10450  -0.08749  -0.04977  -0.03997
  Beta virt. eigenvalues --   -0.00697   0.00139   0.01161   0.01705   0.02176
  Beta virt. eigenvalues --    0.02239   0.02501   0.03503   0.04147   0.04251

 Mulliken charges and spin densities:
               1          2
     1  O   -0.001814  -0.000000
     2  N   -0.156188   0.000000
     3  O    0.001825  -0.000000
     4  C   -0.270794  -0.000000
     5  C    0.303419   0.000000
     6  C   -0.396539  -0.000000
     7  C   -0.197061   0.000000
     8  C    1.209786   0.000000
     9  C   -0.368779  -0.000000
    10  O   -0.254048   0.000000
    11  C    0.389770  -0.000000
    12  C    0.074519   0.000000
    13  C   -0.453797   0.000000
    14  C   -0.388788  -0.000000
    15  C    0.172899  -0.000000
    16  C    0.054871   0.000000
    17  C   -1.162793  -0.000000
    18  O   -0.217140  -0.000000
    19  C    0.184856  -0.000000
    20  H    0.247722   0.000000
    21  H    0.234866  -0.000000
    22  H    0.188487  -0.000000
    23  H    0.189088   0.000000
    24  H    0.211265   0.000000
    25  H    0.214197  -0.000000
    26  H    0.190172   0.000000
 Sum of Mulliken charges =  -0.00000  -0.00000

 Dipole moment (field-independent basis, Debye):
    X=             -2.0406    Y=             -5.0093    Z=             -0.4479  Tot=              5.4275
 Quadrupole moment (field-independent basis, Debye-Ang):
   XX=            -75.2285   YY=           -132.4165   ZZ=           -112.8376
   XY=            -19.5136   XZ=             -2.8273   YZ=             -0.5136

  Exact polarizability: 345.663   3.646 302.021  -2.771  10.923 136.606
 Approx polarizability: 376.292   4.532 386.719   2.812  14.589 181.340

                      1                      2                      3
                      A                      A                      A
 Frequencies --     17.7571                44.0522                89.9865
 Red. masses --     11.9883                 7.5045                 7.0863
 Frc consts  --      0.0022                 0.0086                 0.0338
 IR Inten    --      1.8714                12.2407                 0.1062

                      4                      5                      6
                      A                      A                      A
 Frequencies --    116.5714               145.1895               156.2614
 Red. masses --      6.0942                 8.9432                 6.3126
 Frc consts  --      0.0488                 0.1111                 0.0908
 IR Inten    --      0.5576                 3.2427                 0.4472

                      7                      8                      9
                      A                      A                      A
 Frequencies --    162.8158               216.7568               251.6790
 Red. masses --      8.2038                 5.2819                 6.3822
 Frc consts  --      0.1281                 0.1462                 0.2382
 IR Inten    --      1.5328                 0.0848                 1.8604

                     10                     11                     12
                      A                      A                      A
 Frequencies --    311.1410               326.4508               355.8704
 Red. masses --      8.6095                 7.8074                 6.7905
 Frc consts  --      0.4911                 0.4902                 0.5067
 IR Inten    --      3.0971                 4.3874                 2.0003

                     13                     14                     15
                      A                      A                      A
 Frequencies --    376.2524               391.3319               425.8589
 Red. masses --      6.4668                12.0882                 4.8734
 Frc consts  --      0.5394                 1.0907                 0.5207
 IR Inten    --      5.7958                59.0872                 0.1458

                     16                     17                     18
                      A                      A                      A
 Frequencies --    428.4568               448.1139               483.2936
 Red. masses --      3.6086                 8.3916                 7.4305
 Frc consts  --      0.3903                 0.9928                 1.0226
 IR Inten    --      1.1213                 2.4390                 0.4343

                     19                     20                     21
                      A                      A                      A
 Frequencies --    487.6404               597.2936               622.3300
 Red. masses --      4.7818                 5.5751                 6.9730
 Frc consts  --      0.6699                 1.1719                 1.5912
 IR Inten    --      0.2069                 5.1813                 3.1309

                     22                     23                     24
                      A                      A                      A
 Frequencies --    654.6253               673.9658               691.7978
 Red. masses --      7.0323                 4.3803                 7.5409
 Frc consts  --      1.7756                 1.1723                 2.1263
 IR Inten    --     25.5968                20.6871                 2.8892

                     25                     26                     27
                      A                      A                      A
 Frequencies --    717.8658               724.5187               743.1886
 Red. masses --      2.9388                 8.1629                 2.6236
 Frc consts  --      0.8923                 2.5246                 0.8538
 IR Inten    --     78.5967                57.3135                43.6897

                     28                     29                     30
                      A                      A                      A
 Frequencies --    758.4202               796.4269               808.3452
 Red. masses --      7.4210                 2.0723                 7.4852
 Frc consts  --      2.5150                 0.7745                 2.8817
 IR Inten    --      3.9731                 6.0386                17.1880

                     31                     32                     33
                      A                      A                      A
 Frequencies --    813.6592               839.0652               885.4304
 Red. masses --      2.5849                 2.1198                10.2132
 Frc consts  --      1.0083                 0.8793                 4.7176
 IR Inten    --     17.1504                39.1019                47.1672

                     34                     35                     36
                      A                      A                      A
 Frequencies --    915.9297               932.7960               960.2821
 Red. masses --      1.4258                 6.5769                 1.4011
 Frc consts  --      0.7047                 3.3717                 0.7612
 IR Inten    --      0.0794                11.5903                 0.4243

                     37                     38                     39
                      A                      A                      A
 Frequencies --    985.8639              1004.0281              1021.1065
 Red. masses --      7.7961                 1.3866                 1.3460
 Frc consts  --      4.4644                 0.8235                 0.8269
 IR Inten    --    147.6166                 2.1787                 0.9176

                     40                     41                     42
                      A                      A                      A
 Frequencies --   1025.6024              1057.3554              1098.3079
 Red. masses --      1.3374                 2.0821                 2.0436
 Frc consts  --      0.8289                 1.3715                 1.4525
 IR Inten    --      0.0277                 0.3525                 1.1334

                     43                     44                     45
                      A                      A                      A
 Frequencies --   1114.2958              1170.7104              1180.9458
 Red. masses --      2.3080                 3.5936                 1.2396
 Frc consts  --      1.6884                 2.9019                 1.0186
 IR Inten    --      0.2015                18.1734                 8.5935

                     46                     47                     48
                      A                      A                      A
 Frequencies --   1186.7203              1201.2673              1216.5206
 Red. masses --      1.4380                 2.1230                 1.7286
 Frc consts  --      1.1932                 1.8050                 1.5073
 IR Inten    --     18.5055                 2.3859                 1.2508

                     49                     50                     51
                      A                      A                      A
 Frequencies --   1269.2933              1291.7983              1323.7340
 Red. masses --      1.7997                 5.1377                 2.5315
 Frc consts  --      1.7083                 5.0513                 2.6136
 IR Inten    --     37.1466              1131.7348                 4.1328

                     52                     53                     54
                      A                      A                      A
 Frequencies --   1349.3082              1363.0449              1414.8811
 Red. masses --      7.6450                 8.2462                13.4564
 Frc consts  --      8.2007                 9.0266                15.8716
 IR Inten    --    151.2665                 4.8688               224.8597

                     55                     56                     57
                      A                      A                      A
 Frequencies --   1474.1889              1479.0342              1486.5907
 Red. masses --      3.3052                 2.3819                 2.4714
 Frc consts  --      4.2321                 3.0700                 3.2180
 IR Inten    --     44.5799                13.5070                 2.7208

                     58                     59                     60
                      A                      A                      A
 Frequencies --   1506.8920              1567.1955              1602.6111
 Red. masses --      2.6133                14.4957                 6.3024
 Frc consts  --      3.4962                20.9766                 9.5370
 IR Inten    --      8.0300               675.4259                 4.3609

                     61                     62                     63
                      A                      A                      A
 Frequencies --   1614.8370              1617.1009              1625.8548
 Red. masses --      7.1003                 6.0530                 6.1435
 Frc consts  --     10.9091                 9.3259                 9.5682
 IR Inten    --      2.5246               386.2479                 7.5757

                     64                     65                     66
                      A                      A                      A
 Frequencies --   1703.8081              1711.7025              3182.2861
 Red. masses --     12.5020                12.0789                 1.0877
 Frc consts  --     21.3832                20.8513                 6.4901
 IR Inten    --     14.3791               745.5330                 2.7587

                     67                     68                     69
                      A                      A                      A
 Frequencies --   3194.1576              3195.8042              3205.9500
 Red. masses --      1.0915                 1.0888                 1.0927
 Frc consts  --      6.5611                 6.5521                 6.6172
 IR Inten    --      8.7437                 1.4111                 2.1274

                     70                     71                     72
                      A                      A                      A
 Frequencies --   3206.4026              3208.9009              3214.7188
 Red. masses --      1.0931                 1.0957                 1.0959
 Frc consts  --      6.6215                 6.6475                 6.6728
 IR Inten    --      0.1427                18.6122                 4.7265

 - Thermochemistry -
 -------------------
 Temperature   298.150 Kelvin.  Pressure   1.00000 Atm.
 Atom     1 has atomic number  8 and mass  15.99491

 Molecular mass:   253.03751 amu.
 Principal axes and moments of inertia in atomic units:
                           1         2         3
     Eigenvalues --  2645.983505686.375378063.58000
           X            0.94809  -0.31565   0.03858
           Y            0.31733   0.94696  -0.05067
           Z           -0.02054   0.06028   0.99797
 This molecule is an asymmetric top.
 Rotational symmetry number  1.
 Warning -- assumption of classical behavior for rotation
           may cause significant error
 Rotational temperatures (Kelvin)      0.03273     0.01523     0.01074
 Rotational constants (GHZ):           0.68207     0.31738     0.22381
 Zero-point vibrational energy     475182.1 (Joules/Mol)
                                  113.57124 (Kcal/Mol)
 Warning -- explicit consideration of  20 degrees of freedom as
           vibrations may cause significant error
 Vibrational temperatures:     25.55    63.38   129.47   167.72   208.90
          (Kelvin)            224.83   234.26   311.86   362.11   447.66
                              469.69   512.02   541.34   563.04   612.72
                              616.45   644.74   695.35   701.61   859.37
                              895.39   941.86   969.69   995.34  1032.85
                             1042.42  1069.28  1091.20  1145.88  1163.03
                             1170.67  1207.23  1273.94  1317.82  1342.09
                             1381.63  1418.44  1444.57  1469.14  1475.61
                             1521.30  1580.22  1603.22  1684.39  1699.12
                             1707.43  1728.36  1750.30  1826.23  1858.61
                             1904.56  1941.35  1961.12  2035.70  2121.03
                             2128.00  2138.87  2168.08  2254.84  2305.80
                             2323.39  2326.65  2339.24  2451.40  2462.76
                             4578.60  4595.68  4598.05  4612.65  4613.30
                             4616.89  4625.26

 Zero-point correction=                           0.180987 (Hartree/Particle)
 Thermal correction to Energy=                    0.195039
 Thermal correction to Enthalpy=                  0.195983
 Thermal correction to Gibbs Free Energy=         0.138508
 Sum of electronic and zero-point Energies=           -893.333297
 Sum of electronic and thermal Energies=              -893.319245
 Sum of electronic and thermal Enthalpies=            -893.318300
 Sum of electronic and thermal Free Energies=         -893.375776

                     E (Thermal)             CV                S
                      KCal/Mol        Cal/Mol-Kelvin    Cal/Mol-Kelvin
 Total                  122.389             54.626            120.967
 Electronic               0.000              0.000              0.000
 Translational            0.889              2.981             42.485
 Rotational               0.889              2.981             33.161
 Vibrational            120.612             48.664             45.320
 Vibration     1          0.593              1.986              6.870
 Vibration     2          0.595              1.980              5.068
 Vibration     3          0.602              1.956              3.660
 Vibration     4          0.608              1.936              3.156
 Vibration     5          0.617              1.908              2.734
 Vibration     6          0.620              1.896              2.595
 Vibration     7          0.623              1.888              2.517
 Vibration     8          0.646              1.816              1.986
 Vibration     9          0.664              1.760              1.719
 Vibration    10          0.700              1.652              1.356
 Vibration    11          0.710              1.623              1.278
 Vibration    12          0.731              1.563              1.140
 Vibration    13          0.747              1.521              1.054
 Vibration    14          0.759              1.489              0.995
 Vibration    15          0.788              1.414              0.872
 Vibration    16          0.790              1.408              0.864
 Vibration    17          0.807              1.365              0.801
 Vibration    18          0.839              1.287              0.701
 Vibration    19          0.844              1.277              0.690
 Vibration    20          0.955              1.038              0.454

 Optimization completed.
    -- Stationary point found.
 Normal termination of Gaussian 16 at Sat Feb 10 17:11:06 2024.
