 Gaussian 16, Revision A.03,
 Gaussian 16:  ES64L-G16RevA.03 25-Dec-2016

 --------------------------------------
 #P UB3LYP/6-311++G(d,p) nosym opt freq
 --------------------------------------

 -------
 Reduced
 -------
 Symbolic Z-matrix:
 Charge = -2 Multiplicity = 1

 SCF Done:  E(UB3LYP) =  -1219.04827967     A.U. after   38 cycles
 SCF Done:  E(UB3LYP) =  -1219.08000789     A.U. after   27 cycles
 SCF Done:  E(UB3LYP) =  -1219.08860276     A.U. after   18 cycles
 SCF Done:  E(UB3LYP) =  -1219.08400945     A.U. after   16 cycles
 SCF Done:  E(UB3LYP) =  -1219.08164759     A.U. after   17 cycles
 SCF Done:  E(UB3LYP) =  -1219.08629072     A.U. after   17 cycles
 SCF Done:  E(UB3LYP) =  -1219.09009810     A.U. after   16 cycles
 SCF Done:  E(UB3LYP) =  -1219.09339358     A.U. after   18 cycles
 SCF Done:  E(UB3LYP) =  -1219.09462883     A.U. after   17 cycles
 SCF Done:  E(UB3LYP) =  -1219.09640980     A.U. after   15 cycles
 SCF Done:  E(UB3LYP) =  -1219.09695395     A.U. after   13 cycles
 SCF Done:  E(UB3LYP) =  -1219.09697606     A.U. after   13 cycles
 SCF Done:  E(UB3LYP) =  -1219.09697999     A.U. after   12 cycles
 SCF Done:  E(UB3LYP) =  -1219.09697990     A.U. after   12 cycles
 SCF Done:  E(UB3LYP) =  -1219.09698160     A.U. after   11 cycles
 SCF Done:  E(UB3LYP) =  -1219.09698187     A.U. after   10 cycles
 SCF Done:  E(UB3LYP) =  -1219.09698198     A.U. after   10 cycles
 SCF Done:  E(UB3LYP) =  -1219.09698205     A.U. after    9 cycles
 SCF Done:  E(UB3LYP) =  -1219.09698207     A.U. after    9 cycles
 Optimization completed.
    -- Stationary point found.
 Normal termination of Gaussian 16 at Tue Dec 26 23:18:09 2023.

 ----------------------------------------------------------------------
 #P Geom=AllCheck Guess=TCheck SCRF=Check GenChk UB3LYP/6-311++G(d,p) F
 req
 ----------------------------------------------------------------------

 Structure from the checkpoint file:  "265-an.chk"
 -------
 Reduced
 -------
 Charge = -2 Multiplicity = 1

                          Input orientation:
 ---------------------------------------------------------------------
 Center     Atomic      Atomic             Coordinates (Angstroms)
 Number     Number       Type             X           Y           Z
 ---------------------------------------------------------------------
      1          6           0       -1.165424    3.005930   -0.547951
      2          6           0       -2.481967    2.594828   -0.365698
      3          6           0       -2.765361    1.281738    0.055235
      4          6           0       -0.097945    2.113917   -0.310915
      5          6           0       -0.388529    0.783550    0.110743
      6          6           0       -1.735149    0.384901    0.276429
      7          6           0        1.282320    2.588568   -0.502365
      8          6           0        2.301742    1.614319   -0.219552
      9          6           0        1.957478    0.282021    0.223019
     10          6           0        0.657967   -0.178849    0.416914
     11          8           0        1.441505    3.793536   -0.872204
     12          8           0        0.304362   -1.356302    0.844411
     13          1           0       -3.796225    0.967958    0.193792
     14          1           0        2.764585   -0.405965    0.438856
     15          6           0       -2.050252   -1.022852    0.691230
     16          8           0       -2.529736   -1.350811    1.760618
     17          8           0       -2.070326   -1.864911   -0.398621
     18          6           0       -1.968180   -3.246247   -0.070987
     19          1           0       -3.293938    3.287742   -0.564461
     20          1           0       -1.981956   -3.784734   -1.021540
     21          1           0       -2.802406   -3.574177    0.558274
     22          1           0       -1.019248   -3.408590    0.446899
     23          6           0        3.693067    1.988526   -0.363306
     24          8           0        4.198728    3.059973   -0.664573
     25          8           0        4.569104    0.903407   -0.096241
     26          6           0       -0.975345    4.423997   -1.034647
     27          8           0       -1.252448    4.773458   -2.160957
     28          8           0       -0.818272    5.410577   -0.092039
     29          6           0       -0.262570    5.082408    1.185472
     30          6           0        5.942160    1.212035   -0.207602
     31          1           0       -0.331764    5.998571    1.777404
     32          1           0        0.777458    4.779175    1.057843
     33          1           0       -0.829373    4.286570    1.676948
     34          1           0        6.478195    0.287227    0.025447
     35          1           0        6.243879    2.000497    0.492150
     36          1           0        6.206593    1.548617   -1.216954
 ---------------------------------------------------------------------

 SCF Done:  E(UB3LYP) =  -1219.09698207     A.U. after    2 cycles

 Alpha  occ. eigenvalues --  -18.94123 -18.93590 -18.92793 -18.88195 -18.88135
 Alpha  occ. eigenvalues --  -18.86211 -18.81670 -18.79536 -10.08364 -10.08086
 Alpha  occ. eigenvalues --  -10.05025 -10.02466 -10.01520 -10.01117  -9.97742
 Alpha  occ. eigenvalues --   -9.96819  -9.96272  -9.96148  -9.96024  -9.95107
 Alpha  occ. eigenvalues --   -9.94356  -9.94145  -9.92200  -9.90101  -0.87441
 Alpha  occ. eigenvalues --   -0.87419  -0.85906  -0.79544  -0.78997  -0.77167
 Alpha  occ. eigenvalues --   -0.74014  -0.70914  -0.63816  -0.56647  -0.55799
 Alpha  occ. eigenvalues --   -0.52915  -0.51189  -0.50490  -0.49264  -0.44194
 Alpha  occ. eigenvalues --   -0.42983  -0.39950  -0.37318  -0.35943  -0.34076
 Alpha  occ. eigenvalues --   -0.32623  -0.30503  -0.28713  -0.27773  -0.26423
 Alpha  occ. eigenvalues --   -0.26321  -0.26050  -0.25804  -0.25262  -0.24767
 Alpha  occ. eigenvalues --   -0.23974  -0.23381  -0.22862  -0.20712  -0.20519
 Alpha  occ. eigenvalues --   -0.19197  -0.18541  -0.17784  -0.17461  -0.16417
 Alpha  occ. eigenvalues --   -0.16312  -0.15961  -0.14583  -0.14134  -0.13619
 Alpha  occ. eigenvalues --   -0.13230  -0.12142  -0.11146  -0.10436  -0.10200
 Alpha  occ. eigenvalues --   -0.07885  -0.07648  -0.07487  -0.05931  -0.05772
 Alpha  occ. eigenvalues --   -0.04235  -0.02386  -0.01637  -0.00431   0.01542
 Alpha  occ. eigenvalues --    0.02432   0.09580
 Alpha virt. eigenvalues --    0.14445   0.15049   0.15895   0.16766   0.18079
 Alpha virt. eigenvalues --    0.18118   0.18251   0.18806   0.19238   0.19560
 Alpha virt. eigenvalues --    0.19922   0.20773   0.21173   0.22241   0.22901

  Beta  occ. eigenvalues --  -18.94123 -18.93590 -18.92793 -18.88195 -18.88135
  Beta  occ. eigenvalues --  -18.86211 -18.81670 -18.79536 -10.08364 -10.08086
  Beta  occ. eigenvalues --  -10.05025 -10.02466 -10.01520 -10.01117  -9.97742
  Beta  occ. eigenvalues --   -9.96819  -9.96272  -9.96148  -9.96024  -9.95107
  Beta  occ. eigenvalues --   -9.94356  -9.94145  -9.92200  -9.90101  -0.87441
  Beta  occ. eigenvalues --   -0.87419  -0.85906  -0.79544  -0.78997  -0.77167
  Beta  occ. eigenvalues --   -0.74014  -0.70914  -0.63816  -0.56647  -0.55799
  Beta  occ. eigenvalues --   -0.52915  -0.51189  -0.50490  -0.49264  -0.44194
  Beta  occ. eigenvalues --   -0.42983  -0.39950  -0.37318  -0.35943  -0.34076
  Beta  occ. eigenvalues --   -0.32623  -0.30503  -0.28713  -0.27773  -0.26423
  Beta  occ. eigenvalues --   -0.26321  -0.26050  -0.25804  -0.25262  -0.24767
  Beta  occ. eigenvalues --   -0.23974  -0.23381  -0.22862  -0.20712  -0.20519
  Beta  occ. eigenvalues --   -0.19197  -0.18541  -0.17784  -0.17461  -0.16417
  Beta  occ. eigenvalues --   -0.16312  -0.15961  -0.14583  -0.14134  -0.13619
  Beta  occ. eigenvalues --   -0.13230  -0.12142  -0.11146  -0.10436  -0.10200
  Beta  occ. eigenvalues --   -0.07885  -0.07648  -0.07487  -0.05931  -0.05772
  Beta  occ. eigenvalues --   -0.04235  -0.02386  -0.01637  -0.00431   0.01542
  Beta  occ. eigenvalues --    0.02432   0.09580
  Beta virt. eigenvalues --    0.14445   0.15049   0.15895   0.16766   0.18079
  Beta virt. eigenvalues --    0.18118   0.18251   0.18806   0.19238   0.19560
  Beta virt. eigenvalues --    0.19922   0.20773   0.21173   0.22241   0.22901

 Mulliken charges and spin densities:
               1          2
     1  C    0.239996  -0.000000
     2  C    0.247411   0.000000
     3  C   -0.060962   0.000000
     4  C    0.318451   0.000000
     5  C    0.468473   0.000000
     6  C    0.591590  -0.000000
     7  C   -0.610839   0.000000
     8  C    0.053656   0.000000
     9  C   -0.459520  -0.000000
    10  C   -0.876852  -0.000000
    11  O   -0.368954  -0.000000
    12  O   -0.455717   0.000000
    13  H    0.114175  -0.000000
    14  H    0.156616  -0.000000
    15  C   -0.687377   0.000000
    16  O   -0.234465  -0.000000
    17  O    0.021910   0.000000
    18  C   -0.215849   0.000000
    19  H    0.140659   0.000000
    20  H    0.101508  -0.000000
    21  H    0.104156  -0.000000
    22  H    0.195141   0.000000
    23  C    0.214816  -0.000000
    24  O   -0.318431  -0.000000
    25  O   -0.144444   0.000000
    26  C   -0.422852   0.000000
    27  O   -0.281365  -0.000000
    28  O   -0.048833  -0.000000
    29  C   -0.356089   0.000000
    30  C   -0.245507  -0.000000
    31  H    0.092990  -0.000000
    32  H    0.227084  -0.000000
    33  H    0.120430   0.000000
    34  H    0.091791  -0.000000
    35  H    0.143051   0.000000
    36  H    0.144153   0.000000
 Sum of Mulliken charges =  -2.00000  -0.00000

 Dipole moment (field-independent basis, Debye):
    X=             -4.3928    Y=            -15.6759    Z=              2.5605  Tot=             16.4799
 Quadrupole moment (field-independent basis, Debye-Ang):
   XX=           -199.6843   YY=           -244.7562   ZZ=           -167.2435
   XY=            -21.3664   XZ=              7.7975   YZ=             38.7633

  Exact polarizability: 365.318   1.188 292.459  -6.023 -25.328 168.691
 Approx polarizability: 589.867 -19.236 436.132  -6.532 -57.559 276.792

                      1                      2                      3
                      A                      A                      A
 Frequencies --     32.6293                37.0787                48.2428
 Red. masses --      5.3467                 7.0815                 5.4873
 Frc consts  --      0.0034                 0.0057                 0.0075
 IR Inten    --      2.6238                 1.1099                 2.5689

                      4                      5                      6
                      A                      A                      A
 Frequencies --     51.1981                78.9378                80.6150
 Red. masses --      5.7367                 6.0691                 3.6068
 Frc consts  --      0.0089                 0.0223                 0.0138
 IR Inten    --      3.4447                 0.7265                 2.7583

                      7                      8                      9
                      A                      A                      A
 Frequencies --     96.0924               108.1238               118.1609
 Red. masses --      2.9756                 3.9811                 3.0607
 Frc consts  --      0.0162                 0.0274                 0.0252
 IR Inten    --      3.6806                 0.2666                 2.9878

                     10                     11                     12
                      A                      A                      A
 Frequencies --    140.3030               144.6538               153.1985
 Red. masses --      1.6131                 2.3259                 1.6145
 Frc consts  --      0.0187                 0.0287                 0.0223
 IR Inten    --      0.6580                 1.2659                 1.2771

                     13                     14                     15
                      A                      A                      A
 Frequencies --    162.5221               168.9094               188.4520
 Red. masses --      1.6357                 5.0637                 4.3223
 Frc consts  --      0.0255                 0.0851                 0.0904
 IR Inten    --      2.1075                 7.1846                12.0833

                     16                     17                     18
                      A                      A                      A
 Frequencies --    200.0831               216.1148               240.1221
 Red. masses --      4.9586                 2.1682                 6.7805
 Frc consts  --      0.1170                 0.0597                 0.2303
 IR Inten    --      0.9198                 7.1612                 2.3353

                     19                     20                     21
                      A                      A                      A
 Frequencies --    259.7367               265.4160               293.0408
 Red. masses --      7.5225                 9.4607                 6.3419
 Frc consts  --      0.2990                 0.3927                 0.3209
 IR Inten    --      1.5648                 0.8580                 7.5835

                     22                     23                     24
                      A                      A                      A
 Frequencies --    301.8333               326.4714               346.2828
 Red. masses --      7.0715                 4.5160                 4.7060
 Frc consts  --      0.3796                 0.2836                 0.3325
 IR Inten    --      7.7453                12.6847                14.4953

                     25                     26                     27
                      A                      A                      A
 Frequencies --    356.2093               371.5018               395.1606
 Red. masses --     11.1610                 6.1290                 7.4486
 Frc consts  --      0.8344                 0.4984                 0.6853
 IR Inten    --     28.4268                 7.3706                 7.7547

                     28                     29                     30
                      A                      A                      A
 Frequencies --    403.5853               426.0798               462.9323
 Red. masses --      5.9913                10.0546                 4.0356
 Frc consts  --      0.5750                 1.0755                 0.5096
 IR Inten    --      1.7662                16.4913                 1.5696

                     31                     32                     33
                      A                      A                      A
 Frequencies --    494.0489               516.5324               562.8580
 Red. masses --     12.2598                 7.3307                 7.5821
 Frc consts  --      1.7631                 1.1524                 1.4153
 IR Inten    --      3.3286                 1.2240                21.9429

                     34                     35                     36
                      A                      A                      A
 Frequencies --    606.1705               619.3738               658.3916
 Red. masses --      4.1232                 8.1471                 7.8109
 Frc consts  --      0.8926                 1.8414                 1.9949
 IR Inten    --      4.4416                29.2712                43.7616

                     37                     38                     39
                      A                      A                      A
 Frequencies --    679.5623               685.1687               717.1570
 Red. masses --      8.3715                 5.2767                 7.7266
 Frc consts  --      2.2778                 1.4595                 2.3413
 IR Inten    --     47.1659                 5.3314                32.7198

                     40                     41                     42
                      A                      A                      A
 Frequencies --    720.8580               730.5336               765.9438
 Red. masses --      7.2496                 4.8146                 5.6594
 Frc consts  --      2.2195                 1.5139                 1.9562
 IR Inten    --    129.3780                29.2238                31.9149

                     43                     44                     45
                      A                      A                      A
 Frequencies --    770.1807               781.3615               806.1844
 Red. masses --      5.0109                 8.1726                 2.8885
 Frc consts  --      1.7513                 2.9398                 1.1061
 IR Inten    --     27.8968                 0.7572                 4.7357

                     46                     47                     48
                      A                      A                      A
 Frequencies --    812.3508               817.9447               835.2559
 Red. masses --      2.8746                 7.3116                 1.6393
 Frc consts  --      1.1177                 2.8821                 0.6738
 IR Inten    --     56.5536               177.6360                19.4898

                     49                     50                     51
                      A                      A                      A
 Frequencies --    879.6053               895.0019               904.8230
 Red. masses --      5.0563                 3.8763                 1.7575
 Frc consts  --      2.3049                 1.8294                 0.8478
 IR Inten    --     18.9804                64.3681                 8.0930

                     52                     53                     54
                      A                      A                      A
 Frequencies --   1008.8667              1041.0587              1059.6370
 Red. masses --      7.3100                 5.8959                 5.2272
 Frc consts  --      4.3836                 3.7649                 3.4581
 IR Inten    --     53.5996                89.7358                94.3249

                     55                     56                     57
                      A                      A                      A
 Frequencies --   1094.4674              1099.5564              1108.2525
 Red. masses --      8.1443                 5.9459                 4.3825
 Frc consts  --      5.7479                 4.2355                 3.1714
 IR Inten    --    290.2926               217.3960               558.4947

                     58                     59                     60
                      A                      A                      A
 Frequencies --   1162.4657              1165.0307              1165.1563
 Red. masses --      1.4794                 1.3038                 1.3019
 Frc consts  --      1.1779                 1.0427                 1.0414
 IR Inten    --      9.3239                30.4736                30.2008

                     61                     62                     63
                      A                      A                      A
 Frequencies --   1169.7463              1178.5715              1196.3028
 Red. masses --      1.7690                 1.6659                 2.3184
 Frc consts  --      1.4261                 1.3634                 1.9549
 IR Inten    --    160.6827               266.7871                 5.3843

                     64                     65                     66
                      A                      A                      A
 Frequencies --   1204.3994              1209.8205              1227.4658
 Red. masses --      1.4690                 2.0502                 2.3344
 Frc consts  --      1.2555                 1.7681                 2.0723
 IR Inten    --     23.3042               271.0466                42.0191

                     67                     68                     69
                      A                      A                      A
 Frequencies --   1247.0767              1262.8921              1287.9001
 Red. masses --      3.0776                 2.5194                 7.6056
 Frc consts  --      2.8200                 2.3674                 7.4328
 IR Inten    --     22.0479               295.5746                26.1587

                     70                     71                     72
                      A                      A                      A
 Frequencies --   1353.2200              1357.6498              1371.2825
 Red. masses --      4.3449                 5.0978                 6.3980
 Frc consts  --      4.6878                 5.5361                 7.0884
 IR Inten    --     48.4787                 2.6013               178.2104

                     73                     74                     75
                      A                      A                      A
 Frequencies --   1418.9074              1426.8446              1442.3434
 Red. masses --      4.8766                 3.0816                 1.2325
 Frc consts  --      5.7846                 3.6964                 1.5107
 IR Inten    --    329.1877               393.9802                11.2720

                     76                     77                     78
                      A                      A                      A
 Frequencies --   1450.1269              1452.5342              1465.5965
 Red. masses --      1.2973                 1.2433                 1.0500
 Frc consts  --      1.6074                 1.5455                 1.3289
 IR Inten    --     11.0180                68.2109                 2.0107

                     79                     80                     81
                      A                      A                      A
 Frequencies --   1470.2019              1479.4346              1503.0433
 Red. masses --      1.0536                 1.0954                 1.0663
 Frc consts  --      1.3417                 1.4125                 1.4193
 IR Inten    --     10.1859                 8.6660                26.2770

                     82                     83                     84
                      A                      A                      A
 Frequencies --   1505.1974              1515.1300              1522.2584
 Red. masses --      1.0512                 1.7176                 1.8000
 Frc consts  --      1.4033                 2.3232                 2.4575
 IR Inten    --      2.4458                71.3235                63.8448

                     85                     86                     87
                      A                      A                      A
 Frequencies --   1539.6943              1575.9728              1616.1266
 Red. masses --      5.1070                 6.4474                 7.6394
 Frc consts  --      7.1332                 9.4348                11.7560
 IR Inten    --    240.4519                86.5615               157.8066

                     88                     89                     90
                      A                      A                      A
 Frequencies --   1706.5323              1716.1586              1746.4774
 Red. masses --     11.7462                11.8629                12.8485
 Frc consts  --     20.1547                20.5852                23.0902
 IR Inten    --    965.4850               277.8118               465.6369

                     91                     92                     93
                      A                      A                      A
 Frequencies --   2988.5721              3004.7270              3015.3795
 Red. masses --      1.0299                 1.0312                 1.0294
 Frc consts  --      5.4195                 5.4855                 5.5148
 IR Inten    --    195.8896               158.7073               102.3830

                     94                     95                     96
                      A                      A                      A
 Frequencies --   3032.4096              3066.5950              3071.8096
 Red. masses --      1.1035                 1.1022                 1.1004
 Frc consts  --      5.9787                 6.1068                 6.1178
 IR Inten    --     68.9171                63.5410                39.8254

                     97                     98                     99
                      A                      A                      A
 Frequencies --   3082.7323              3098.3086              3113.6918
 Red. masses --      1.1048                 1.1058                 1.1054
 Frc consts  --      6.1858                 6.2541                 6.3144
 IR Inten    --     64.5229                23.4058                 1.0884

                    100                    101                    102
                      A                      A                      A
 Frequencies --   3133.7945              3154.6512              3190.0574
 Red. masses --      1.0855                 1.0930                 1.0871
 Frc consts  --      6.2807                 6.4087                 6.5183
 IR Inten    --     19.9759                54.1433                22.7884

 - Thermochemistry -
 -------------------
 Temperature   298.150 Kelvin.  Pressure   1.00000 Atm.
 Atom     1 has atomic number  6 and mass  12.00000

 Molecular mass:   332.05322 amu.
 Principal axes and moments of inertia in atomic units:
                           1         2         3
     Eigenvalues --  6461.199888843.58927**********
           X            0.78097  -0.62389   0.02910
           Y            0.61177   0.77352   0.16557
           Z           -0.12580  -0.11150   0.98577
 This molecule is an asymmetric top.
 Rotational symmetry number  1.
 Warning -- assumption of classical behavior for rotation
           may cause significant error
 Rotational temperatures (Kelvin)      0.01341     0.00979     0.00613
 Rotational constants (GHZ):           0.27932     0.20407     0.12775
 Zero-point vibrational energy     665178.3 (Joules/Mol)
                                  158.98142 (Kcal/Mol)
 Warning -- explicit consideration of  35 degrees of freedom as
           vibrations may cause significant error
 Vibrational temperatures:     46.95    53.35    69.41    73.66   113.57
          (Kelvin)            115.99   138.26   155.57   170.01   201.86
                              208.12   220.42   233.83   243.02   271.14
                              287.87   310.94   345.48   373.70   381.87
                              421.62   434.27   469.72   498.22   512.51
                              534.51   568.55   580.67   613.03   666.06
                              710.83   743.17   809.83   872.14   891.14
                              947.28   977.74   985.80  1031.83  1037.15
                             1051.07  1102.02  1108.12  1124.20  1159.92
                             1168.79  1176.84  1201.75  1265.56  1287.71
                             1301.84  1451.53  1497.85  1524.58  1574.69
                             1582.02  1594.53  1672.53  1676.22  1676.40
                             1683.00  1695.70  1721.21  1732.86  1740.66
                             1766.05  1794.27  1817.02  1853.00  1946.98
                             1953.36  1972.97  2041.49  2052.91  2075.21
                             2086.41  2089.87  2108.67  2115.29  2128.58
                             2162.54  2165.64  2179.93  2190.19  2215.28
                             2267.47  2325.25  2455.32  2469.17  2512.79
                             4299.89  4323.13  4338.46  4362.96  4412.15
                             4419.65  4435.36  4457.78  4479.91  4508.83
                             4538.84  4589.78

 Zero-point correction=                           0.253353 (Hartree/Particle)
 Thermal correction to Energy=                    0.275859
 Thermal correction to Enthalpy=                  0.276803
 Thermal correction to Gibbs Free Energy=         0.200723
 Sum of electronic and zero-point Energies=          -1218.843629
 Sum of electronic and thermal Energies=             -1218.821123
 Sum of electronic and thermal Enthalpies=           -1218.820179
 Sum of electronic and thermal Free Energies=        -1218.896259

                     E (Thermal)             CV                S
                      KCal/Mol        Cal/Mol-Kelvin    Cal/Mol-Kelvin
 Total                  173.104             81.867            160.124
 Electronic               0.000              0.000              0.000
 Translational            0.889              2.981             43.295
 Rotational               0.889              2.981             35.044
 Vibrational            171.327             75.905             81.785
 Vibration     1          0.594              1.983              5.663
 Vibration     2          0.594              1.982              5.409
 Vibration     3          0.595              1.978              4.888
 Vibration     4          0.595              1.977              4.771
 Vibration     5          0.600              1.963              3.917
 Vibration     6          0.600              1.962              3.876
 Vibration     7          0.603              1.952              3.532
 Vibration     8          0.606              1.943              3.302
 Vibration     9          0.608              1.934              3.130
 Vibration    10          0.615              1.913              2.800
 Vibration    11          0.616              1.908              2.741
 Vibration    12          0.619              1.899              2.632
 Vibration    13          0.623              1.888              2.520
 Vibration    14          0.625              1.881              2.448
 Vibration    15          0.633              1.856              2.243
 Vibration    16          0.638              1.840              2.132
 Vibration    17          0.645              1.816              1.991
 Vibration    18          0.657              1.779              1.802
 Vibration    19          0.668              1.746              1.664
 Vibration    20          0.671              1.736              1.626
 Vibration    21          0.688              1.687              1.456
 Vibration    22          0.694              1.670              1.407
 Vibration    23          0.710              1.623              1.277
 Vibration    24          0.724              1.583              1.183
 Vibration    25          0.732              1.563              1.139
 Vibration    26          0.743              1.531              1.074
 Vibration    27          0.762              1.481              0.981
 Vibration    28          0.769              1.462              0.950
 Vibration    29          0.788              1.413              0.872
 Vibration    30          0.821              1.332              0.758
 Vibration    31          0.850              1.263              0.673
 Vibration    32          0.872              1.213              0.618
 Vibration    33          0.919              1.112              0.518
 Vibration    34          0.965              1.019              0.439
 Vibration    35          0.979              0.991              0.418

 Optimization completed.
    -- Stationary point found.
 Normal termination of Gaussian 16 at Wed Dec 27 00:55:15 2023.
