 Q-Chem 5.4, Q-Chem, Inc., Pleasanton, CA (2021)
 Q-Chem 5.4.0 for Intel X86 EM64T Linux

User input:
--------------------------------------------------------------
$molecule
-1 2
C                 -4.1215740000      3.6362520000      1.5170260000
C                 -4.6078390000      3.8606720000      0.2461050000
C                 -4.0145570000      3.2134960000     -0.8461240000
C                 -2.9409150000      2.3468760000     -0.6668420000
C                 -2.4132960000      2.0917750000      0.6296840000
C                 -3.0365200000      2.7642460000      1.7249650000
C                 -2.5719820000      2.5744840000      3.1135850000
C                 -1.4649880000      1.6797470000      3.2905620000
C                 -0.8760090000      1.0408640000      2.2311360000
C                 -1.2676740000      1.1698860000      0.8401040000
O                 -3.1182670000      3.1649200000      4.0824800000
O                 -0.6916420000      0.5610780000     -0.0817840000
H                 -4.5486520000      4.1143090000      2.3897380000
H                 -4.3904520000      3.3834000000     -1.8533740000
O                 -2.3903720000      1.7345720000     -1.7627730000
Br                 0.6126660000     -0.1454200000      2.5872700000
H                 -5.4447150000      4.5327960000      0.0828770000
H                 -1.1120690000      1.5295430000      4.3034040000
H                 -2.8830140000      2.0345660000     -2.5342430000
$end

$rem
BASIS  =  6-311++G(d,p)
GUI  =  2
JOB_TYPE  =  SP
METHOD  =  B3LYP
SCF_CONVERGENCE  = 8
SOLVENT_METHOD = sm12
$end

$smx
solvent dimethylformamide
charges CM5
$end

--------------------------------------------------------------

             Standard Nuclear Orientation (Angstroms)
    I     Atom           X                Y                Z
 ----------------------------------------------------------------
    1      C      -4.1215740000     3.6362520000     1.5170260000
    2      C      -4.6078390000     3.8606720000     0.2461050000
    3      C      -4.0145570000     3.2134960000    -0.8461240000
    4      C      -2.9409150000     2.3468760000    -0.6668420000
    5      C      -2.4132960000     2.0917750000     0.6296840000
    6      C      -3.0365200000     2.7642460000     1.7249650000
    7      C      -2.5719820000     2.5744840000     3.1135850000
    8      C      -1.4649880000     1.6797470000     3.2905620000
    9      C      -0.8760090000     1.0408640000     2.2311360000
   10      C      -1.2676740000     1.1698860000     0.8401040000
   11      O      -3.1182670000     3.1649200000     4.0824800000
   12      O      -0.6916420000     0.5610780000    -0.0817840000
   13      H      -4.5486520000     4.1143090000     2.3897380000
   14      H      -4.3904520000     3.3834000000    -1.8533740000
   15      O      -2.3903720000     1.7345720000    -1.7627730000
   16      Br      0.6126660000    -0.1454200000     2.5872700000
   17      H      -5.4447150000     4.5327960000     0.0828770000
   18      H      -1.1120690000     1.5295430000     4.3034040000
   19      H      -2.8830140000     2.0345660000    -2.5342430000
 ----------------------------------------------------------------

   18   -3184.1110088995      5.51e-09  Convergence criterion met
 Total energy in the final basis set =    -3184.2011601493

                    Orbital Energies (a.u.)
 --------------------------------------------------------------

 Alpha MOs
 -- Occupied --
******** -62.4718 -56.2922 -56.2886 -56.2883 -19.1577 -19.0782 -19.0772
-10.2500 -10.2360 -10.2278 -10.2190 -10.1902 -10.1868 -10.1860 -10.1830
-10.1740 -10.1735  -8.6803  -6.5112  -6.4993  -6.4984  -2.6221  -2.6189
 -2.6182  -2.6087  -2.6087  -1.0704  -1.0083  -1.0022  -0.8661  -0.8327
 -0.7813  -0.7536  -0.7370  -0.6791  -0.6409  -0.6141  -0.5822  -0.5345
 -0.5189  -0.4877  -0.4784  -0.4616  -0.4404  -0.4361  -0.4161  -0.4052
 -0.4012  -0.3976  -0.3826  -0.3753  -0.3644  -0.3588  -0.3414  -0.3162
 -0.2804  -0.2743  -0.2526  -0.2450  -0.2409  -0.2369  -0.1568

 Beta MOs
 -- Occupied --
******** -62.4718 -56.2922 -56.2885 -56.2883 -19.1576 -19.0716 -19.0705
-10.2500 -10.2352 -10.2265 -10.2168 -10.1899 -10.1865 -10.1854 -10.1824
-10.1734 -10.1727  -8.6802  -6.5113  -6.4992  -6.4984  -2.6222  -2.6189
 -2.6182  -2.6087  -2.6086  -1.0702  -0.9970  -0.9907  -0.8639  -0.8284
 -0.7793  -0.7517  -0.7348  -0.6710  -0.6389  -0.6114  -0.5801  -0.5320
 -0.5169  -0.4857  -0.4768  -0.4601  -0.4381  -0.4292  -0.4112  -0.4029
 -0.3945  -0.3902  -0.3733  -0.3625  -0.3603  -0.3573  -0.3338  -0.3048
 -0.2800  -0.2556  -0.2426  -0.2388  -0.2336  -0.2308

          Ground-State Mulliken Net Atomic Charges

     Atom                 Charge (a.u.)    Spin (a.u.)
  --------------------------------------------------------
      1 C                     0.043905       0.042523
      2 C                     1.034529       0.024322
      3 C                     2.050826       0.050038
      4 C                     0.404872       0.029130
      5 C                    -1.224515      -0.003483
      6 C                    -1.160659       0.047920
      7 C                    -1.455454       0.052602
      8 C                    -0.418680       0.107818
      9 C                     0.869082       0.135673
     10 C                    -1.862356       0.027292
     11 O                    -0.364857       0.241477
     12 O                    -0.225757       0.254987
     13 H                     0.107680      -0.003676
     14 H                     0.354831      -0.003792
     15 O                    -0.120482      -0.000071
     16 Br                    0.077476       0.008588
     17 H                     0.364544      -0.001667
     18 H                     0.172932      -0.009459
     19 H                     0.352086      -0.000222
  --------------------------------------------------------
  Sum of atomic charges =    -1.000000

                    Cartesian Multipole Moments
 -----------------------------------------------------------------
    Charge (ESU x 10^10)
                -4.8032
    Dipole Moment (Debye)
         X       6.7326      Y      -7.2199      Z     -11.5697
       Tot      15.2090
    Quadrupole Moments (Debye-Ang)
        XX    -114.7073     XY      17.8676     YY    -118.1630
        XZ      32.9003     YZ     -32.1652     ZZ    -133.1697

 Total job time:  346.75s(wall), 2422.83s(cpu)
        *  Thank you very much for using Q-Chem.  Have a nice day.  *
