 Gaussian 16, Revision A.03,
 Gaussian 16:  ES64L-G16RevA.03 25-Dec-2016

 --------------------------------------
 #P UB3LYP/6-311++G(d,p) nosym opt freq
 --------------------------------------

 -------
 Reduced
 -------
 Symbolic Z-matrix:
 Charge = -2 Multiplicity = 1

 SCF Done:  E(UB3LYP) =  -1502.60086153     A.U. after   29 cycles
 SCF Done:  E(UB3LYP) =  -1502.65401480     A.U. after   19 cycles
 SCF Done:  E(UB3LYP) =  -1502.69119998     A.U. after   18 cycles
 SCF Done:  E(UB3LYP) =  -1502.70128517     A.U. after   15 cycles
 SCF Done:  E(UB3LYP) =  -1502.70762781     A.U. after   16 cycles
 SCF Done:  E(UB3LYP) =  -1502.70911516     A.U. after   16 cycles
 SCF Done:  E(UB3LYP) =  -1502.70941606     A.U. after   15 cycles
 SCF Done:  E(UB3LYP) =  -1502.71034658     A.U. after   15 cycles
 SCF Done:  E(UB3LYP) =  -1502.70947853     A.U. after   16 cycles
 SCF Done:  E(UB3LYP) =  -1502.71062899     A.U. after   16 cycles
 SCF Done:  E(UB3LYP) =  -1502.72072592     A.U. after   14 cycles
 SCF Done:  E(UB3LYP) =  -1502.72073608     A.U. after   13 cycles
 SCF Done:  E(UB3LYP) =  -1502.72073833     A.U. after   11 cycles
 SCF Done:  E(UB3LYP) =  -1502.72073908     A.U. after   12 cycles
 SCF Done:  E(UB3LYP) =  -1502.72073947     A.U. after   10 cycles
 SCF Done:  E(UB3LYP) =  -1502.72073972     A.U. after   10 cycles
 SCF Done:  E(UB3LYP) =  -1502.72073994     A.U. after   11 cycles
 SCF Done:  E(UB3LYP) =  -1502.72074001     A.U. after    9 cycles
 SCF Done:  E(UB3LYP) =  -1502.72074004     A.U. after    9 cycles
 Optimization completed.
    -- Stationary point found.
 Normal termination of Gaussian 16 at Fri Dec 22 01:02:37 2023.

 ----------------------------------------------------------------------
 #P Geom=AllCheck Guess=TCheck SCRF=Check GenChk UB3LYP/6-311++G(d,p) F
 req
 ----------------------------------------------------------------------

 Structure from the checkpoint file:  "195-an.chk"
 -------
 Reduced
 -------
 Charge = -2 Multiplicity = 1

                          Input orientation:
 ---------------------------------------------------------------------
 Center     Atomic      Atomic             Coordinates (Angstroms)
 Number     Number       Type             X           Y           Z
 ---------------------------------------------------------------------
      1          6           0        4.765116   -3.078485    0.336462
      2          6           0        5.676604   -2.285947   -0.320424
      3          6           0        5.254936   -1.081694   -0.952079
      4          6           0        3.384492   -2.724559    0.406368
      5          6           0        2.957582   -1.503694   -0.233935
      6          6           0        3.927269   -0.715207   -0.900621
      7          6           0        2.447231   -3.531668    1.077812
      8          6           0        1.088575   -3.151350    1.125899
      9          6           0        0.656107   -1.932908    0.490950
     10          6           0        1.581525   -1.082361   -0.203738
     11          6           0        0.131608   -4.010568    1.842085
     12          6           0       -1.211703   -3.585189    1.826566
     13          6           0       -0.739684   -1.563744    0.561346
     14          6           0       -1.640931   -2.362316    1.208699
     15          8           0        2.884808   -4.685477    1.672820
     16          8           0        1.203613    0.020439   -0.782181
     17          8           0        0.544234   -5.072146    2.455990
     18          1           0        5.075041   -3.997796    0.820351
     19          1           0        6.723476   -2.579348   -0.358367
     20          1           0        5.978669   -0.457703   -1.470907
     21          1           0        2.045046   -5.064499    2.092878
     22          8           0       -1.153140   -0.401824   -0.032492
     23          1           0       -2.682613   -2.076379    1.250874
     24          1           0       -0.304194   -0.020102   -0.438175
     25          1           0        3.572755    0.195720   -1.371148
     26         16           0       -2.442822   -4.581415    2.577918
     27          8           0       -3.712092   -3.843888    2.599318
     28          8           0       -2.477849   -5.969532    2.091648
     29          8           0       -2.053304   -4.691064    4.212895
     30          6           0       -1.381065   -5.877330    4.667270
     31          1           0       -0.468749   -6.036692    4.091521
     32          1           0       -2.042402   -6.746714    4.593151
     33          1           0       -1.146471   -5.678952    5.716894
 ---------------------------------------------------------------------

 SCF Done:  E(UB3LYP) =  -1502.72074004     A.U. after    2 cycles

 Alpha  occ. eigenvalues --  -88.84914 -18.94405 -18.89770 -18.89731 -18.88958
 Alpha  occ. eigenvalues --  -18.87899 -18.84558 -18.83199 -10.01710 -10.00448
 Alpha  occ. eigenvalues --   -9.98920  -9.98699  -9.98411  -9.96816  -9.96405
 Alpha  occ. eigenvalues --   -9.96215  -9.95898  -9.95817  -9.95229  -9.94788
 Alpha  occ. eigenvalues --   -9.94559  -9.94080  -9.93039  -7.90955  -5.87352
 Alpha  occ. eigenvalues --   -5.87188  -5.86957  -0.91256  -0.81086  -0.80903
 Alpha  occ. eigenvalues --   -0.79745  -0.78567  -0.75886  -0.74258  -0.64165
 Alpha  occ. eigenvalues --   -0.60965  -0.57200  -0.53979  -0.53198  -0.50988
 Alpha  occ. eigenvalues --   -0.49257  -0.45983  -0.43335  -0.40917  -0.38751
 Alpha  occ. eigenvalues --   -0.35837  -0.35198  -0.32628  -0.31547  -0.29377
 Alpha  occ. eigenvalues --   -0.28965  -0.26990  -0.26633  -0.26009  -0.24735
 Alpha  occ. eigenvalues --   -0.24096  -0.23416  -0.22710  -0.21315  -0.20588
 Alpha  occ. eigenvalues --   -0.20272  -0.19769  -0.18943  -0.17575  -0.17076
 Alpha  occ. eigenvalues --   -0.16551  -0.16046  -0.15449  -0.14766  -0.13747
 Alpha  occ. eigenvalues --   -0.12985  -0.12621  -0.12478  -0.11502  -0.10677
 Alpha  occ. eigenvalues --   -0.10343  -0.09701  -0.09099  -0.08459  -0.05885
 Alpha  occ. eigenvalues --   -0.04468  -0.03660  -0.02308  -0.02069  -0.00438
 Alpha  occ. eigenvalues --    0.03125   0.08241
 Alpha virt. eigenvalues --    0.14260   0.15347   0.16114   0.17053   0.18384
 Alpha virt. eigenvalues --    0.18442   0.18968   0.19303   0.19918   0.20670
 Alpha virt. eigenvalues --    0.22275   0.22490   0.22918   0.23012   0.24155

  Beta  occ. eigenvalues --  -88.84914 -18.94405 -18.89770 -18.89731 -18.88958
  Beta  occ. eigenvalues --  -18.87899 -18.84558 -18.83199 -10.01710 -10.00448
  Beta  occ. eigenvalues --   -9.98920  -9.98699  -9.98411  -9.96816  -9.96405
  Beta  occ. eigenvalues --   -9.96215  -9.95898  -9.95817  -9.95229  -9.94788
  Beta  occ. eigenvalues --   -9.94559  -9.94080  -9.93039  -7.90955  -5.87352
  Beta  occ. eigenvalues --   -5.87188  -5.86957  -0.91256  -0.81086  -0.80903
  Beta  occ. eigenvalues --   -0.79745  -0.78567  -0.75886  -0.74258  -0.64165
  Beta  occ. eigenvalues --   -0.60965  -0.57200  -0.53979  -0.53198  -0.50988
  Beta  occ. eigenvalues --   -0.49257  -0.45983  -0.43335  -0.40917  -0.38751
  Beta  occ. eigenvalues --   -0.35837  -0.35198  -0.32628  -0.31547  -0.29377
  Beta  occ. eigenvalues --   -0.28965  -0.26990  -0.26633  -0.26009  -0.24735
  Beta  occ. eigenvalues --   -0.24096  -0.23416  -0.22710  -0.21315  -0.20588
  Beta  occ. eigenvalues --   -0.20272  -0.19769  -0.18943  -0.17575  -0.17076
  Beta  occ. eigenvalues --   -0.16551  -0.16046  -0.15449  -0.14766  -0.13747
  Beta  occ. eigenvalues --   -0.12985  -0.12621  -0.12478  -0.11502  -0.10677
  Beta  occ. eigenvalues --   -0.10343  -0.09701  -0.09099  -0.08459  -0.05885
  Beta  occ. eigenvalues --   -0.04468  -0.03660  -0.02308  -0.02069  -0.00438
  Beta  occ. eigenvalues --    0.03125   0.08241
  Beta virt. eigenvalues --    0.14260   0.15347   0.16114   0.17053   0.18384
  Beta virt. eigenvalues --    0.18442   0.18968   0.19303   0.19918   0.20670
  Beta virt. eigenvalues --    0.22275   0.22490   0.22918   0.23012   0.24155

 Mulliken charges and spin densities:
               1          2
     1  C   -0.271827   0.000000
     2  C   -0.383894  -0.000000
     3  C   -0.489308   0.000000
     4  C    0.382262  -0.000000
     5  C    0.283380  -0.000000
     6  C   -0.125612   0.000000
     7  C   -0.189218  -0.000000
     8  C    0.647343   0.000000
     9  C    0.836947   0.000000
    10  C   -0.485706   0.000000
    11  C   -0.834538   0.000000
    12  C   -0.923780  -0.000000
    13  C   -0.411185   0.000000
    14  C   -0.226057  -0.000000
    15  O   -0.463033   0.000000
    16  O   -0.531915   0.000000
    17  O   -0.441810   0.000000
    18  H    0.119949  -0.000000
    19  H    0.095288   0.000000
    20  H    0.091479   0.000000
    21  H    0.441848   0.000000
    22  O   -0.428011  -0.000000
    23  H    0.198605   0.000000
    24  H    0.360466   0.000000
    25  H    0.149752  -0.000000
    26  S    1.120079  -0.000000
    27  O   -0.233909  -0.000000
    28  O   -0.225581   0.000000
    29  O   -0.167029   0.000000
    30  C   -0.336978   0.000000
    31  H    0.234394  -0.000000
    32  H    0.124622   0.000000
    33  H    0.082979   0.000000
 Sum of Mulliken charges =  -2.00000  -0.00000

 Dipole moment (field-independent basis, Debye):
    X=             -2.6777    Y=             27.3063    Z=             -9.6324  Tot=             29.0790
 Quadrupole moment (field-independent basis, Debye-Ang):
   XX=           -234.2992   YY=           -276.0059   ZZ=           -181.5460
   XY=            -10.3278   XZ=             22.5123   YZ=             51.6916

  Exact polarizability: 416.435  38.323 253.365 -80.333 -82.028 210.690
 Approx polarizability: 689.741   7.892 442.195 -99.173-130.586 324.693

                      1                      2                      3
                      A                      A                      A
 Frequencies --     35.8888                37.7366                78.6199
 Red. masses --      7.3491                 6.2157                 8.1609
 Frc consts  --      0.0056                 0.0052                 0.0297
 IR Inten    --      0.3906                 0.7797                 1.3581

                      4                      5                      6
                      A                      A                      A
 Frequencies --     91.9622               105.4754               119.8693
 Red. masses --      6.1985                 2.3140                 2.2922
 Frc consts  --      0.0309                 0.0152                 0.0194
 IR Inten    --      0.2749                 0.0785                 0.5070

                      7                      8                      9
                      A                      A                      A
 Frequencies --    137.7450               144.3779               151.0481
 Red. masses --      2.3958                 5.1244                 6.1649
 Frc consts  --      0.0268                 0.0629                 0.0829
 IR Inten    --      2.5701                 0.0098                 1.0229

                     10                     11                     12
                      A                      A                      A
 Frequencies --    176.9351               210.6425               236.7035
 Red. masses --      8.2110                 8.3184                 7.5403
 Frc consts  --      0.1515                 0.2175                 0.2489
 IR Inten    --      0.8741                 1.4967                 6.9047

                     13                     14                     15
                      A                      A                      A
 Frequencies --    249.9989               261.3007               281.8820
 Red. masses --      9.1061                 4.2770                 8.0155
 Frc consts  --      0.3353                 0.1721                 0.3752
 IR Inten    --      0.5020                 5.7500                 5.9088

                     16                     17                     18
                      A                      A                      A
 Frequencies --    298.2858               341.4855               364.8126
 Red. masses --      7.3396                 7.0227                11.0772
 Frc consts  --      0.3848                 0.4825                 0.8686
 IR Inten    --      2.3159                12.0634                 6.6858

                     19                     20                     21
                      A                      A                      A
 Frequencies --    383.5775               390.7094               397.3862
 Red. masses --      8.7994                 7.7148                 7.6956
 Frc consts  --      0.7628                 0.6939                 0.7160
 IR Inten    --     17.7148                 4.4129                65.2340

                     22                     23                     24
                      A                      A                      A
 Frequencies --    430.5483               436.7183               447.1263
 Red. masses --      8.6140                 6.9207                 3.7380
 Frc consts  --      0.9408                 0.7777                 0.4403
 IR Inten    --      0.5312                 0.6413                 3.6929

                     25                     26                     27
                      A                      A                      A
 Frequencies --    469.7726               481.0190               495.7722
 Red. masses --     10.8275                11.4209                 7.2959
 Frc consts  --      1.4078                 1.5570                 1.0566
 IR Inten    --      4.4144                 2.5973                16.8155

                     28                     29                     30
                      A                      A                      A
 Frequencies --    508.0246               538.7156               547.2207
 Red. masses --      5.5151                 8.9065                 8.5131
 Frc consts  --      0.8386                 1.5229                 1.5020
 IR Inten    --     14.8700                22.9140                10.2600

                     31                     32                     33
                      A                      A                      A
 Frequencies --    582.1217               605.4812               620.8298
 Red. masses --     10.3464                 4.0130                 7.1509
 Frc consts  --      2.0657                 0.8668                 1.6239
 IR Inten    --    111.8511                 9.0573               314.3115

                     34                     35                     36
                      A                      A                      A
 Frequencies --    640.9169               646.0547               697.7834
 Red. masses --      7.1909                 6.7234                 7.7612
 Frc consts  --      1.7404                 1.6534                 2.2265
 IR Inten    --    196.2137                 4.2482                66.2726

                     37                     38                     39
                      A                      A                      A
 Frequencies --    711.5179               735.9673               736.9597
 Red. masses --      2.7658                 2.5143                 4.9858
 Frc consts  --      0.8250                 0.8024                 1.5954
 IR Inten    --     18.6619                30.5153                14.1206

                     40                     41                     42
                      A                      A                      A
 Frequencies --    764.2315               782.4606               795.4532
 Red. masses --      3.8317                 3.8125                 7.9996
 Frc consts  --      1.3185                 1.3753                 2.9823
 IR Inten    --      8.5124                 4.1247                22.7436

                     43                     44                     45
                      A                      A                      A
 Frequencies --    812.3092               819.0696               881.0615
 Red. masses --      1.5084                 1.9041                 8.7078
 Frc consts  --      0.5864                 0.7526                 3.9826
 IR Inten    --     24.5799                 2.3774               127.6804

                     46                     47                     48
                      A                      A                      A
 Frequencies --    906.3405               948.4334               958.4547
 Red. masses --      8.1698                 1.2547                 1.0676
 Frc consts  --      3.9541                 0.6650                 0.5778
 IR Inten    --     61.8012                 8.1745                45.2767

                     49                     50                     51
                      A                      A                      A
 Frequencies --    961.6374               965.4397               984.0198
 Red. masses --      1.1006                 1.2346                 6.2668
 Frc consts  --      0.5996                 0.6780                 3.5752
 IR Inten    --     66.0471                10.8988               136.0586

                     52                     53                     54
                      A                      A                      A
 Frequencies --   1014.8582              1018.7120              1076.7257
 Red. masses --      9.9939                 2.2543                 8.6284
 Frc consts  --      6.0645                 1.3784                 5.8937
 IR Inten    --    100.8248                57.7399               286.0137

                     55                     56                     57
                      A                      A                      A
 Frequencies --   1085.1115              1099.7929              1146.1787
 Red. masses --      4.5293                 2.9705                 1.2811
 Frc consts  --      3.1422                 2.1169                 0.9916
 IR Inten    --    402.1553                21.4122                44.6599

                     58                     59                     60
                      A                      A                      A
 Frequencies --   1172.3147              1175.3162              1179.5504
 Red. masses --      1.2760                 1.8150                 2.3533
 Frc consts  --      1.0332                 1.4772                 1.9291
 IR Inten    --      5.1493                63.8827                13.1738

                     61                     62                     63
                      A                      A                      A
 Frequencies --   1189.0680              1241.0488              1245.9190
 Red. masses --      1.3396                 4.5941                 6.2065
 Frc consts  --      1.1160                 4.1690                 5.6765
 IR Inten    --     16.4203               229.0169                49.3226

                     64                     65                     66
                      A                      A                      A
 Frequencies --   1249.3159              1282.8991              1309.7192
 Red. masses --      3.7651                 4.1217                 4.3599
 Frc consts  --      3.4623                 3.9968                 4.4064
 IR Inten    --    145.9742                19.9123                 0.1923

                     67                     68                     69
                      A                      A                      A
 Frequencies --   1314.5630              1348.7197              1376.2562
 Red. masses --      2.9776                 7.8883                 5.8889
 Frc consts  --      3.0317                 8.4543                 6.5718
 IR Inten    --    124.4543               214.1387                60.8485

                     70                     71                     72
                      A                      A                      A
 Frequencies --   1397.6768              1427.4221              1442.1954
 Red. masses --      3.6765                 3.4716                 1.8748
 Frc consts  --      4.2316                 4.1676                 2.2975
 IR Inten    --     19.4825                73.2375               599.1760

                     73                     74                     75
                      A                      A                      A
 Frequencies --   1453.8046              1466.6338              1470.7514
 Red. masses --      1.5988                 1.1016                 3.5343
 Frc consts  --      1.9909                 1.3962                 4.5044
 IR Inten    --    321.8039                13.2234               195.7484

                     76                     77                     78
                      A                      A                      A
 Frequencies --   1500.4928              1513.2631              1537.3001
 Red. masses --      2.9326                 1.0580                 6.7735
 Frc consts  --      3.8902                 1.4275                 9.4315
 IR Inten    --     22.8099                 3.9306                80.8495

                     79                     80                     81
                      A                      A                      A
 Frequencies --   1551.5770              1583.1555              1611.6839
 Red. masses --      3.0491                 4.0972                 4.8414
 Frc consts  --      4.3248                 6.0504                 7.4093
 IR Inten    --    286.5322                10.4694                12.1360

                     82                     83                     84
                      A                      A                      A
 Frequencies --   1644.5019              1671.9237              2806.1120
 Red. masses --      1.7624                 2.1417                 1.0785
 Frc consts  --      2.8082                 3.5272                 5.0035
 IR Inten    --     24.7548                15.7157               353.7526

                     85                     86                     87
                      A                      A                      A
 Frequencies --   2865.3480              3002.7108              3070.8339
 Red. masses --      1.0750                 1.0307                 1.1035
 Frc consts  --      5.2000                 5.4753                 6.1311
 IR Inten    --    977.7603               213.7179                49.2867

                     88                     89                     90
                      A                      A                      A
 Frequencies --   3108.6378              3115.8227              3130.9934
 Red. masses --      1.0836                 1.1054                 1.0906
 Frc consts  --      6.1696                 6.3227                 6.2989
 IR Inten    --     32.6908                 2.4414                92.3331

                     91                     92                     93
                      A                      A                      A
 Frequencies --   3171.3423              3177.0385              3209.7273
 Red. masses --      1.0912                 1.0917                 1.0890
 Frc consts  --      6.4661                 6.4920                 6.6104
 IR Inten    --     28.5846                36.2554                13.9225

 - Thermochemistry -
 -------------------
 Temperature   298.150 Kelvin.  Pressure   1.00000 Atm.
 Atom     1 has atomic number  6 and mass  12.00000

 Molecular mass:   334.01472 amu.
 Principal axes and moments of inertia in atomic units:
                           1         2         3
     Eigenvalues --  3497.14760********************
           X            0.80265  -0.57361   0.16347
           Y            0.40919   0.72897   0.54879
           Z           -0.43395  -0.37359   0.81983
 This molecule is an asymmetric top.
 Rotational symmetry number  1.
 Warning -- assumption of classical behavior for rotation
           may cause significant error
 Rotational temperatures (Kelvin)      0.02477     0.00725     0.00579
 Rotational constants (GHZ):           0.51606     0.15098     0.12069
 Zero-point vibrational energy     591343.6 (Joules/Mol)
                                  141.33450 (Kcal/Mol)
 Warning -- explicit consideration of  32 degrees of freedom as
           vibrations may cause significant error
 Vibrational temperatures:     51.64    54.29   113.12   132.31   151.76
          (Kelvin)            172.47   198.18   207.73   217.32   254.57
                              303.07   340.56   359.69   375.95   405.57
                              429.17   491.32   524.88   551.88   562.14
                              571.75   619.46   628.34   643.32   675.90
                              692.08   713.31   730.93   775.09   787.33
                              837.54   871.15   893.24   922.14   929.53
                             1003.95  1023.72  1058.89  1060.32  1099.56
                             1125.79  1144.48  1168.73  1178.46  1267.65
                             1304.02  1364.58  1379.00  1383.58  1389.05
                             1415.79  1460.15  1465.70  1549.17  1561.23
                             1582.36  1649.10  1686.70  1691.02  1697.11
                             1710.80  1785.59  1792.60  1797.49  1845.81
                             1884.39  1891.36  1940.51  1980.13  2010.95
                             2053.74  2075.00  2091.70  2110.16  2116.08
                             2158.87  2177.25  2211.83  2232.37  2277.81
                             2318.85  2366.07  2405.53  4037.37  4122.60
                             4320.23  4418.25  4472.64  4482.97  4504.80
                             4562.85  4571.05  4618.08

 Zero-point correction=                           0.225231 (Hartree/Particle)
 Thermal correction to Energy=                    0.244276
 Thermal correction to Enthalpy=                  0.245220
 Thermal correction to Gibbs Free Energy=         0.177976
 Sum of electronic and zero-point Energies=          -1502.495509
 Sum of electronic and thermal Energies=             -1502.476464
 Sum of electronic and thermal Enthalpies=           -1502.475520
 Sum of electronic and thermal Free Energies=        -1502.542764

                     E (Thermal)             CV                S
                      KCal/Mol        Cal/Mol-Kelvin    Cal/Mol-Kelvin
 Total                  153.286             74.476            141.528
 Electronic               0.000              0.000              0.000
 Translational            0.889              2.981             43.313
 Rotational               0.889              2.981             34.790
 Vibrational            151.508             68.514             63.424
 Vibration     1          0.594              1.982              5.474
 Vibration     2          0.594              1.982              5.374
 Vibration     3          0.600              1.964              3.925
 Vibration     4          0.602              1.955              3.618
 Vibration     5          0.605              1.945              3.351
 Vibration     6          0.609              1.933              3.102
 Vibration     7          0.614              1.916              2.835
 Vibration     8          0.616              1.909              2.745
 Vibration     9          0.618              1.902              2.659
 Vibration    10          0.628              1.871              2.361
 Vibration    11          0.643              1.825              2.038
 Vibration    12          0.656              1.785              1.828
 Vibration    13          0.663              1.763              1.731
 Vibration    14          0.669              1.744              1.653
 Vibration    15          0.681              1.707              1.522
 Vibration    16          0.691              1.677              1.427
 Vibration    17          0.721              1.593              1.205
 Vibration    18          0.738              1.545              1.102
 Vibration    19          0.753              1.505              1.025
 Vibration    20          0.758              1.490              0.997
 Vibration    21          0.764              1.476              0.972
 Vibration    22          0.792              1.404              0.857
 Vibration    23          0.797              1.390              0.837
 Vibration    24          0.806              1.367              0.805
 Vibration    25          0.827              1.317              0.738
 Vibration    26          0.837              1.292              0.707
 Vibration    27          0.851              1.259              0.669
 Vibration    28          0.863              1.232              0.638
 Vibration    29          0.894              1.164              0.568
 Vibration    30          0.902              1.146              0.550
 Vibration    31          0.939              1.070              0.481
 Vibration    32          0.964              1.020              0.440

 Optimization completed.
    -- Stationary point found.
 Normal termination of Gaussian 16 at Fri Dec 22 02:52:40 2023.
