 Q-Chem 5.4, Q-Chem, Inc., Pleasanton, CA (2021)
 Q-Chem 5.4.0 for Intel X86 EM64T Linux

User input:
--------------------------------------------------------------
$molecule
-1 2
O                 -2.7026600000     -0.1858320000      0.4473600000
C                 -1.3669860000     -0.0281180000      0.2342650000
C                 -0.7430520000      1.1934070000      0.2743820000
C                  0.6638330000      1.2807260000      0.0403170000
O                  1.3604770000      2.3479550000      0.0489560000
C                  1.3670170000      0.0280460000     -0.2343010000
C                  0.7431280000     -1.1934440000     -0.2743020000
C                 -0.6638430000     -1.2807160000     -0.0404410000
O                 -1.3603870000     -2.3480550000     -0.0493490000
O                  2.7026770000      0.1859680000     -0.4473020000
H                 -2.8058790000     -1.1593370000      0.3472020000
H                 -1.2989630000      2.1010280000      0.4814670000
H                  1.2989100000     -2.1011260000     -0.4814420000
H                  2.8057280000      1.1594990000     -0.3468120000
$end
$rem
MAX_SCF_CYCLES=200
BASIS  =  6-311++G(d,p)
GUI  =  2
JOB_TYPE  =  SP
METHOD  =  B3LYP
SOLVENT_METHOD = COSMO
$end
$solvent
dielectric 37.219
opticaldielectric 1.43
$end

--------------------------------------------------------------

             Standard Nuclear Orientation (Angstroms)
    I     Atom           X                Y                Z
 ----------------------------------------------------------------
    1      O       2.4529351213     1.2338032133    -0.0000627854
    2      C       1.2080817036     0.6818537715    -0.0000281099
    3      C       0.0584979961     1.4311758886    -0.0000218820
    4      C      -1.2137261510     0.7806513684     0.0000356990
    5      O      -2.3504706754     1.3569994535     0.0001037553
    6      C      -1.2080423560    -0.6819003940    -0.0000184746
    7      C      -0.0585047905    -1.4311925632    -0.0001416641
    8      C       1.2137515114    -0.7806246267     0.0000205322
    9      O       2.3504422180    -1.3571657333     0.0001855153
   10      O      -2.4529806705    -1.2336476295    -0.0000486155
   11      H       3.0249235287     0.4330367506    -0.0003883555
   12      H       0.0949374430     2.5148590912    -0.0000219385
   13      H      -0.0948075007    -2.5148757885    -0.0000731237
   14      H      -3.0248088995    -0.4327151528    -0.0000161431
 ----------------------------------------------------------------

    9    -532.1665375303      7.37e-06  Convergence criterion met
 Total energy in the final basis set =     -532.1665375303
    4    -532.2514664968      4.62e-06  Convergence criterion met
 Total energy in the final basis set =     -532.2514664968

                    Orbital Energies (a.u.)
 --------------------------------------------------------------

 Alpha MOs
 -- Occupied --
-19.1511 -19.1511 -19.0928 -19.0928 -10.2322 -10.2322 -10.2319 -10.2319
-10.1619 -10.1619  -1.0718  -1.0699  -1.0031  -1.0030  -0.8273  -0.7433
 -0.6867  -0.6123  -0.5984  -0.5541  -0.5050  -0.4880  -0.4546  -0.4452
 -0.4445  -0.4214  -0.4137  -0.4073  -0.3811  -0.3709  -0.3577  -0.3526
 -0.2746  -0.2713  -0.2633  -0.2311  -0.1667

 Beta MOs
 -- Occupied --
-19.1500 -19.1499 -19.0870 -19.0870 -10.2299 -10.2299 -10.2295 -10.2295
-10.1624 -10.1624  -1.0683  -1.0666  -0.9933  -0.9931  -0.8216  -0.7417
 -0.6750  -0.6084  -0.5947  -0.5518  -0.5006  -0.4859  -0.4534  -0.4424
 -0.4295  -0.4164  -0.4034  -0.3985  -0.3789  -0.3500  -0.3499  -0.3403
 -0.2659  -0.2576  -0.2505  -0.2246

          Ground-State Mulliken Net Atomic Charges

     Atom                 Charge (a.u.)    Spin (a.u.)
  --------------------------------------------------------
      1 O                    -0.307109       0.034181
      2 C                    -0.159445       0.190347
      3 C                     0.146996      -0.076027
      4 C                    -0.142619       0.150640
      5 O                    -0.568877       0.204102
      6 C                    -0.159456       0.190264
      7 C                     0.147060      -0.076056
      8 C                    -0.142483       0.150639
      9 O                    -0.568910       0.204166
     10 O                    -0.307144       0.034166
     11 H                     0.306392      -0.002505
     12 H                     0.224600      -0.000707
     13 H                     0.224596      -0.000705
     14 H                     0.306400      -0.002505
  --------------------------------------------------------
  Sum of atomic charges =    -1.000000

                    Cartesian Multipole Moments
 -----------------------------------------------------------------
    Charge (ESU x 10^10)
                -4.8032
    Dipole Moment (Debye)
         X       0.0005      Y       0.0010      Z      -0.0007
       Tot       0.0014
    Quadrupole Moments (Debye-Ang)
        XX     -86.6716     XY       8.9663     YY     -74.4487
        XZ      -0.0030     YZ      -0.0000     ZZ     -61.0673

 Total job time:  16.93s(wall), 112.72s(cpu)
        *  Thank you very much for using Q-Chem.  Have a nice day.  *
