 Q-Chem 5.4, Q-Chem, Inc., Pleasanton, CA (2021)
 Q-Chem 5.4.0 for Intel X86 EM64T Linux

User input:
--------------------------------------------------------------
$molecule
-1 2
C                 -1.8391490000      1.7251060000     -0.7986380000
C                 -2.5618970000      0.8793390000     -1.6136100000
C                 -2.0700200000     -0.4118320000     -1.9022100000
C                 -0.6113920000      1.3200700000     -0.2461340000
C                 -0.1183300000      0.0248630000     -0.5360420000
C                 -0.8672670000     -0.8247750000     -1.3688370000
C                  0.1333670000      2.2452750000      0.6185300000
C                  1.3933240000      1.7604800000      1.1509370000
C                  1.8714330000      0.4852010000      0.8725930000
C                  1.1585640000     -0.4420610000      0.0171680000
O                 -0.3175420000      3.3954040000      0.8706960000
O                  1.5998870000     -1.5939070000     -0.2463200000
C                  2.1534090000      2.7186080000      2.0386840000
C                  3.1845480000     -0.0174280000      1.4284960000
C                  4.3637070000      0.1565170000      0.4509470000
C                  5.6835490000     -0.4017660000      0.9940800000
C                  6.8628970000     -0.2438650000      0.0273910000
C                  8.1830670000     -0.8093640000      0.5639560000
C                  9.3615560000     -0.6523970000     -0.4039110000
C                 10.6807950000     -1.2211230000      0.1312600000
C                 11.8586990000     -1.0647990000     -0.8370280000
C                 13.1780160000     -1.6342150000     -0.3030080000
C                 14.3483890000     -1.4735560000     -1.2780980000
Cl                -2.9719250000     -1.5182380000     -2.9417290000
Cl                -4.0979110000      1.4382450000     -2.2818210000
H                 -2.2006560000      2.7186540000     -0.5658420000
H                 -0.4730970000     -1.8109210000     -1.5792940000
H                  1.6642020000      3.6923660000      2.0131590000
H                  3.1949200000      2.8348340000      1.7213360000
H                  2.1710100000      2.3767370000      3.0814360000
H                  3.0762970000     -1.0861050000      1.6374860000
H                  3.4206810000      0.4850490000      2.3718890000
H                  4.4871450000      1.2204150000      0.2117490000
H                  4.1084030000     -0.3502720000     -0.4850040000
H                  5.5507830000     -1.4656010000      1.2305350000
H                  5.9273500000      0.0936950000      1.9443000000
H                  6.9959600000      0.8199480000     -0.2104260000
H                  6.6172740000     -0.7376400000     -0.9216070000
H                  8.0496730000     -1.8732150000      0.8005970000
H                  8.4283240000     -0.3164620000      1.5142600000
H                  9.4961110000      0.4114630000     -0.6398680000
H                  9.1155400000     -1.1438850000     -1.3542570000
H                 10.5459940000     -2.2849930000      0.3669130000
H                 10.9271200000     -0.7296590000      1.0818140000
H                 11.9949360000     -0.0010490000     -1.0729910000
H                 11.6132280000     -1.5560040000     -1.7878820000
H                 13.0426370000     -2.6971270000     -0.0678750000
H                 13.4243940000     -1.1430950000      0.6465230000
H                 14.1461650000     -1.9839050000     -2.2253600000
H                 15.2734540000     -1.8894760000     -0.8677800000
H                 14.5308960000     -0.4183050000     -1.5058230000
$end
$rem
MAX_SCF_CYCLES=200
SCF_Guess=core
BASIS  =  6-311++G(d,p)
GUI  =  2
JOB_TYPE  =  SP
METHOD  =  B3LYP
THRESH = 14
SCF_CONVERGENCE = 8
SOLVENT_METHOD = COSMO
$end
$solvent
dielectric 37.219
opticaldielectric 1.43
$end

--------------------------------------------------------------

             Standard Nuclear Orientation (Angstroms)
    I     Atom           X                Y                Z
 ----------------------------------------------------------------
    1      C       5.0069316719    -0.7387910833    -0.6918341332
    2      C       5.6833926287     0.4565935702    -0.5680522499
    3      C       5.0593500958     1.5579782501     0.0563500232
    4      C       3.6963265115    -0.8801783737    -0.2029314538
    5      C       3.0707156781     0.2249466687     0.4231896871
    6      C       3.7740682106     1.4364539583     0.5410208179
    7      C       3.0039185255    -2.1674746398    -0.3504224611
    8      C       1.6531590934    -2.2392757014     0.1751901449
    9      C       1.0438643330    -1.1559579310     0.7977514908
   10      C       1.7037175088     0.1253034984     0.9484561499
   11      O       3.5728197280    -3.1446955861    -0.9081804538
   12      O       1.1450219792     1.1120314275     1.5008766629
   13      C       0.9478015269    -3.5666099088     0.0187043215
   14      C      -0.3636419199    -1.2333696163     1.3444402866
   15      C      -1.4260417665    -0.7000871104     0.3630172420
   16      C      -2.8461092412    -0.7293589416     0.9385237979
   17      C      -3.9116125307    -0.1924309453    -0.0241252142
   18      C      -5.3323610307    -0.2119704889     0.5517496447
   19      C      -6.3970339466     0.3264760433    -0.4109488574
   20      C      -7.8171502904     0.3102295326     0.1663330689
   21      C      -8.8812903614     0.8494454709    -0.7961266748
   22      C     -10.3014743206     0.8344980506    -0.2191835366
   23      C     -11.3570586500     1.3756880849    -1.1883274123
   24      Cl      5.8989820928     3.1016259848     0.2305234939
   25      Cl      7.3276766588     0.5803510073    -1.1999026994
   26      H       5.4694389051    -1.5943895433    -1.1672889171
   27      H       3.2783351814     2.2700482442     1.0221812914
   28      H       1.5556141323    -4.2217108315    -0.6054641452
   29      H      -0.0408076731    -3.4553846498    -0.4387278491
   30      H       0.8005956214    -4.0631741437     0.9863156543
   31      H      -0.4080022625    -0.6231258673     2.2516890708
   32      H      -0.6127715041    -2.2625663460     1.6217863224
   33      H      -1.3947753086    -1.2860441928    -0.5643490739
   34      H      -1.1591207374     0.3274648106     0.0967284681
   35      H      -2.8679173774    -0.1412274834     1.8652969514
   36      H      -3.1042681319    -1.7586579203     1.2244191949
   37      H      -3.8899871903    -0.7795924427    -0.9518829989
   38      H      -3.6515429814     0.8348673719    -0.3100685823
   39      H      -5.3535658402     0.3760594907     1.4787571805
   40      H      -5.5922870817    -1.2395649477     0.8392720724
   41      H      -6.3770328154    -0.2620787699    -1.3376537943
   42      H      -6.1361768102     1.3531241696    -0.6993739347
   43      H      -7.8368841282     0.8990137722     1.0928678593
   44      H      -8.0783332583    -0.7165579908     0.4548752925
   45      H      -8.8629653474     0.2609223168    -1.7230073634
   46      H      -8.6208941799     1.8762367120    -1.0851859577
   47      H     -10.3204733058     1.4229907003     0.7064040395
   48      H     -10.5626674944    -0.1913245497     0.0688723813
   49      H     -11.1421156561     2.4121677111    -1.4679082386
   50      H     -12.3579290156     1.3516001752    -0.7469955126
   51      H     -11.3862285342     0.7859582840    -2.1103306841
 ----------------------------------------------------------------

   72   -1887.1571850796      7.99e-09  Convergence criterion met
 Total energy in the final basis set =    -1887.1571850796
   13   -1887.2307797475      5.81e-09  Convergence criterion met
 Total energy in the final basis set =    -1887.2307797475

                    Orbital Energies (a.u.)
 --------------------------------------------------------------

 Alpha MOs
 -- Occupied --
********-101.5623 -19.0808 -19.0798 -10.2483 -10.2478 -10.2258 -10.2247
-10.1879 -10.1879 -10.1834 -10.1828 -10.1734 -10.1698 -10.1576 -10.1563
-10.1556 -10.1553 -10.1551 -10.1550 -10.1549 -10.1548 -10.1546 -10.1523
-10.1512  -9.4768  -9.4768  -7.2413  -7.2413  -7.2318  -7.2317  -7.2313
 -7.2312  -1.0071  -1.0040  -0.9150  -0.8611  -0.8497  -0.8191  -0.8063
 -0.7900  -0.7671  -0.7582  -0.7484  -0.7346  -0.7067  -0.6804  -0.6620
 -0.6459  -0.6206  -0.6044  -0.5837  -0.5739  -0.5699  -0.5671  -0.5565
 -0.5211  -0.4933  -0.4896  -0.4804  -0.4693  -0.4600  -0.4432  -0.4424
 -0.4379  -0.4335  -0.4284  -0.4255  -0.4181  -0.4153  -0.4108  -0.4078
 -0.4015  -0.3948  -0.3866  -0.3852  -0.3818  -0.3776  -0.3759  -0.3626
 -0.3594  -0.3542  -0.3525  -0.3484  -0.3364  -0.3356  -0.3331  -0.3310
 -0.3263  -0.3227  -0.3186  -0.3180  -0.3158  -0.3151  -0.3145  -0.2967
 -0.2680  -0.2642  -0.2525  -0.2418  -0.2399  -0.1562

 Beta MOs
 -- Occupied --
********-101.5623 -19.0748 -19.0739 -10.2478 -10.2473 -10.2240 -10.2229
-10.1879 -10.1879 -10.1827 -10.1821 -10.1722 -10.1686 -10.1576 -10.1564
-10.1555 -10.1553 -10.1551 -10.1550 -10.1549 -10.1547 -10.1546 -10.1524
-10.1512  -9.4767  -9.4767  -7.2413  -7.2413  -7.2317  -7.2316  -7.2313
 -7.2312  -0.9965  -0.9933  -0.9141  -0.8606  -0.8469  -0.8169  -0.8059
 -0.7895  -0.7664  -0.7565  -0.7468  -0.7333  -0.7047  -0.6793  -0.6567
 -0.6440  -0.6201  -0.6033  -0.5815  -0.5735  -0.5693  -0.5671  -0.5538
 -0.5197  -0.4912  -0.4876  -0.4802  -0.4687  -0.4594  -0.4426  -0.4413
 -0.4331  -0.4299  -0.4265  -0.4223  -0.4170  -0.4131  -0.4101  -0.4049
 -0.3988  -0.3901  -0.3848  -0.3819  -0.3780  -0.3760  -0.3619  -0.3610
 -0.3571  -0.3531  -0.3476  -0.3469  -0.3357  -0.3353  -0.3324  -0.3302
 -0.3226  -0.3205  -0.3180  -0.3166  -0.3157  -0.3150  -0.3134  -0.2958
 -0.2580  -0.2483  -0.2469  -0.2351  -0.2329

          Ground-State Mulliken Net Atomic Charges

     Atom                 Charge (a.u.)    Spin (a.u.)
  --------------------------------------------------------
      1 C                    -0.496657       0.020099
      2 C                     0.428502       0.030356
      3 C                     0.346317       0.031839
      4 C                    -0.566965       0.019124
      5 C                    -0.403319       0.063111
      6 C                    -0.365777       0.029494
      7 C                    -0.577937       0.111165
      8 C                     0.471896       0.047888
      9 C                     0.573614       0.080786
     10 C                    -0.818615       0.085259
     11 O                    -0.509911       0.221387
     12 O                    -0.471604       0.223222
     13 C                    -0.405357       0.002574
     14 C                    -0.321243       0.019921
     15 C                    -0.990358       0.001606
     16 C                    -0.275225       0.004381
     17 C                     0.030423      -0.003434
     18 C                     0.062536      -0.000424
     19 C                    -0.016918      -0.000068
     20 C                    -0.243499       0.000154
     21 C                    -0.459445       0.000024
     22 C                    -0.291315       0.000011
     23 C                    -0.711566      -0.000005
     24 Cl                    0.502225       0.002498
     25 Cl                    0.498836       0.002439
     26 H                     0.225181      -0.001594
     27 H                     0.222027      -0.001827
     28 H                     0.182843      -0.001467
     29 H                     0.171699       0.003978
     30 H                     0.192515       0.005477
     31 H                     0.210844       0.002767
     32 H                     0.182964       0.000679
     33 H                     0.133287      -0.000801
     34 H                     0.201103      -0.000327
     35 H                     0.126558       0.000259
     36 H                     0.120762      -0.000511
     37 H                     0.135356       0.000129
     38 H                     0.128667      -0.000167
     39 H                     0.135481      -0.000001
     40 H                     0.135369       0.000001
     41 H                     0.134458      -0.000005
     42 H                     0.134750       0.000003
     43 H                     0.131356       0.000002
     44 H                     0.131458      -0.000001
     45 H                     0.128835       0.000001
     46 H                     0.128633      -0.000001
     47 H                     0.136262      -0.000001
     48 H                     0.136131       0.000000
     49 H                     0.145470      -0.000000
     50 H                     0.153937      -0.000001
     51 H                     0.145418       0.000000
  --------------------------------------------------------
  Sum of atomic charges =    -1.000000

                    Cartesian Multipole Moments
 -----------------------------------------------------------------
    Charge (ESU x 10^10)
                -4.8032
    Dipole Moment (Debye)
         X     -16.0501      Y       1.8586      Z      -0.5047
       Tot      16.1652
    Quadrupole Moments (Debye-Ang)
        XX    -245.0502     XY      12.6309     YY    -198.8807
        XZ       6.4725     YZ     -10.1057     ZZ    -180.7611

 Total job time:  2199.64s(wall), 17049.15s(cpu)
        *  Thank you very much for using Q-Chem.  Have a nice day.  *
