 Q-Chem 5.4, Q-Chem, Inc., Pleasanton, CA (2021)
 Q-Chem 5.4.0 for Intel X86 EM64T Linux

User input:
--------------------------------------------------------------
$molecule
-2 1
C                  2.5941740000     -0.1623960000      0.7048720000
O                  1.8283780000      0.2085310000     -0.4330580000
C                  0.4388350000      0.1028000000     -0.2545430000
C                 -0.3077320000      1.2582720000     -0.4875290000
C                 -1.7392410000      1.3089630000     -0.4248200000
O                 -2.4306840000      2.3854770000     -0.6447030000
C                 -2.3288740000      0.0450960000     -0.0834320000
C                 -1.5775860000     -1.1072520000      0.1514330000
C                 -0.1492560000     -1.1742660000      0.0692830000
O                  0.5317450000     -2.2655050000      0.2543920000
H                  2.3506900000     -1.1845090000      1.0091470000
H                  3.6526920000     -0.0870560000      0.4249380000
H                  2.4092210000      0.5326090000      1.5431790000
H                  0.2267000000      2.1742350000     -0.7328550000
H                 -3.4171470000      0.0098900000     -0.0139270000
H                 -2.0819160000     -2.0448890000      0.3901820000
$end
$rem
MAX_SCF_CYCLES=200
BASIS  =  6-311++G(d,p)
GUI  =  2
JOB_TYPE  =  SP
METHOD  =  B3LYP
SOLVENT_METHOD = COSMO
$end
$solvent
dielectric 37.219
opticaldielectric 1.43
$end

--------------------------------------------------------------

             Standard Nuclear Orientation (Angstroms)
    I     Atom           X                Y                Z
 ----------------------------------------------------------------
    1      C      -2.6980042013    -1.0206904552     0.5133847164
    2      O      -1.6783938378    -1.1434344034    -0.4685743803
    3      C      -0.5298888064    -0.3771037460    -0.2086707160
    4      C       0.6803283822    -1.0693236989    -0.1542079039
    5      C       1.9539047778    -0.4359288728     0.0261644112
    6      O       3.0782491995    -1.0831547252     0.0738368926
    7      C       1.8550799734     0.9903615479     0.1584592664
    8      C       0.6418030917     1.6779057858     0.1060830364
    9      C      -0.6331947051     1.0575736230    -0.0962402536
   10      O      -1.7494312863     1.7177493040    -0.1799912178
   11      H      -2.9879123984     0.0275957526     0.6301407976
   12      H      -3.5525222501    -1.6197426898     0.1736276843
   13      H      -2.3570265398    -1.4257252353     1.4827552594
   14      H       0.6572833365    -2.1527694556    -0.2562120433
   15      H       2.7869188601     1.5392904130     0.3025492397
   16      H       0.6296953153     2.7653047090     0.1951333658
 ----------------------------------------------------------------

   13    -496.0875408987      5.17e-06  Convergence criterion met
 Total energy in the final basis set =     -496.0875408987
    5    -496.3972999370      9.31e-06  Convergence criterion met
 Total energy in the final basis set =     -496.3972999370

                    Orbital Energies (a.u.)
 --------------------------------------------------------------

 Alpha MOs
 -- Occupied --
-19.1163 -19.0223 -19.0202 -10.1895 -10.1802 -10.1742 -10.1723 -10.1260
-10.1230 -10.1224  -1.0239  -0.9335  -0.9295  -0.7798  -0.7101  -0.6628
 -0.6377  -0.5625  -0.5328  -0.4632  -0.4499  -0.4352  -0.4280  -0.4043
 -0.3868  -0.3641  -0.3564  -0.3397  -0.3312  -0.3211  -0.3157  -0.2687
 -0.2302  -0.2090  -0.2034  -0.1974  -0.1236

          Ground-State Mulliken Net Atomic Charges

     Atom                 Charge (a.u.)
  ----------------------------------------
      1 C                    -0.283774
      2 O                    -0.274827
      3 C                    -0.396734
      4 C                     0.460623
      5 C                    -0.531166
      6 O                    -0.791533
      7 C                     0.008474
      8 C                    -0.166193
      9 C                    -0.156116
     10 O                    -0.780009
     11 H                     0.177749
     12 H                     0.141551
     13 H                     0.123587
     14 H                     0.169584
     15 H                     0.146148
     16 H                     0.152634
  ----------------------------------------
  Sum of atomic charges =    -2.000000

                    Cartesian Multipole Moments
 -----------------------------------------------------------------
    Charge (ESU x 10^10)
                -9.6064
    Dipole Moment (Debye)
         X      -6.5909      Y      -1.7839      Z       1.9116
       Tot       7.0906
    Quadrupole Moments (Debye-Ang)
        XX    -117.4896     XY      24.7703     YY     -85.5321
        XZ      -5.3979     YZ      -0.0463     ZZ     -68.6989

 Total job time:  17.61s(wall), 123.74s(cpu)
        *  Thank you very much for using Q-Chem.  Have a nice day.  *
