 Gaussian 16, Revision A.03,
 Gaussian 16:  ES64L-G16RevA.03 25-Dec-2016

 ----------------------------------------------------------------
 #P UB3LYP/6-311++G(d,p) SCRF=(PCM,Solvent=n,n-DiMethylFormamide)
 ----------------------------------------------------------------

 ------------------
 Quinone PCM in DMF
 ------------------
 Symbolic Z-matrix:
 Charge =  0 Multiplicity = 1

                         Standard orientation:
 ---------------------------------------------------------------------
 Center     Atomic      Atomic             Coordinates (Angstroms)
 Number     Number       Type             X           Y           Z
 ---------------------------------------------------------------------
      1          6           0       -3.231957   -1.397282    0.000339
      2          6           0       -4.434475   -0.698336    0.001110
      3          6           0       -4.434506    0.698286    0.001210
      4          6           0       -2.020943   -0.700675   -0.000212
      5          6           0       -2.020984    0.700678   -0.000131
      6          6           0       -3.232008    1.397263    0.000512
      7          6           0       -0.745775   -1.470324   -0.000880
      8          6           0        0.532465   -0.675397   -0.000082
      9          6           0        0.532446    0.675384   -0.000079
     10          6           0       -0.745803    1.470326   -0.000787
     11          8           0       -0.730099   -2.682902   -0.002454
     12          8           0       -0.730101    2.682904   -0.002325
     13          1           0       -3.209113   -2.479821    0.000163
     14          1           0       -3.209111    2.479798    0.000456
     15         35           0        2.109378   -1.715304    0.000459
     16         35           0        2.109341    1.715320    0.000347
     17          1           0       -5.373025   -1.240451    0.001619
     18          1           0       -5.373078    1.240365    0.001786
 ---------------------------------------------------------------------

 SCF Done:  E(UB3LYP) =  -5682.34264935     A.U. after   15 cycles

 The electronic state is 1-A.
 Alpha  occ. eigenvalues -- -482.85746-482.85746 -62.51012 -62.51012 -56.33064
 Alpha  occ. eigenvalues --  -56.33064 -56.32676 -56.32676 -56.32620 -56.32620
 Alpha  occ. eigenvalues --  -19.15071 -19.15070 -10.30570 -10.30569 -10.27830
 Alpha  occ. eigenvalues --  -10.27757 -10.22026 -10.21974 -10.20649 -10.20648
 Alpha  occ. eigenvalues --  -10.20529 -10.20477  -8.71983  -8.71982  -6.55171
 Alpha  occ. eigenvalues --   -6.55171  -6.53871  -6.53871  -6.53709  -6.53709
 Alpha  occ. eigenvalues --   -2.66262  -2.66261  -2.65916  -2.65915  -2.65792
 Alpha  occ. eigenvalues --   -2.65792  -2.64757  -2.64756  -2.64754  -2.64754
 Alpha  occ. eigenvalues --   -1.08903  -1.08720  -0.90805  -0.88834  -0.82611
 Alpha  occ. eigenvalues --   -0.81300  -0.78840  -0.75943  -0.70413  -0.65618
 Alpha  occ. eigenvalues --   -0.64044  -0.60279  -0.56735  -0.53477  -0.51273
 Alpha  occ. eigenvalues --   -0.48716  -0.47741  -0.47395  -0.46707  -0.45989
 Alpha  occ. eigenvalues --   -0.44244  -0.43814  -0.43280  -0.39855  -0.39273
 Alpha  occ. eigenvalues --   -0.37951  -0.37190  -0.32943  -0.32938  -0.30739
 Alpha  occ. eigenvalues --   -0.30639  -0.29776  -0.28904  -0.28682  -0.27629
 Alpha virt. eigenvalues --   -0.14069  -0.06623  -0.05321  -0.04778  -0.00631
 Alpha virt. eigenvalues --   -0.00355   0.00633   0.01160   0.01276   0.02773
 Alpha virt. eigenvalues --    0.03362   0.03700   0.03979   0.04635   0.05116

  Beta  occ. eigenvalues -- -482.85746-482.85746 -62.51012 -62.51012 -56.33064
  Beta  occ. eigenvalues --  -56.33064 -56.32676 -56.32676 -56.32620 -56.32620
  Beta  occ. eigenvalues --  -19.15071 -19.15070 -10.30570 -10.30569 -10.27830
  Beta  occ. eigenvalues --  -10.27757 -10.22026 -10.21974 -10.20649 -10.20648
  Beta  occ. eigenvalues --  -10.20529 -10.20477  -8.71983  -8.71982  -6.55171
  Beta  occ. eigenvalues --   -6.55171  -6.53871  -6.53871  -6.53709  -6.53709
  Beta  occ. eigenvalues --   -2.66262  -2.66261  -2.65916  -2.65915  -2.65792
  Beta  occ. eigenvalues --   -2.65792  -2.64757  -2.64756  -2.64754  -2.64754
  Beta  occ. eigenvalues --   -1.08903  -1.08720  -0.90805  -0.88834  -0.82611
  Beta  occ. eigenvalues --   -0.81300  -0.78840  -0.75943  -0.70413  -0.65618
  Beta  occ. eigenvalues --   -0.64044  -0.60279  -0.56735  -0.53477  -0.51273
  Beta  occ. eigenvalues --   -0.48716  -0.47741  -0.47395  -0.46707  -0.45989
  Beta  occ. eigenvalues --   -0.44244  -0.43814  -0.43280  -0.39855  -0.39273
  Beta  occ. eigenvalues --   -0.37951  -0.37190  -0.32943  -0.32938  -0.30739
  Beta  occ. eigenvalues --   -0.30639  -0.29776  -0.28904  -0.28682  -0.27629
  Beta virt. eigenvalues --   -0.14069  -0.06623  -0.05321  -0.04778  -0.00631
  Beta virt. eigenvalues --   -0.00355   0.00633   0.01160   0.01276   0.02773
  Beta virt. eigenvalues --    0.03362   0.03700   0.03979   0.04635   0.05116

 Mulliken charges and spin densities:
               1          2
     1  C    0.258078   0.000000
     2  C   -0.350594  -0.000000
     3  C   -0.350628  -0.000000
     4  C    0.426811   0.000000
     5  C    0.426810   0.000000
     6  C    0.258105  -0.000000
     7  C   -1.009136  -0.000000
     8  C    0.489191  -0.000000
     9  C    0.489218   0.000000
    10  C   -1.009226  -0.000000
    11  O   -0.201267  -0.000000
    12  O   -0.201261  -0.000000
    13  H    0.188186   0.000000
    14  H    0.188180   0.000000
    15  Br  -0.019346  -0.000000
    16  Br  -0.019348  -0.000000
    17  H    0.218111  -0.000000
    18  H    0.218114   0.000000
 Sum of Mulliken charges =  -0.00000  -0.00000

 Dipole moment (field-independent basis, Debye):
    X=             -4.2000    Y=              0.0000    Z=              0.0079  Tot=              4.2000
 Quadrupole moment (field-independent basis, Debye-Ang):
   XX=            -77.5038   YY=           -118.7471   ZZ=           -105.1082
   XY=              0.0001   XZ=             -0.0125   YZ=             -0.0001

 Normal termination of Gaussian 16 at Sun Jan 21 07:54:13 2024.
