 Gaussian 16, Revision A.03,
 Gaussian 16:  ES64L-G16RevA.03 25-Dec-2016

 ----------------------------------------------------------------------
 #P UB3LYP/6-311++G(d,p) nosym opt freq SCRF=(PCM,Solvent=n,n-DiMethylF
 ormamide)
 ----------------------------------------------------------------------

 --------
 Oxidized
 --------
 Symbolic Z-matrix:
 Charge =  0 Multiplicity = 1

 SCF Done:  E(UB3LYP) =  -778.609497987     A.U. after   12 cycles
 SCF Done:  E(UB3LYP) =  -778.609556418     A.U. after    9 cycles
 SCF Done:  E(UB3LYP) =  -778.609560595     A.U. after    9 cycles
 SCF Done:  E(UB3LYP) =  -778.609559637     A.U. after    9 cycles
 SCF Done:  E(UB3LYP) =  -778.609560891     A.U. after    9 cycles
 Optimization completed.
    -- Stationary point found.
 Normal termination of Gaussian 16 at Sat Feb 10 10:06:13 2024.

 ----------------------------------------------------------------------
 #P Geom=AllCheck Guess=TCheck SCRF=Check GenChk UB3LYP/6-311++G(d,p) F
 req
 ----------------------------------------------------------------------

 Structure from the checkpoint file:  "028.chk"
 --------
 Oxidized
 --------
 Charge =  0 Multiplicity = 1

                          Input orientation:
 ---------------------------------------------------------------------
 Center     Atomic      Atomic             Coordinates (Angstroms)
 Number     Number       Type             X           Y           Z
 ---------------------------------------------------------------------
      1          9           0       -2.702768    0.519528   -0.015704
      2          6           0       -1.392570    0.320039   -0.008711
      3          6           0       -0.516720    1.332012   -0.017558
      4          9           0       -0.902331    2.599884   -0.034013
      5          6           0        0.952353    1.100220   -0.010405
      6          8           0        1.744662    2.015441   -0.019524
      7          6           0        1.392571   -0.320038    0.008708
      8          6           0        0.516719   -1.332013    0.017555
      9          9           0        0.902332   -2.599884    0.034023
     10          6           0       -0.952353   -1.100220    0.010384
     11          8           0       -1.744661   -2.015438    0.019528
     12          9           0        2.702765   -0.519531    0.015715
 ---------------------------------------------------------------------

 SCF Done:  E(UB3LYP) =  -778.609560891     A.U. after    1 cycles

 Alpha  occ. eigenvalues --  -24.74824 -24.74824 -24.74823 -24.74823 -19.17935
 Alpha  occ. eigenvalues --  -19.17934 -10.33275 -10.33274 -10.32604 -10.32601
 Alpha  occ. eigenvalues --  -10.32523 -10.32523  -1.29989  -1.29902  -1.28677
 Alpha  occ. eigenvalues --   -1.28601  -1.11229  -1.11081  -0.90951  -0.82807
 Alpha  occ. eigenvalues --   -0.75975  -0.69411  -0.68517  -0.63180  -0.61226
 Alpha  occ. eigenvalues --   -0.60775  -0.59306  -0.55796  -0.55648  -0.53684
 Alpha  occ. eigenvalues --   -0.51534  -0.51472  -0.50602  -0.50223  -0.47999
 Alpha  occ. eigenvalues --   -0.45785  -0.45489  -0.44740  -0.44509  -0.44502
 Alpha  occ. eigenvalues --   -0.33147  -0.33030  -0.32971  -0.30455
 Alpha virt. eigenvalues --   -0.16468  -0.03729  -0.03585  -0.03009   0.00786
 Alpha virt. eigenvalues --    0.02224   0.04941   0.05050   0.05129   0.05956
 Alpha virt. eigenvalues --    0.07798   0.07814   0.08450   0.08587   0.09032

  Beta  occ. eigenvalues --  -24.74824 -24.74824 -24.74823 -24.74823 -19.17935
  Beta  occ. eigenvalues --  -19.17934 -10.33275 -10.33274 -10.32604 -10.32601
  Beta  occ. eigenvalues --  -10.32523 -10.32523  -1.29989  -1.29902  -1.28677
  Beta  occ. eigenvalues --   -1.28601  -1.11229  -1.11081  -0.90951  -0.82807
  Beta  occ. eigenvalues --   -0.75975  -0.69411  -0.68517  -0.63180  -0.61226
  Beta  occ. eigenvalues --   -0.60775  -0.59306  -0.55796  -0.55648  -0.53684
  Beta  occ. eigenvalues --   -0.51534  -0.51472  -0.50602  -0.50223  -0.47999
  Beta  occ. eigenvalues --   -0.45785  -0.45489  -0.44740  -0.44509  -0.44502
  Beta  occ. eigenvalues --   -0.33147  -0.33030  -0.32971  -0.30455
  Beta virt. eigenvalues --   -0.16468  -0.03729  -0.03585  -0.03009   0.00786
  Beta virt. eigenvalues --    0.02224   0.04941   0.05050   0.05129   0.05956
  Beta virt. eigenvalues --    0.07798   0.07814   0.08450   0.08587   0.09032

 Mulliken charges and spin densities:
               1          2
     1  F   -0.179233  -0.000000
     2  C    0.225861  -0.000000
     3  C    0.225867   0.000000
     4  F   -0.179148  -0.000000
     5  C    0.176550   0.000000
     6  O   -0.269900   0.000000
     7  C    0.225864  -0.000000
     8  C    0.225864   0.000000
     9  F   -0.179147   0.000000
    10  C    0.176552  -0.000000
    11  O   -0.269899   0.000000
    12  F   -0.179232   0.000000
 Sum of Mulliken charges =  -0.00000  -0.00000

 Dipole moment (field-independent basis, Debye):
    X=              0.0000    Y=             -0.0000    Z=             -0.0001  Tot=              0.0001
 Quadrupole moment (field-independent basis, Debye-Ang):
   XX=            -76.0277   YY=            -77.9345   ZZ=            -59.7048
   XY=             -6.6112   XZ=              0.0315   YZ=              0.2052

  Exact polarizability: 125.356  41.726 137.423  -0.251  -0.966  46.806
 Approx polarizability: 166.288  78.251 188.982  -0.586  -1.358  55.784

                      1                      2                      3
                      A                      A                      A
 Frequencies --     84.0459               114.6761               119.6666
 Red. masses --     16.3587                18.2268                17.0421
 Frc consts  --      0.0681                 0.1412                 0.1438
 IR Inten    --      3.6378                 0.0075                 0.0000

                      4                      5                      6
                      A                      A                      A
 Frequencies --    214.5800               272.4971               291.0736
 Red. masses --     13.8441                18.2982                16.3862
 Frc consts  --      0.3756                 0.8005                 0.8180
 IR Inten    --     29.3761                 0.0000                 0.0000

                      7                      8                      9
                      A                      A                      A
 Frequencies --    294.6624               308.4597               353.0978
 Red. masses --     18.4568                17.2953                12.7045
 Frc consts  --      0.9442                 0.9696                 0.9332
 IR Inten    --      0.6290                10.1787                 0.0000

                     10                     11                     12
                      A                      A                      A
 Frequencies --    368.6325               403.6986               423.2549
 Red. masses --     16.0009                15.8397                15.3841
 Frc consts  --      1.2811                 1.5209                 1.6238
 IR Inten    --     14.8628                 0.0000                 0.0000

                     13                     14                     15
                      A                      A                      A
 Frequencies --    480.4386               542.1350               614.6561
 Red. masses --     12.7417                15.3035                12.3349
 Frc consts  --      1.7328                 2.6501                 2.7457
 IR Inten    --      0.0000                 0.0000                 0.0369

                     16                     17                     18
                      A                      A                      A
 Frequencies --    621.2073               687.1137               752.4579
 Red. masses --     16.1041                12.2020                12.2276
 Frc consts  --      3.6615                 3.3942                 4.0790
 IR Inten    --     20.4298                 0.0000                 8.0669

                     19                     20                     21
                      A                      A                      A
 Frequencies --    817.2377               984.1849              1047.7199
 Red. masses --     12.6424                14.0261                12.9768
 Frc consts  --      4.9748                 8.0046                 8.3929
 IR Inten    --      0.0000               587.3766                34.4331

                     22                     23                     24
                      A                      A                      A
 Frequencies --   1104.4674              1248.9270              1294.7258
 Red. masses --     13.7278                13.3992                12.7246
 Frc consts  --      9.8664                12.3141                12.5675
 IR Inten    --      0.0000                 0.0000               970.1415

                     25                     26                     27
                      A                      A                      A
 Frequencies --   1340.3022              1345.3724              1699.5341
 Red. masses --     12.2120                12.4007                12.1193
 Frc consts  --     12.9253                13.2245                20.6247
 IR Inten    --      0.0000                 1.1537               455.5319

                     28                     29                     30
                      A                      A                      A
 Frequencies --   1733.0034              1742.3502              1763.2439
 Red. masses --     13.2298                12.6007                12.6889
 Frc consts  --     23.4100                22.5380                23.2433
 IR Inten    --   1144.2633                 0.0005                 0.0000

 - Thermochemistry -
 -------------------
 Temperature   298.150 Kelvin.  Pressure   1.00000 Atm.
 Atom     1 has atomic number  9 and mass  18.99840

 Molecular mass:   179.98344 amu.
 Principal axes and moments of inertia in atomic units:
                           1         2         3
     Eigenvalues --  1583.615441815.304253398.91937
           X            0.75659   0.65389  -0.00327
           Y           -0.65381   0.75656   0.01216
           Z            0.01042  -0.00706   0.99992
 This molecule is an asymmetric top.
 Rotational symmetry number  1.
 Warning -- assumption of classical behavior for rotation
           may cause significant error
 Rotational temperatures (Kelvin)      0.05469     0.04771     0.02548
 Rotational constants (GHZ):           1.13963     0.99418     0.53097
 Zero-point vibrational energy     137973.8 (Joules/Mol)
                                   32.97654 (Kcal/Mol)
 Warning -- explicit consideration of  15 degrees of freedom as
           vibrations may cause significant error
 Vibrational temperatures:    120.92   164.99   172.17   308.73   392.06
          (Kelvin)            418.79   423.95   443.80   508.03   530.38
                              580.83   608.97   691.24   780.01   884.35
                              893.78   988.60  1082.62  1175.82  1416.02
                             1507.44  1589.08  1796.93  1862.82  1928.40
                             1935.69  2445.25  2493.41  2506.85  2536.91

 Zero-point correction=                           0.052551 (Hartree/Particle)
 Thermal correction to Energy=                    0.062273
 Thermal correction to Enthalpy=                  0.063217
 Thermal correction to Gibbs Free Energy=         0.016944
 Sum of electronic and zero-point Energies=           -778.557009
 Sum of electronic and thermal Energies=              -778.547288
 Sum of electronic and thermal Enthalpies=            -778.546344
 Sum of electronic and thermal Free Energies=         -778.592617

                     E (Thermal)             CV                S
                      KCal/Mol        Cal/Mol-Kelvin    Cal/Mol-Kelvin
 Total                   39.077             34.712             97.391
 Electronic               0.000              0.000              0.000
 Translational            0.889              2.981             41.470
 Rotational               0.889              2.981             30.658
 Vibrational             37.300             28.750             25.263
 Vibration     1          0.601              1.960              3.794
 Vibration     2          0.608              1.937              3.188
 Vibration     3          0.609              1.933              3.106
 Vibration     4          0.645              1.819              2.004
 Vibration     5          0.675              1.724              1.580
 Vibration     6          0.687              1.690              1.468
 Vibration     7          0.689              1.684              1.447
 Vibration     8          0.698              1.658              1.371
 Vibration     9          0.729              1.569              1.152
 Vibration    10          0.741              1.537              1.085
 Vibration    11          0.769              1.462              0.949
 Vibration    12          0.785              1.420              0.881
 Vibration    13          0.837              1.293              0.709
 Vibration    14          0.897              1.157              0.561
 Vibration    15          0.974              1.001              0.425

 Optimization completed.
    -- Stationary point found.
 Normal termination of Gaussian 16 at Sat Feb 10 10:10:08 2024.
