 Q-Chem 5.4, Q-Chem, Inc., Pleasanton, CA (2021)
 Q-Chem 5.4.0 for Intel X86 EM64T Linux

User input:
--------------------------------------------------------------
$molecule
-1 2
C                 -1.3918950000      2.0090810000     -4.7285380000
C                 -1.4307890000      0.6573880000     -5.0068000000
C                 -1.3355770000     -0.2804980000     -3.9553330000
C                 -1.2596850000      2.4767800000     -3.4020550000
C                 -1.1641050000      1.5362920000     -2.3476880000
C                 -1.2038340000      0.1574750000     -2.6527020000
C                 -1.2206870000      3.9130160000     -3.1469180000
C                 -1.0221250000      1.9613290000     -0.9589430000
C                 -1.0937010000      4.3512110000     -1.7651480000
C                 -0.9959320000      3.3908730000     -0.6885240000
C                 -1.0353090000      5.7599620000     -1.4640880000
C                 -0.8330240000      6.1609520000     -0.1426020000
C                 -0.7383700000      5.2321860000      0.8986150000
C                 -0.8416760000      3.8598700000      0.6660740000
O                 -1.2901890000      4.7154500000     -4.1345430000
O                 -0.9193960000      1.0728620000     -0.0510840000
H                 -1.4616770000      2.7520160000     -5.5139880000
H                 -1.5343190000      0.3146020000     -6.0322550000
H                 -1.3659350000     -1.3443230000     -4.1724320000
H                 -1.1275740000     -0.5380180000     -1.8255230000
H                 -0.5981350000      5.5968050000      1.9090250000
H                 -0.7631650000      7.2157800000      0.0940440000
N                 -1.1886250000      6.6926950000     -2.4705310000
N                 -0.8082370000      2.9606370000      1.7133300000
C                 -0.8947610000      8.0870510000     -2.2951990000
C                 -0.4082630000      3.3245350000      3.0433570000
H                 -1.2024650000      6.2702530000     -3.4019430000
H                 -0.7660420000      1.9885230000      1.3980530000
H                  0.1274690000      8.2719730000     -1.9215900000
H                 -1.5878160000      8.5750200000     -1.5936540000
H                 -0.9977660000      8.5888380000     -3.2600890000
H                 -1.1211140000      4.0138780000      3.5200450000
H                  0.5838700000      3.8071600000      3.0819720000
H                 -0.3680520000      2.4201270000      3.6547880000
$end
$rem
MAX_SCF_CYCLES=200
BASIS  =  6-311++G(d,p)
GUI  =  2
JOB_TYPE  =  SP
METHOD  =  B3LYP
SOLVENT_METHOD = PCM
$end
$pcm
theory = CPCM
$end
$solvent
dielectric 37.219
opticaldielectric 1.43
$end

--------------------------------------------------------------

             Standard Nuclear Orientation (Angstroms)
    I     Atom           X                Y                Z
 ----------------------------------------------------------------
    1      C      -1.3918950000     2.0090810000    -4.7285380000
    2      C      -1.4307890000     0.6573880000    -5.0068000000
    3      C      -1.3355770000    -0.2804980000    -3.9553330000
    4      C      -1.2596850000     2.4767800000    -3.4020550000
    5      C      -1.1641050000     1.5362920000    -2.3476880000
    6      C      -1.2038340000     0.1574750000    -2.6527020000
    7      C      -1.2206870000     3.9130160000    -3.1469180000
    8      C      -1.0221250000     1.9613290000    -0.9589430000
    9      C      -1.0937010000     4.3512110000    -1.7651480000
   10      C      -0.9959320000     3.3908730000    -0.6885240000
   11      C      -1.0353090000     5.7599620000    -1.4640880000
   12      C      -0.8330240000     6.1609520000    -0.1426020000
   13      C      -0.7383700000     5.2321860000     0.8986150000
   14      C      -0.8416760000     3.8598700000     0.6660740000
   15      O      -1.2901890000     4.7154500000    -4.1345430000
   16      O      -0.9193960000     1.0728620000    -0.0510840000
   17      H      -1.4616770000     2.7520160000    -5.5139880000
   18      H      -1.5343190000     0.3146020000    -6.0322550000
   19      H      -1.3659350000    -1.3443230000    -4.1724320000
   20      H      -1.1275740000    -0.5380180000    -1.8255230000
   21      H      -0.5981350000     5.5968050000     1.9090250000
   22      H      -0.7631650000     7.2157800000     0.0940440000
   23      N      -1.1886250000     6.6926950000    -2.4705310000
   24      N      -0.8082370000     2.9606370000     1.7133300000
   25      C      -0.8947610000     8.0870510000    -2.2951990000
   26      C      -0.4082630000     3.3245350000     3.0433570000
   27      H      -1.2024650000     6.2702530000    -3.4019430000
   28      H      -0.7660420000     1.9885230000     1.3980530000
   29      H       0.1274690000     8.2719730000    -1.9215900000
   30      H      -1.5878160000     8.5750200000    -1.5936540000
   31      H      -0.9977660000     8.5888380000    -3.2600890000
   32      H      -1.1211140000     4.0138780000     3.5200450000
   33      H       0.5838700000     3.8071600000     3.0819720000
   34      H      -0.3680520000     2.4201270000     3.6547880000
 ----------------------------------------------------------------

    8    -878.4831856268      6.50e-06  Convergence criterion met
 Total energy in the final basis set =     -878.4831856268

                    Orbital Energies (a.u.)
 --------------------------------------------------------------

 Alpha MOs
 -- Occupied --
-19.0714 -19.0714 -14.3028 -14.3028 -10.2212 -10.2211 -10.2033 -10.2033
-10.1866 -10.1866 -10.1696 -10.1691 -10.1685 -10.1682 -10.1677 -10.1672
-10.1663 -10.1663 -10.1590 -10.1584  -1.0000  -0.9973  -0.9236  -0.9177
 -0.8550  -0.8264  -0.7780  -0.7474  -0.7386  -0.7363  -0.6863  -0.6671
 -0.6568  -0.6240  -0.6131  -0.5752  -0.5629  -0.5295  -0.5199  -0.4981
 -0.4946  -0.4726  -0.4580  -0.4536  -0.4506  -0.4375  -0.4295  -0.4273
 -0.4203  -0.4125  -0.4118  -0.4090  -0.3940  -0.3793  -0.3773  -0.3760
 -0.3715  -0.3632  -0.3585  -0.3441  -0.3384  -0.3330  -0.3108  -0.2658
 -0.2536  -0.2494  -0.2429  -0.2383  -0.2339  -0.1805  -0.1310

 Beta MOs
 -- Occupied --
-19.0675 -19.0674 -14.3018 -14.3018 -10.2194 -10.2194 -10.2028 -10.2028
-10.1867 -10.1867 -10.1692 -10.1687 -10.1687 -10.1683 -10.1670 -10.1666
-10.1662 -10.1661 -10.1575 -10.1570  -0.9931  -0.9902  -0.9214  -0.9156
 -0.8531  -0.8245  -0.7742  -0.7454  -0.7369  -0.7346  -0.6859  -0.6627
 -0.6524  -0.6225  -0.6113  -0.5740  -0.5612  -0.5274  -0.5188  -0.4964
 -0.4937  -0.4703  -0.4569  -0.4523  -0.4495  -0.4341  -0.4276  -0.4261
 -0.4200  -0.4080  -0.4075  -0.4042  -0.3928  -0.3782  -0.3763  -0.3698
 -0.3603  -0.3595  -0.3575  -0.3427  -0.3321  -0.3273  -0.3038  -0.2517
 -0.2478  -0.2409  -0.2392  -0.2338  -0.2304  -0.1674

          Ground-State Mulliken Net Atomic Charges

     Atom                 Charge (a.u.)    Spin (a.u.)
  --------------------------------------------------------
      1 C                    -0.016586       0.020689
      2 C                    -0.568093       0.033215
      3 C                    -0.567589       0.033168
      4 C                     0.075745       0.022946
      5 C                     0.075407       0.022910
      6 C                    -0.016647       0.020713
      7 C                    -0.169377       0.098795
      8 C                    -0.171833       0.099086
      9 C                     0.339492      -0.010434
     10 C                     0.342101      -0.010081
     11 C                    -0.100186       0.046767
     12 C                    -0.281203       0.105962
     13 C                    -0.286725       0.105694
     14 C                    -0.102578       0.046721
     15 O                    -0.493713       0.150328
     16 O                    -0.493594       0.150313
     17 H                     0.167309      -0.000868
     18 H                     0.194645      -0.002693
     19 H                     0.194681      -0.002691
     20 H                     0.167259      -0.000864
     21 H                     0.200255      -0.007946
     22 H                     0.200065      -0.007934
     23 N                    -0.304804       0.042493
     24 N                    -0.302877       0.042586
     25 C                    -0.412511      -0.003387
     26 C                    -0.413291      -0.003316
     27 H                     0.393368      -0.003722
     28 H                     0.393105      -0.003697
     29 H                     0.156899       0.004718
     30 H                     0.152458       0.002894
     31 H                     0.169882       0.000016
     32 H                     0.152274       0.002893
     33 H                     0.156958       0.004714
     34 H                     0.169706       0.000011
  --------------------------------------------------------
  Sum of atomic charges =    -1.000000

                    Cartesian Multipole Moments
 -----------------------------------------------------------------
    Charge (ESU x 10^10)
                -4.8032
    Dipole Moment (Debye)
         X       6.2584      Y     -13.2753      Z      10.5203
       Tot      18.0576
    Quadrupole Moments (Debye-Ang)
        XX    -135.2577     XY      20.5226     YY    -161.3842
        XZ     -12.0427     YZ      42.7776     ZZ    -151.3499

 Total job time:  120.24s(wall), 623.93s(cpu)
        *  Thank you very much for using Q-Chem.  Have a nice day.  *
