 Gaussian 16, Revision A.03,
 Gaussian 16:  ES64L-G16RevA.03 25-Dec-2016

 --------------------------------------
 #P UB3LYP/6-311++G(d,p) nosym opt freq
 --------------------------------------

 --------
 Oxidized
 --------
 Symbolic Z-matrix:
 Charge =  0 Multiplicity = 1

 SCF Done:  E(UB3LYP) =  -1663.52226757     A.U. after   20 cycles
 SCF Done:  E(UB3LYP) =  -1663.54431604     A.U. after   17 cycles
 SCF Done:  E(UB3LYP) =  -1663.55503915     A.U. after   15 cycles
 SCF Done:  E(UB3LYP) =  -1663.56755890     A.U. after   15 cycles
 SCF Done:  E(UB3LYP) =  -1663.57272021     A.U. after   14 cycles
 SCF Done:  E(UB3LYP) =  -1663.57613383     A.U. after   15 cycles
 SCF Done:  E(UB3LYP) =  -1663.57683214     A.U. after   13 cycles
 SCF Done:  E(UB3LYP) =  -1663.57699708     A.U. after   13 cycles
 SCF Done:  E(UB3LYP) =  -1663.57713503     A.U. after   13 cycles
 SCF Done:  E(UB3LYP) =  -1663.57722442     A.U. after   12 cycles
 SCF Done:  E(UB3LYP) =  -1663.57727445     A.U. after   13 cycles
 SCF Done:  E(UB3LYP) =  -1663.57730353     A.U. after   11 cycles
 SCF Done:  E(UB3LYP) =  -1663.57731334     A.U. after   12 cycles
 SCF Done:  E(UB3LYP) =  -1663.57731600     A.U. after   11 cycles
 SCF Done:  E(UB3LYP) =  -1663.57731717     A.U. after   10 cycles
 SCF Done:  E(UB3LYP) =  -1663.57731742     A.U. after   10 cycles
 SCF Done:  E(UB3LYP) =  -1663.57731745     A.U. after    8 cycles
 Optimization completed.
    -- Stationary point found.
 Normal termination of Gaussian 16 at Thu Dec 21 07:47:32 2023.

 ----------------------------------------------------------------------
 #P Geom=AllCheck Guess=TCheck SCRF=Check GenChk UB3LYP/6-311++G(d,p) F
 req
 ----------------------------------------------------------------------

 Structure from the checkpoint file:  "158.chk"
 --------
 Oxidized
 --------
 Charge =  0 Multiplicity = 1

                          Input orientation:
 ---------------------------------------------------------------------
 Center     Atomic      Atomic             Coordinates (Angstroms)
 Number     Number       Type             X           Y           Z
 ---------------------------------------------------------------------
      1          7           0       -2.581612    0.658075    2.270165
      2          6           0       -2.422120    0.337037    0.961887
      3          6           0       -3.564854    0.189353    0.138190
      4          6           0       -3.447581   -0.135736   -1.195982
      5          6           0       -2.188825   -0.329925   -1.777153
      6          6           0       -1.049118   -0.193352   -1.000304
      7          6           0        0.269552   -0.411116   -1.669694
      8          8           0        0.347937   -0.697378   -2.853145
      9          6           0        1.492821   -0.265114   -0.834283
     10          6           0        2.743937   -0.460408   -1.419229
     11          6           0        3.900247   -0.330217   -0.662207
     12         17           0        5.444423   -0.582411   -1.430279
     13          6           0        3.807772    0.000199    0.700350
     14         17           0        5.234087    0.173560    1.687137
     15          6           0        2.562378    0.194793    1.283226
     16          6           0        1.399225    0.064366    0.524347
     17          6           0        0.079456    0.281820    1.189432
     18          8           0        0.054929    0.570640    2.390215
     19          6           0       -1.133080    0.140989    0.379291
     20          1           0       -1.758335    0.760371    2.849867
     21          1           0       -3.503757    0.787998    2.649057
     22          1           0       -4.544930    0.338132    0.579751
     23          1           0       -4.341997   -0.241499   -1.799664
     24          1           0       -2.081734   -0.585259   -2.822801
     25          1           0        2.799952   -0.714398   -2.469687
     26          1           0        2.481224    0.449481    2.331512
 ---------------------------------------------------------------------

 SCF Done:  E(UB3LYP) =  -1663.57731745     A.U. after    2 cycles

 Alpha  occ. eigenvalues -- -101.57420-101.57378 -19.13061 -19.12940 -14.34659
 Alpha  occ. eigenvalues --  -10.28470 -10.28297 -10.27270 -10.27194 -10.25763
 Alpha  occ. eigenvalues --  -10.21976 -10.21811 -10.21513 -10.21450 -10.21266
 Alpha  occ. eigenvalues --  -10.20940 -10.20696 -10.20274 -10.19282  -9.48880
 Alpha  occ. eigenvalues --   -9.48837  -7.25362  -7.25320  -7.24369  -7.24325
 Alpha  occ. eigenvalues --   -7.24295  -7.24253  -1.06507  -1.06302  -0.95614
 Alpha  occ. eigenvalues --   -0.93921  -0.88426  -0.87892  -0.86732  -0.80870
 Alpha  occ. eigenvalues --   -0.78448  -0.76638  -0.76350  -0.69388  -0.67505
 Alpha  occ. eigenvalues --   -0.65380  -0.63400  -0.59964  -0.58063  -0.56428
 Alpha  occ. eigenvalues --   -0.53755  -0.52085  -0.51515  -0.50211  -0.48506
 Alpha  occ. eigenvalues --   -0.47961  -0.46788  -0.46447  -0.45842  -0.45433
 Alpha  occ. eigenvalues --   -0.44184  -0.43436  -0.42383  -0.42098  -0.40325
 Alpha  occ. eigenvalues --   -0.40121  -0.39186  -0.38520  -0.36568  -0.34914
 Alpha  occ. eigenvalues --   -0.34553  -0.34179  -0.32609  -0.29084  -0.28918
 Alpha  occ. eigenvalues --   -0.28311  -0.27665  -0.27231  -0.23552
 Alpha virt. eigenvalues --   -0.12120  -0.07820  -0.04705  -0.02690  -0.01954
 Alpha virt. eigenvalues --   -0.01795  -0.00090  -0.00016   0.01794   0.01956
 Alpha virt. eigenvalues --    0.02165   0.02779   0.03064   0.03467   0.04165

  Beta  occ. eigenvalues -- -101.57420-101.57378 -19.13061 -19.12940 -14.34659
  Beta  occ. eigenvalues --  -10.28470 -10.28297 -10.27270 -10.27194 -10.25763
  Beta  occ. eigenvalues --  -10.21976 -10.21811 -10.21513 -10.21450 -10.21266
  Beta  occ. eigenvalues --  -10.20940 -10.20696 -10.20274 -10.19282  -9.48880
  Beta  occ. eigenvalues --   -9.48837  -7.25362  -7.25320  -7.24369  -7.24325
  Beta  occ. eigenvalues --   -7.24295  -7.24253  -1.06507  -1.06302  -0.95614
  Beta  occ. eigenvalues --   -0.93921  -0.88426  -0.87892  -0.86732  -0.80870
  Beta  occ. eigenvalues --   -0.78448  -0.76638  -0.76350  -0.69388  -0.67505
  Beta  occ. eigenvalues --   -0.65380  -0.63400  -0.59964  -0.58063  -0.56428
  Beta  occ. eigenvalues --   -0.53755  -0.52085  -0.51515  -0.50211  -0.48506
  Beta  occ. eigenvalues --   -0.47961  -0.46788  -0.46447  -0.45842  -0.45433
  Beta  occ. eigenvalues --   -0.44184  -0.43436  -0.42383  -0.42098  -0.40325
  Beta  occ. eigenvalues --   -0.40121  -0.39186  -0.38520  -0.36568  -0.34914
  Beta  occ. eigenvalues --   -0.34553  -0.34179  -0.32609  -0.29084  -0.28918
  Beta  occ. eigenvalues --   -0.28311  -0.27665  -0.27231  -0.23552
  Beta virt. eigenvalues --   -0.12120  -0.07820  -0.04705  -0.02690  -0.01954
  Beta virt. eigenvalues --   -0.01795  -0.00090  -0.00016   0.01794   0.01956
  Beta virt. eigenvalues --    0.02165   0.02779   0.03064   0.03467   0.04165

 Mulliken charges and spin densities:
               1          2
     1  N   -0.400948   0.000000
     2  C    0.314590   0.000000
     3  C   -0.159898   0.000000
     4  C   -0.456203  -0.000000
     5  C    0.082044  -0.000000
     6  C    0.399743  -0.000000
     7  C   -0.922809  -0.000000
     8  O   -0.204140   0.000000
     9  C   -0.468483  -0.000000
    10  C   -0.386673   0.000000
    11  C    0.496652  -0.000000
    12  Cl   0.615347   0.000000
    13  C    0.375542  -0.000000
    14  Cl   0.614862   0.000000
    15  C   -0.125469   0.000000
    16  C   -0.126795   0.000000
    17  C   -1.073319  -0.000000
    18  O   -0.245727   0.000000
    19  C    0.090597   0.000000
    20  H    0.329718   0.000000
    21  H    0.277485  -0.000000
    22  H    0.143857   0.000000
    23  H    0.183942  -0.000000
    24  H    0.177749   0.000000
    25  H    0.230616   0.000000
    26  H    0.237720  -0.000000
 Sum of Mulliken charges =  -0.00000  -0.00000

 Dipole moment (field-independent basis, Debye):
    X=             -4.2400    Y=              0.5548    Z=              1.5564  Tot=              4.5506
 Quadrupole moment (field-independent basis, Debye-Ang):
   XX=           -110.6162   YY=           -124.9708   ZZ=           -126.8077
   XY=             -1.5803   XZ=             -4.0092   YZ=             -0.2635

  Exact polarizability: 338.132 -10.321 103.539   1.326  29.440 219.145
 Approx polarizability: 480.112 -13.598 171.181   2.751  62.452 416.797

                      1                      2                      3
                      A                      A                      A
 Frequencies --     35.2073                49.2791                80.5794
 Red. masses --      8.3828                12.9301                11.4081
 Frc consts  --      0.0061                 0.0185                 0.0436
 IR Inten    --      3.3230                 0.7211                14.8295

                      4                      5                      6
                      A                      A                      A
 Frequencies --    117.2461               138.2008               155.7102
 Red. masses --      7.8244                 9.5724                 2.8736
 Frc consts  --      0.0634                 0.1077                 0.0410
 IR Inten    --      1.3950                 0.1800                41.0347

                      7                      8                      9
                      A                      A                      A
 Frequencies --    196.0905               197.0854               229.8984
 Red. masses --     27.9792                 5.4061                 1.5892
 Frc consts  --      0.6339                 0.1237                 0.0495
 IR Inten    --      0.0925                 2.8749               105.6361

                     10                     11                     12
                      A                      A                      A
 Frequencies --    233.2863               258.9874               280.7353
 Red. masses --      4.1244                 9.2582                10.9249
 Frc consts  --      0.1322                 0.3659                 0.5073
 IR Inten    --      5.0559                 0.0726                 0.0905

                     13                     14                     15
                      A                      A                      A
 Frequencies --    334.9961               335.3010               400.5105
 Red. masses --     10.1369                11.6957                 4.9319
 Frc consts  --      0.6702                 0.7747                 0.4661
 IR Inten    --      0.9817                 1.4842                 4.3395

                     16                     17                     18
                      A                      A                      A
 Frequencies --    412.3165               446.2462               451.5206
 Red. masses --     11.9547                 3.3318                 4.9991
 Frc consts  --      1.1974                 0.3909                 0.6005
 IR Inten    --      9.7212                 2.6448                 1.2491

                     19                     20                     21
                      A                      A                      A
 Frequencies --    456.8593               470.7172               500.5948
 Red. masses --      5.5289                10.4124                 6.3723
 Frc consts  --      0.6799                 1.3593                 0.9408
 IR Inten    --      3.3180                12.2703                 4.4047

                     22                     23                     24
                      A                      A                      A
 Frequencies --    544.8032               546.3269               579.6459
 Red. masses --      4.4345                 7.8883                 6.9924
 Frc consts  --      0.7755                 1.3872                 1.3842
 IR Inten    --      8.7197                20.2137                 1.3769

                     25                     26                     27
                      A                      A                      A
 Frequencies --    608.8541               650.2781               665.9218
 Red. masses --      6.9703                 1.0875                 6.7641
 Frc consts  --      1.5224                 0.2709                 1.7673
 IR Inten    --     64.9689                26.8037                 6.9556

                     28                     29                     30
                      A                      A                      A
 Frequencies --    669.7371               696.7296               717.9965
 Red. masses --      4.9728                 7.5008                 3.2424
 Frc consts  --      1.3142                 2.1453                 0.9848
 IR Inten    --      3.4084                 7.2894                 8.4963

                     31                     32                     33
                      A                      A                      A
 Frequencies --    730.5740               768.5569               789.3231
 Red. masses --      7.3941                 4.0636                 3.5522
 Frc consts  --      2.3252                 1.4142                 1.3039
 IR Inten    --      5.8208                35.3207                 0.4218

                     34                     35                     36
                      A                      A                      A
 Frequencies --    824.9965               837.3078               908.1805
 Red. masses --      2.3041                 7.3378                 6.2251
 Frc consts  --      0.9240                 3.0310                 3.0251
 IR Inten    --     14.9221                15.6539                13.4882

                     37                     38                     39
                      A                      A                      A
 Frequencies --    914.5996               921.2250               945.3858
 Red. masses --      1.3655                 1.3983                 1.4409
 Frc consts  --      0.6730                 0.6992                 0.7587
 IR Inten    --      0.0021                 0.0042                22.1441

                     40                     41                     42
                      A                      A                      A
 Frequencies --    976.5915               998.7304              1029.1026
 Red. masses --      8.9748                 1.3299                 2.2224
 Frc consts  --      5.0432                 0.7816                 1.3867
 IR Inten    --     35.3512                 0.4729                41.8097

                     43                     44                     45
                      A                      A                      A
 Frequencies --   1067.8551              1123.9448              1137.3852
 Red. masses --      2.6300                 1.5823                 2.2178
 Frc consts  --      1.7670                 1.1777                 1.6904
 IR Inten    --     12.9038                11.0522                21.6639

                     46                     47                     48
                      A                      A                      A
 Frequencies --   1154.5779              1195.7236              1210.8739
 Red. masses --      5.7901                 1.3469                 2.1679
 Frc consts  --      4.5476                 1.1346                 1.8728
 IR Inten    --      0.8132                17.4271                 6.8188

                     49                     50                     51
                      A                      A                      A
 Frequencies --   1248.8817              1287.9319              1293.1458
 Red. masses --      1.2659                 3.3551                 4.5641
 Frc consts  --      1.1633                 3.2790                 4.4968
 IR Inten    --      2.4218               227.3218               882.5890

                     52                     53                     54
                      A                      A                      A
 Frequencies --   1329.2405              1352.5185              1396.0829
 Red. masses --     11.1712                 3.5484                 5.5255
 Frc consts  --     11.6294                 3.8245                 6.3452
 IR Inten    --     17.6054                 9.5771                65.6144

                     55                     56                     57
                      A                      A                      A
 Frequencies --   1404.9894              1474.3792              1483.2498
 Red. masses --      9.5966                 2.9234                 2.6969
 Frc consts  --     11.1612                 3.7442                 3.4957
 IR Inten    --      1.3586                48.7308                 5.5466

                     58                     59                     60
                      A                      A                      A
 Frequencies --   1485.9790              1575.6335              1589.4779
 Red. masses --      3.1966                 3.3683                10.2113
 Frc consts  --      4.1588                 4.9268                15.1998
 IR Inten    --     27.0768               180.9632                19.2948

                     61                     62                     63
                      A                      A                      A
 Frequencies --   1606.1318              1609.2976              1642.1037
 Red. masses --      4.2273                 3.0635                 3.0976
 Frc consts  --      6.4251                 4.6746                 4.9213
 IR Inten    --    145.4562                50.6540               271.7396

                     64                     65                     66
                      A                      A                      A
 Frequencies --   1676.6117              1722.8638              3160.0026
 Red. masses --      7.6788                12.2247                 1.0878
 Frc consts  --     12.7176                21.3792                 6.4001
 IR Inten    --    152.0291               157.7825                 8.7827

                     67                     68                     69
                      A                      A                      A
 Frequencies --   3181.0657              3209.8437              3211.7054
 Red. masses --      1.0934                 1.0913                 1.0927
 Frc consts  --      6.5191                 6.6245                 6.6407
 IR Inten    --     17.1458                 5.6833                 2.8185

                     70                     71                     72
                      A                      A                      A
 Frequencies --   3213.5779              3518.6114              3702.4773
 Red. masses --      1.0913                 1.0525                 1.0985
 Frc consts  --      6.6401                 7.6772                 8.8723
 IR Inten    --      4.7727                69.4307                90.4507

 - Thermochemistry -
 -------------------
 Temperature   298.150 Kelvin.  Pressure   1.00000 Atm.
 Atom     1 has atomic number  7 and mass  14.00307

 Molecular mass:   290.98538 amu.
 Principal axes and moments of inertia in atomic units:
                           1         2         3
     Eigenvalues --  2644.607149810.11393**********
           X            0.99896   0.01574   0.04276
           Y           -0.04525   0.23225   0.97160
           Z           -0.00536   0.97253  -0.23272
 This molecule is an asymmetric top.
 Rotational symmetry number  1.
 Warning -- assumption of classical behavior for rotation
           may cause significant error
 Rotational temperatures (Kelvin)      0.03275     0.00883     0.00695
 Rotational constants (GHZ):           0.68242     0.18397     0.14490
 Zero-point vibrational energy     462789.7 (Joules/Mol)
                                  110.60940 (Kcal/Mol)
 Warning -- explicit consideration of  25 degrees of freedom as
           vibrations may cause significant error
 Vibrational temperatures:     50.66    70.90   115.94   168.69   198.84
          (Kelvin)            224.03   282.13   283.56   330.77   335.65
                              372.63   403.92   481.98   482.42   576.25
                              593.23   642.05   649.64   657.32   677.26
                              720.24   783.85   786.04   833.98   876.01
                              935.61   958.11   963.60  1002.44  1033.04
                             1051.13  1105.78  1135.66  1186.99  1204.70
                             1306.67  1315.90  1325.44  1360.20  1405.10
                             1436.95  1480.65  1536.41  1617.11  1636.44
                             1661.18  1720.38  1742.18  1796.86  1853.05
                             1860.55  1912.48  1945.97  2008.65  2021.47
                             2121.30  2134.07  2137.99  2266.99  2286.90
                             2310.87  2315.42  2362.62  2412.27  2478.82
                             4546.54  4576.84  4618.25  4620.93  4623.62
                             5062.50  5327.04

 Zero-point correction=                           0.176267 (Hartree/Particle)
 Thermal correction to Energy=                    0.191542
 Thermal correction to Enthalpy=                  0.192486
 Thermal correction to Gibbs Free Energy=         0.132923
 Sum of electronic and zero-point Energies=          -1663.401050
 Sum of electronic and thermal Energies=             -1663.385776
 Sum of electronic and thermal Enthalpies=           -1663.384831
 Sum of electronic and thermal Free Energies=        -1663.444395

                     E (Thermal)             CV                S
                      KCal/Mol        Cal/Mol-Kelvin    Cal/Mol-Kelvin
 Total                  120.194             59.191            125.362
 Electronic               0.000              0.000              0.000
 Translational            0.889              2.981             42.902
 Rotational               0.889              2.981             34.135
 Vibrational            118.417             53.230             48.325
 Vibration     1          0.594              1.982              5.512
 Vibration     2          0.595              1.978              4.846
 Vibration     3          0.600              1.962              3.877
 Vibration     4          0.608              1.935              3.145
 Vibration     5          0.614              1.915              2.829
 Vibration     6          0.620              1.896              2.601
 Vibration     7          0.636              1.845              2.169
 Vibration     8          0.636              1.844              2.160
 Vibration     9          0.652              1.795              1.880
 Vibration    10          0.654              1.790              1.854
 Vibration    11          0.668              1.748              1.669
 Vibration    12          0.680              1.709              1.529
 Vibration    13          0.716              1.606              1.236
 Vibration    14          0.716              1.605              1.234
 Vibration    15          0.766              1.469              0.961
 Vibration    16          0.776              1.443              0.918
 Vibration    17          0.806              1.369              0.807
 Vibration    18          0.810              1.358              0.791
 Vibration    19          0.815              1.346              0.775
 Vibration    20          0.828              1.315              0.736
 Vibration    21          0.856              1.249              0.657
 Vibration    22          0.900              1.151              0.555
 Vibration    23          0.902              1.148              0.552
 Vibration    24          0.936              1.075              0.486
 Vibration    25          0.968              1.013              0.435

                           ! Non-Optimized Parameters !
 Normal termination of Gaussian 16 at Thu Dec 21 08:56:34 2023.
