 Q-Chem 5.4, Q-Chem, Inc., Pleasanton, CA (2021)
 Q-Chem 5.4.0 for Intel X86 EM64T Linux

User input:
--------------------------------------------------------------
$molecule
0 1
C                 -2.5499930000     -2.7176760000      0.3287160000
O                 -2.4324740000     -1.3435130000     -0.0899470000
C                 -1.2480470000     -0.7086870000     -0.0704490000
C                 -1.2468870000      0.6312000000      0.2244750000
O                 -2.4134140000      1.1930790000      0.5844980000
C                 -2.7278130000      2.5540960000      0.2291950000
C                  0.0208390000      1.4011120000      0.3010020000
O                  0.0324010000      2.5510430000      0.7159270000
C                  1.2818890000      0.7154950000     -0.1057320000
C                  2.4837610000      1.4237880000     -0.0928670000
C                  3.6693480000      0.7866270000     -0.4508390000
C                  3.6576570000     -0.5593080000     -0.8195270000
C                  2.4602150000     -1.2704530000     -0.8317460000
C                  1.2707360000     -0.6364010000     -0.4719750000
C                 -0.0098390000     -1.4009370000     -0.5100200000
O                 -0.0465840000     -2.5517500000     -0.9210270000
H                 -2.2792930000     -3.3970310000     -0.4764010000
H                 -1.9225560000     -2.9124320000      1.2012600000
H                 -3.5983820000     -2.8365600000      0.5998200000
H                 -2.2823420000      3.2551590000      0.9313700000
H                 -3.8152870000      2.6066180000      0.2666560000
H                 -2.3857410000      2.7796570000     -0.7832440000
H                  2.4703370000      2.4663730000      0.1997250000
H                  4.6024660000      1.3382760000     -0.4412820000
H                  4.5813880000     -1.0533000000     -1.0984630000
H                  2.4276160000     -2.3144760000     -1.1176240000
$end
$rem
MAX_SCF_CYCLES=200
BASIS  =  6-311++G(d,p)
GUI  =  2
JOB_TYPE  =  SP
METHOD  =  B3LYP
SOLVENT_METHOD = PCM
$end
$pcm
theory = CPCM
$end
$solvent
dielectric 37.219
opticaldielectric 1.43
$end

--------------------------------------------------------------

             Standard Nuclear Orientation (Angstroms)
    I     Atom           X                Y                Z
 ----------------------------------------------------------------
    1      C      -2.5499930000    -2.7176760000     0.3287160000
    2      O      -2.4324740000    -1.3435130000    -0.0899470000
    3      C      -1.2480470000    -0.7086870000    -0.0704490000
    4      C      -1.2468870000     0.6312000000     0.2244750000
    5      O      -2.4134140000     1.1930790000     0.5844980000
    6      C      -2.7278130000     2.5540960000     0.2291950000
    7      C       0.0208390000     1.4011120000     0.3010020000
    8      O       0.0324010000     2.5510430000     0.7159270000
    9      C       1.2818890000     0.7154950000    -0.1057320000
   10      C       2.4837610000     1.4237880000    -0.0928670000
   11      C       3.6693480000     0.7866270000    -0.4508390000
   12      C       3.6576570000    -0.5593080000    -0.8195270000
   13      C       2.4602150000    -1.2704530000    -0.8317460000
   14      C       1.2707360000    -0.6364010000    -0.4719750000
   15      C      -0.0098390000    -1.4009370000    -0.5100200000
   16      O      -0.0465840000    -2.5517500000    -0.9210270000
   17      H      -2.2792930000    -3.3970310000    -0.4764010000
   18      H      -1.9225560000    -2.9124320000     1.2012600000
   19      H      -3.5983820000    -2.8365600000     0.5998200000
   20      H      -2.2823420000     3.2551590000     0.9313700000
   21      H      -3.8152870000     2.6066180000     0.2666560000
   22      H      -2.3857410000     2.7796570000    -0.7832440000
   23      H       2.4703370000     2.4663730000     0.1997250000
   24      H       4.6024660000     1.3382760000    -0.4412820000
   25      H       4.5813880000    -1.0533000000    -1.0984630000
   26      H       2.4276160000    -2.3144760000    -1.1176240000
 ----------------------------------------------------------------

    9    -764.3777578779      1.67e-06  Convergence criterion met
 Total energy in the final basis set =     -764.3777578779

                    Orbital Energies (a.u.)
 --------------------------------------------------------------

 Alpha MOs
 -- Occupied --
-19.1702 -19.1702 -19.1355 -19.1354 -10.2883 -10.2883 -10.2628 -10.2622
-10.2210 -10.2209 -10.2084 -10.2079 -10.1970 -10.1970 -10.1960 -10.1955
 -1.1021  -1.0839  -1.0648  -1.0588  -0.8909  -0.8351  -0.7804  -0.7784
 -0.7330  -0.7094  -0.6851  -0.6351  -0.6297  -0.5943  -0.5662  -0.5476
 -0.5306  -0.5008  -0.4965  -0.4945  -0.4703  -0.4678  -0.4658  -0.4535
 -0.4519  -0.4447  -0.4381  -0.4219  -0.4160  -0.3856  -0.3846  -0.3727
 -0.3714  -0.3683  -0.3402  -0.3342  -0.2865  -0.2829  -0.2801  -0.2778
 -0.2407

          Ground-State Mulliken Net Atomic Charges

     Atom                 Charge (a.u.)
  ----------------------------------------
      1 C                    -0.327076
      2 O                    -0.193151
      3 C                    -0.060177
      4 C                    -0.053030
      5 O                    -0.194598
      6 C                    -0.327170
      7 C                    -0.534370
      8 O                    -0.287693
      9 C                     0.592145
     10 C                     0.184507
     11 C                    -0.362717
     12 C                    -0.364051
     13 C                     0.185814
     14 C                     0.604174
     15 C                    -0.534684
     16 O                    -0.288144
     17 H                     0.193192
     18 H                     0.190397
     19 H                     0.173136
     20 H                     0.193361
     21 H                     0.173314
     22 H                     0.190152
     23 H                     0.196302
     24 H                     0.227070
     25 H                     0.226847
     26 H                     0.196449
  ----------------------------------------
  Sum of atomic charges =     0.000000

                    Cartesian Multipole Moments
 -----------------------------------------------------------------
    Charge (ESU x 10^10)
                 0.0000
    Dipole Moment (Debye)
         X       2.1871      Y       0.0715      Z      -0.3152
       Tot       2.2108
    Quadrupole Moments (Debye-Ang)
        XX     -74.4795     XY      -0.5130     YY     -92.8551
        XZ      -3.0718     YZ      -7.5104     ZZ     -95.2296

 Total job time:  45.00s(wall), 288.51s(cpu)
        *  Thank you very much for using Q-Chem.  Have a nice day.  *
